INSANE! Membrane UpperLeaflet>loPI:POPI:DPPI:PYPI:ERGO=180.0:5.0:3.0:2.0:10.0 LowerLeaflet>PSPI:POPI:POPS:YOPS:POPE:YOPE:POPC:YOPC:ERGO=6.0:14.0:21.0:9.0:9.0:21.0:12.0:48.0:60.0
49428
    1loPI    C1    1   8.166  12.242  10.995 -0.0557 -0.0084 -0.1748
    1loPI    C2    2   8.012  11.878  11.057 -0.0218 -0.0032 -0.0583
    1loPI    C3    3   7.981  12.160  11.340 -0.0464  0.0842 -0.1475
    1loPI   PO4    4   8.312  12.231  10.834 -0.2429 -0.2105  0.0793
    1loPI   GL1    5   8.254  12.438  10.504 -0.0468 -0.1594 -0.1980
    1loPI   GL2    6   8.318  12.631  10.356  0.0114 -0.1350 -0.0731
    1loPI   C1A    7   7.985  12.430  10.059  0.0803  0.0145  0.0287
    1loPI   C2A    8   8.098  12.421   9.647  0.1781 -0.0657 -0.0542
    1loPI   C3A    9   8.046  12.382   9.141 -0.1565  0.1484 -0.1787
    1loPI   C4A   10   8.019  12.394   8.661  0.2507  0.1058 -0.2272
    1loPI   C5A   11   8.202  12.220   8.231  0.0765  0.2236  0.3557
    1loPI   C6A   12   8.339  11.901   8.074 -0.2214  0.1746 -0.3199
    1loPI   C1B   13   8.253  12.861   9.975 -0.0542  0.0717 -0.1057
    1loPI   C2B   14   8.137  12.871   9.536 -0.2750  0.2666  0.1397
    1loPI   C3B   15   8.144  12.851   9.073  0.1617  0.1269 -0.0519
    1loPI   C4B   16   8.155  12.897   8.606 -0.3890  0.0367  0.5424
    2loPI    C1   17   1.798   5.617  11.072  0.0720 -0.1144  0.1702
    2loPI    C2   18   2.166   5.644  10.919  0.0320 -0.1770  0.0611
    2loPI    C3   19   2.115   5.540  11.302  0.1269 -0.1836  0.0721
    2loPI   PO4   20   1.659   5.765  10.815 -0.1322  0.0383  0.0723
    2loPI   GL1   21   1.459   5.847  10.413  0.2857  0.1842 -0.1007
    2loPI   GL2   22   1.391   5.473  10.435  0.0619  0.3689 -0.0395
    2loPI   C1A   23   1.491   5.806   9.952  0.1072  0.2748  0.3847
    2loPI   C2A   24   1.470   5.904   9.485  0.2896  0.0725 -0.1602
    2loPI   C3A   25   1.472   5.873   9.023  0.0202  0.1938 -0.2190
    2loPI   C4A   26   1.544   5.898   8.633 -0.0788  0.0429 -0.3770
    2loPI   C5A   27   1.280   5.930   8.308 -0.2819 -0.1569  0.5731
    2loPI   C6A   28   1.105   5.665   8.007  0.3802 -0.3570  0.1696
    2loPI   C1B   29   1.422   5.334   9.984  0.1340 -0.3723  0.0636
    2loPI   C2B   30   1.345   5.314   9.528  0.3487 -0.0320  0.3444
    2loPI   C3B   31   1.409   5.378   9.061 -0.1085 -0.3204 -0.3246
    2loPI   C4B   32   1.430   5.393   8.699  0.0863  0.1323  0.1661
    3loPI    C1   33   6.168   6.408  10.958 -0.0085  0.0619 -0.1595
    3loPI    C2   34   6.398   6.167  11.180 -0.1107  0.0517 -0.0637
    3loPI    C3   35   6.537   6.524  11.063 -0.0302  0.0274 -0.0435
    3loPI   PO4   36   6.031   6.267  10.677  0.0546 -0.1629  0.2354
    3loPI   GL1   37   6.094   5.995  10.385  0.0436  0.0718 -0.0816
    3loPI   GL2   38   6.070   5.723  10.438  0.0411  0.2572 -0.2980
    3loPI   C1A   39   6.159   5.959   9.971  0.4429 -0.0078  0.1811
    3loPI   C2A   40   6.143   5.940   9.502 -0.2012 -0.3073 -0.0229
    3loPI   C3A   41   6.101   5.882   9.031  0.2672  0.2524 -0.1252
    3loPI   C4A   42   6.148   5.896   8.594  0.0305 -0.1616  0.0460
    3loPI   C5A   43   6.161   5.684   8.199  0.1177 -0.1057 -0.2538
    3loPI   C6A   44   6.505   5.645   7.893 -0.1576  0.0811  0.1336
    3loPI   C1B   45   5.749   5.716  10.099  0.5238 -0.0248 -0.0148
    3loPI   C2B   46   5.648   5.775   9.694  0.4555  0.0726  0.0588
    3loPI   C3B   47   5.646   5.770   9.240  0.2941 -0.3777 -0.0139
    3loPI   C4B   48   5.648   5.719   8.740  0.0456  0.2267 -0.0686
    4loPI    C1   49  14.863  16.117  10.558  0.0111  0.1285 -0.0293
    4loPI    C2   50  14.568  16.023  10.812 -0.0150 -0.2370 -0.1890
    4loPI    C3   51  14.944  16.055  10.945 -0.0399 -0.3494 -0.0898
    4loPI   PO4   52  14.717  15.911  10.363 -0.0749 -0.1097  0.0466
    4loPI   GL1   53  14.766  15.550  10.109  0.1332 -0.2847  0.2792
    4loPI   GL2   54  15.021  15.736   9.971 -0.1501  0.3715 -0.1118
    4loPI   C1A   55  14.884  15.341   9.684  0.4168 -0.0104 -0.2857
    4loPI   C2A   56  14.891  15.336   9.216  0.1290 -0.1113  0.5307
    4loPI   C3A   57  14.836  15.521   8.791 -0.2284  0.2718 -0.0769
    4loPI   C4A   58  14.840  15.372   8.340  0.0978  0.2549  0.0647
    4loPI   C5A   59  14.586  15.492   7.989 -0.3260  0.2203  0.1255
    4loPI   C6A   60  14.467  15.909   7.872 -0.0082 -0.2089 -0.2674
    4loPI   C1B   61  14.989  15.930   9.592  0.3961 -0.2067 -0.2695
    4loPI   C2B   62  15.000  15.829   9.153  0.2509 -0.0435  0.0119
    4loPI   C3B   63  14.967  16.007   8.732  0.1570 -0.1668  0.0375
    4loPI   C4B   64  14.905  15.953   8.289 -0.0077 -0.0245 -0.2997
    5loPI    C1   65   8.531  11.046  10.547  0.0664  0.0847 -0.0274
    5loPI    C2   66   8.280  11.074  10.857 -0.1417  0.0264 -0.1884
    5loPI    C3   67   8.660  10.966  10.917 -0.0994  0.3096  0.0819
    5loPI   PO4   68   8.410  10.850  10.288 -0.0127  0.0366 -0.1465
    5loPI   GL1   69   8.326  10.836   9.869 -0.0102  0.1690 -0.1141
    5loPI   GL2   70   8.579  10.639   9.769  0.2322 -0.1959  0.3602
    5loPI   C1A   71   8.336  10.954   9.421 -0.1725  0.1785 -0.2869
    5loPI   C2A   72   8.386  10.910   9.068  0.0055 -0.1718  0.1786
    5loPI   C3A   73   8.322  10.998   8.591 -0.0193  0.2042 -0.1374
    5loPI   C4A   74   8.535  11.100   8.224 -0.0792 -0.3223 -0.0046
    5loPI   C5A   75   8.783  11.151   7.926  0.1931 -0.0153 -0.2201
    5loPI   C6A   76   8.841  11.097   7.522  0.0411  0.1774  0.1298
    5loPI   C1B   77   8.686  10.580   9.329 -0.0937 -0.0057  0.0303
    5loPI   C2B   78   8.685  10.572   8.846  0.4119  0.2679  0.0858
    5loPI   C3B   79   8.644  10.667   8.421 -0.0824  0.3332 -0.1682
    5loPI   C4B   80   8.831  10.680   8.017  0.0753 -0.1800 -0.0661
    6loPI    C1   81  16.348   9.380  11.013  0.1543  0.2689 -0.0711
    6loPI    C2   82  16.527   9.229  11.337  0.2272  0.0157 -0.2268
    6loPI    C3   83  16.483   9.625  11.300  0.0087  0.0376  0.2004
    6loPI   PO4   84  16.437   9.479  10.785 -0.1269 -0.0782  0.1453
    6loPI   GL1   85  16.274   9.522  10.396  0.0868  0.0086 -0.1835
    6loPI   GL2   86  16.105   9.203  10.280 -0.0378 -0.0412  0.1232
    6loPI   C1A   87  16.420   9.696  10.030  0.1424 -0.1594 -0.3323
    6loPI   C2A   88  16.466   9.700   9.545  0.2961  0.2545  0.0981
    6loPI   C3A   89  16.500   9.739   9.168  0.2538  0.0981 -0.2611
    6loPI   C4A   90  16.432   9.654   8.726 -0.2284 -0.2723  0.0143
    6loPI   C5A   91  16.375   9.493   8.299 -0.0106 -0.2511 -0.0660
    6loPI   C6A   92  16.020   9.502   7.959 -0.1376 -0.0892 -0.0334
    6loPI   C1B   93  16.178   9.220   9.925  0.0853  0.0198  0.0055
    6loPI   C2B   94  16.353   9.184   9.514  0.2678  0.2182  0.0643
    6loPI   C3B   95  16.272   9.070   9.217 -0.1870  0.1239  0.1171
    6loPI   C4B   96  16.320   9.146   8.778  0.2001 -0.0782  0.0166
    7loPI    C1   97  15.243   2.591  10.782 -0.0518  0.2963  0.4123
    7loPI    C2   98  14.936   2.335  10.789  0.2021 -0.0270  0.1083
    7loPI    C3   99  14.871   2.724  10.721 -0.1330 -0.0995 -0.0033
    7loPI   PO4  100  15.414   2.510  10.612 -0.0858 -0.0708 -0.0860
    7loPI   GL1  101  15.419   2.556  10.050  0.1360 -0.0431 -0.1689
    7loPI   GL2  102  15.622   2.932  10.114 -0.3153  0.2881 -0.0670
    7loPI   C1A  103  15.179   2.334   9.763  0.4543 -0.1080 -0.2508
    7loPI   C2A  104  15.189   2.415   9.301  0.0608  0.0202 -0.0388
    7loPI   C3A  105  15.218   2.440   8.917  0.1560 -0.3752 -0.0507
    7loPI   C4A  106  15.276   2.520   8.577 -0.0666 -0.2428  0.0530
    7loPI   C5A  107  14.942   2.590   8.236 -0.1050 -0.2405 -0.0499
    7loPI   C6A  108  14.768   2.644   7.784  0.2490 -0.0790 -0.0401
    7loPI   C1B  109  15.537   2.936   9.735 -0.3801  0.4873  0.0095
    7loPI   C2B  110  15.597   2.746   9.315  0.0970 -0.0149  0.0802
    7loPI   C3B  111  15.751   2.627   8.912 -0.1577  0.3589 -0.3779
    7loPI   C4B  112  15.756   2.614   8.538  0.1549 -0.4803  0.1757
    8loPI    C1  113  10.477  12.450  10.938  0.3065  0.1945 -0.1780
    8loPI    C2  114  10.395  12.733  11.208 -0.1106 -0.1885  0.1131
    8loPI    C3  115  10.714  12.496  11.257  0.0588  0.0203  0.0360
    8loPI   PO4  116  10.443  12.616  10.712 -0.1190 -0.0421 -0.1608
    8loPI   GL1  117  10.346  12.487  10.324  0.1214 -0.2552 -0.1600
    8loPI   GL2  118  10.664  12.580  10.237  0.0382  0.1264 -0.0219
    8loPI   C1A  119  10.253  12.836  10.106  0.0289  0.2536 -0.2615
    8loPI   C2A  120  10.094  12.966   9.818  0.0361  0.0535 -0.0604
    8loPI   C3A  121  10.214  12.929   9.445  0.1478 -0.0192  0.0975
    8loPI   C4A  122  10.069  12.851   9.053 -0.2288  0.1625  0.0674
    8loPI   C5A  123  10.181  12.927   8.663  0.1763 -0.2141  0.0733
    8loPI   C6A  124  10.296  13.087   8.257 -0.1288  0.1745 -0.0360
    8loPI   C1B  125  10.565  12.545   9.752 -0.0082 -0.0612 -0.2143
    8loPI   C2B  126  10.528  12.551   9.360 -0.2789 -0.0685 -0.2239
    8loPI   C3B  127  10.524  12.578   8.913  0.2569 -0.2897  0.0819
    8loPI   C4B  128  10.428  12.497   8.514  0.0934 -0.0944  0.0166
    9loPI    C1  129  14.046   9.178  10.829 -0.1215  0.1072  0.2145
    9loPI    C2  130  13.982   8.793  10.915 -0.1431  0.0777  0.0684
    9loPI    C3  131  14.147   9.033  11.189  0.1016 -0.0931  0.0744
    9loPI   PO4  132  14.075   9.149  10.465  0.1502 -0.2251  0.2965
    9loPI   GL1  133  13.889   9.194  10.148 -0.1131 -0.0663 -0.1517
    9loPI   GL2  134  14.125   8.944   9.987  0.0660 -0.0504 -0.1707
    9loPI   C1A  135  13.927   9.299   9.682  0.0701 -0.0689  0.0040
    9loPI   C2A  136  14.079   9.344   9.300 -0.0081  0.2893  0.0280
    9loPI   C3A  137  14.096   9.317   8.857  0.1608 -0.0566  0.1355
    9loPI   C4A  138  14.171   9.232   8.452 -0.0863  0.0591 -0.0074
    9loPI   C5A  139  13.900   9.147   8.154 -0.0820  0.3421 -0.0540
    9loPI   C6A  140  13.603   9.144   7.826  0.2309  0.1492 -0.0495
    9loPI   C1B  141  14.427   8.966   9.560  0.2298  0.2332  0.1024
    9loPI   C2B  142  14.447   9.026   9.117 -0.0179 -0.1528 -0.0074
    9loPI   C3B  143  14.534   9.059   8.746 -0.1065  0.1186  0.1189
    9loPI   C4B  144  14.687   9.143   8.381  0.2024 -0.4135 -0.0412
   10loPI    C1  145   6.051   9.580  10.650 -0.1810 -0.1222 -0.0788
   10loPI    C2  146   6.186   9.212  10.728 -0.0951 -0.1144 -0.1884
   10loPI    C3  147   6.299   9.519  10.957 -0.1396 -0.1505 -0.1177
   10loPI   PO4  148   6.067   9.517  10.377 -0.2001 -0.0231 -0.1327
   10loPI   GL1  149   6.214   9.416  10.042 -0.3403  0.3468  0.0456
   10loPI   GL2  150   6.592   9.403   9.897  0.1198 -0.1491  0.0364
   10loPI   C1A  151   5.979   9.282   9.669 -0.0986 -0.3132 -0.1106
   10loPI   C2A  152   5.911   9.216   9.273  0.0931 -0.0736 -0.1224
   10loPI   C3A  153   5.988   9.324   8.850  0.1652  0.1788 -0.0575
   10loPI   C4A  154   6.016   9.267   8.400 -0.0032  0.2020  0.0514
   10loPI   C5A  155   5.814   9.501   8.027 -0.0173 -0.1584  0.0572
   10loPI   C6A  156   5.589   9.389   7.655  0.1770  0.1795 -0.2954
   10loPI   C1B  157   6.506   9.440   9.554  0.2106  0.0585 -0.0943
   10loPI   C2B  158   6.494   9.406   9.092 -0.0470 -0.2537 -0.1366
   10loPI   C3B  159   6.522   9.422   8.671  0.2786 -0.0169 -0.3166
   10loPI   C4B  160   6.489   9.526   8.308 -0.0559  0.3142 -0.1778
   11loPI    C1  161   5.062  11.594  10.946 -0.0301 -0.0062 -0.0497
   11loPI    C2  162   5.278  11.479  11.263 -0.0428  0.0705 -0.0129
   11loPI    C3  163   5.128  11.849  11.247 -0.0912  0.0482 -0.0823
   11loPI   PO4  164   5.128  11.528  10.722 -0.0701  0.1689 -0.2672
   11loPI   GL1  165   5.017  11.448  10.341  0.2393  0.0085  0.2794
   11loPI   GL2  166   4.720  11.521  10.363 -0.2442  0.0867  0.1329
   11loPI   C1A  167   5.091  11.308   9.982 -0.0326 -0.0155 -0.2912
   11loPI   C2A  168   5.061  11.305   9.475  0.1019 -0.1630 -0.0693
   11loPI   C3A  169   5.003  11.371   9.095  0.0084  0.1092 -0.1296
   11loPI   C4A  170   5.006  11.286   8.633  0.1620  0.2073  0.2354
   11loPI   C5A  171   5.271  11.290   8.276  0.0197  0.1281 -0.0555
   11loPI   C6A  172   5.405  11.644   8.199  0.2518 -0.2562  0.1817
   11loPI   C1B  173   4.715  11.740   9.996 -0.2133  0.0303  0.3087
   11loPI   C2B  174   4.680  11.735   9.512  0.1629 -0.1306  0.1254
   11loPI   C3B  175   4.634  11.718   9.001  0.0720  0.3575  0.0276
   11loPI   C4B  176   4.634  11.706   8.639 -0.0059 -0.0154  0.1629
   12loPI    C1  177   3.360   0.884  11.056 -0.2976 -0.2345  0.1895
   12loPI    C2  178   3.294   1.194  11.300  0.0259  0.0666 -0.0938
   12loPI    C3  179   3.573   0.923  11.392  0.0628  0.1126 -0.0698
   12loPI   PO4  180   3.210   1.092  10.785 -0.0047 -0.0082 -0.0899
   12loPI   GL1  181   3.376   1.027  10.458  0.0535 -0.2535 -0.0332
   12loPI   GL2  182   3.696   0.829  10.388 -0.2474  0.4150 -0.3871
   12loPI   C1A  183   3.306   1.046  10.078  0.1994 -0.1702  0.0997
   12loPI   C2A  184   3.223   1.194   9.752  0.0754  0.2086 -0.2959
   12loPI   C3A  185   3.308   1.155   9.300  0.1603  0.0024 -0.1106
   12loPI   C4A  186   3.226   1.169   8.871  0.1691 -0.0268 -0.0491
   12loPI   C5A  187   3.340   1.286   8.436  0.1531  0.1252  0.1901
   12loPI   C6A  188   3.797   1.631   8.256  0.1614 -0.0759 -0.1472
   12loPI   C1B  189   3.659   0.737   9.830 -0.3746 -0.2798 -0.2641
   12loPI   C2B  190   3.619   0.801   9.446  0.0228 -0.0197  0.0613
   12loPI   C3B  191   3.579   0.797   8.987 -0.5172 -0.2282  0.2116
   12loPI   C4B  192   3.435   0.785   8.664 -0.1438 -0.0864  0.0301
   13loPI    C1  193  11.064   6.552  10.151  0.0673  0.1335 -0.0077
   13loPI    C2  194  11.042   6.438  10.534  0.1765  0.0135 -0.0363
   13loPI    C3  195  11.248   6.217  10.271  0.0080  0.0347 -0.1885
   13loPI   PO4  196  10.870   6.734  10.131 -0.0010 -0.0065 -0.2318
   13loPI   GL1  197  10.602   6.804   9.770 -0.0364  0.1419  0.2269
   13loPI   GL2  198  10.397   6.572   9.896 -0.0136 -0.0277  0.0937
   13loPI   C1A  199  10.459   6.890   9.330 -0.0743  0.0792  0.0783
   13loPI   C2A  200  10.437   6.896   8.877  0.4207  0.0883  0.1549
   13loPI   C3A  201  10.519   6.844   8.476 -0.1591 -0.0382  0.1801
   13loPI   C4A  202  10.586   6.834   8.002  0.1849 -0.2932  0.0596
   13loPI   C5A  203  10.639   7.276   7.837  0.0164  0.3505 -0.0003
   13loPI   C6A  204  10.413   7.539   7.529 -0.0531 -0.0683  0.0580
   13loPI   C1B  205  10.018   6.664   9.556  0.2432 -0.3077 -0.1464
   13loPI   C2B  206   9.921   6.725   9.164 -0.2274 -0.0722 -0.0480
   13loPI   C3B  207   9.990   6.735   8.686 -0.2100 -0.0272 -0.1220
   13loPI   C4B  208  10.044   6.733   8.279 -0.0654  0.0859 -0.2697
   14loPI    C1  209  16.495   7.186  10.902  0.0498  0.2255  0.0671
   14loPI    C2  210  16.168   7.280  10.691  0.0219 -0.0134  0.0005
   14loPI    C3  211  16.207   7.407  11.069 -0.1111  0.0819 -0.0173
   14loPI   PO4  212  16.709   7.097  10.670 -0.1118  0.0340 -0.2028
   14loPI   GL1  213  17.031   7.371  10.411  0.2014  0.0902 -0.1274
   14loPI   GL2  214  16.971   7.110  10.255  0.1335 -0.2206 -0.0657
   14loPI   C1A  215  17.161   7.473   9.985 -0.1062  0.0225  0.2055
   14loPI   C2A  216  17.342   7.450   9.548 -0.1611 -0.1069 -0.1218
   14loPI   C3A  217  17.327   7.516   9.144 -0.0523  0.0580 -0.4110
   14loPI   C4A  218  17.366   7.538   8.744 -0.1094 -0.1277  0.2250
   14loPI   C5A  219  17.217   7.672   8.372  0.4020 -0.2424  0.1967
   14loPI   C6A  220  17.100   7.258   8.194 -0.0829  0.2133 -0.1238
   14loPI   C1B  221  17.093   6.947   9.834  0.1082 -0.2489  0.0972
   14loPI   C2B  222  17.214   7.004   9.406 -0.0842 -0.0832  0.2031
   14loPI   C3B  223  17.212   7.067   9.013 -0.2411  0.0658  0.3910
   14loPI   C4B  224  17.210   7.115   8.641 -0.0859 -0.3583  0.0422
   15loPI    C1  225  10.700  13.340  11.272 -0.1536  0.0359 -0.0638
   15loPI    C2  226  10.311  13.252  11.305 -0.1173 -0.0563  0.1334
   15loPI    C3  227  10.578  13.066  11.537  0.0554 -0.0630 -0.0684
   15loPI   PO4  228  10.689  13.435  10.956  0.1559 -0.2007  0.1680
   15loPI   GL1  229  10.668  13.403  10.495  0.4185  0.1274 -0.2339
   15loPI   GL2  230  10.611  13.065  10.412  0.2170 -0.1981  0.1059
   15loPI   C1A  231  10.758  13.582  10.122  0.4655  0.4073  0.1641
   15loPI   C2A  232  10.756  13.585   9.672 -0.1348 -0.0180  0.0752
   15loPI   C3A  233  10.769  13.510   9.251  0.1294  0.0158  0.2296
   15loPI   C4A  234  10.746  13.657   8.934  0.1207  0.2613  0.0419
   15loPI   C5A  235  10.757  13.701   8.470 -0.0373 -0.2132 -0.4038
   15loPI   C6A  236  10.822  13.973   8.116  0.1199 -0.0193 -0.1960
   15loPI   C1B  237  10.754  12.999   9.993  0.3502 -0.3681 -0.0767
   15loPI   C2B  238  10.647  13.058   9.606 -0.1249  0.3778  0.1883
   15loPI   C3B  239  10.632  13.023   9.187 -0.0355 -0.0196  0.0386
   15loPI   C4B  240  10.714  13.113   8.745  0.1346  0.1177  0.0044
   16loPI    C1  241   8.882   7.877  10.746 -0.0528  0.0716  0.0431
   16loPI    C2  242   9.204   8.013  10.940  0.1362 -0.0099 -0.2078
   16loPI    C3  243   9.200   7.641  10.795 -0.1088 -0.0411 -0.1270
   16loPI   PO4  244   8.813   8.072  10.631 -0.0528  0.0398  0.2263
   16loPI   GL1  245   8.662   8.255  10.199 -0.1578 -0.1504 -0.1765
   16loPI   GL2  246   8.961   8.177  10.084  0.3235  0.1956  0.1286
   16loPI   C1A  247   8.518   8.075   9.779  0.1833 -0.2486 -0.0696
   16loPI   C2A  248   8.546   8.060   9.345  0.2680 -0.1208  0.0073
   16loPI   C3A  249   8.586   8.235   8.928  0.2648  0.1834  0.0792
   16loPI   C4A  250   8.547   8.183   8.568 -0.0537  0.1771  0.4647
   16loPI   C5A  251   8.830   8.271   8.225 -0.2249  0.2388  0.0129
   16loPI   C6A  252   8.922   8.323   7.875 -0.0608 -0.3635  0.0316
   16loPI   C1B  253   9.057   8.157   9.693  0.0832 -0.1089 -0.0467
   16loPI   C2B  254   9.045   8.213   9.280 -0.1685  0.0999  0.2241
   16loPI   C3B  255   9.063   8.195   8.803  0.1146  0.0106 -0.1003
   16loPI   C4B  256   9.202   8.487   8.497 -0.0643  0.3337  0.2081
   17loPI    C1  257   7.903   0.401  10.919  0.0009  0.2657  0.0648
   17loPI    C2  258   7.837   0.448  11.311 -0.2212  0.2242  0.0332
   17loPI    C3  259   8.069   0.708  11.115 -0.2683  0.3581  0.1528
   17loPI   PO4  260   7.633   0.459  10.764  0.0805 -0.0091  0.0253
   17loPI   GL1  261   7.594   0.616  10.455 -0.3778  0.2718 -0.0524
   17loPI   GL2  262   7.227   0.578  10.421  0.2753 -0.0297  0.2501
   17loPI   C1A  263   7.837   0.661  10.123 -0.0257  0.0349  0.0325
   17loPI   C2A  264   7.736   0.632   9.694 -0.1780 -0.3639 -0.2920
   17loPI   C3A  265   7.773   0.655   9.355 -0.1259  0.2822 -0.0771
   17loPI   C4A  266   7.693   0.528   9.011  0.0963  0.1080 -0.2313
   17loPI   C5A  267   7.721   0.525   8.617  0.0643 -0.0100 -0.0110
   17loPI   C6A  268   7.792   0.720   8.254  0.1738 -0.1064 -0.1602
   17loPI   C1B  269   7.250   0.428  10.064  0.0642 -0.1476 -0.1432
   17loPI   C2B  270   7.205   0.480   9.639  0.0053  0.0491  0.0626
   17loPI   C3B  271   7.220   0.445   9.209  0.1698 -0.1847 -0.1095
   17loPI   C4B  272   7.250   0.344   8.737 -0.1041  0.2679 -0.0062
   18loPI    C1  273   0.491   2.424  11.099  0.1510  0.0351 -0.0086
   18loPI    C2  274   0.545   2.173  11.406  0.0891 -0.1813 -0.1725
   18loPI    C3  275   0.712   2.537  11.414 -0.0597 -0.1167  0.1968
   18loPI   PO4  276   0.543   2.298  10.884 -0.2573 -0.1005  0.1074
   18loPI   GL1  277   0.878   2.105  10.570  0.0844 -0.1397  0.1152
   18loPI   GL2  278   0.750   2.243  10.427 -0.0764  0.1340 -0.0955
   18loPI   C1A  279   1.089   1.940  10.239  0.0278  0.2370  0.3182
   18loPI   C2A  280   1.126   1.998   9.842 -0.2943 -0.1070 -0.1641
   18loPI   C3A  281   1.089   2.002   9.443 -0.1171  0.0118  0.1345
   18loPI   C4A  282   1.039   1.871   9.053  0.3264 -0.2401 -0.1440
   18loPI   C5A  283   0.974   1.943   8.615  0.1228  0.2127 -0.0413
   18loPI   C6A  284   0.682   2.041   8.260 -0.1856 -0.0812  0.2561
   18loPI   C1B  285   0.792   2.424  10.089 -0.0515  0.1305 -0.0169
   18loPI   C2B  286   0.798   2.312   9.692  0.1552 -0.1023  0.0376
   18loPI   C3B  287   0.639   2.260   9.319 -0.3071  0.2715 -0.0809
   18loPI   C4B  288   0.634   2.225   8.977  0.0828  0.2671 -0.0010
   19loPI    C1  289   6.015  16.763  10.764  0.0535 -0.1273 -0.1538
   19loPI    C2  290   6.061  16.554  11.102 -0.2525  0.1166  0.0444
   19loPI    C3  291   5.938  16.370  10.769 -0.2488 -0.0695  0.1443
   19loPI   PO4  292   6.196  16.887  10.695 -0.0597 -0.1457  0.1280
   19loPI   GL1  293   6.404  16.997  10.325 -0.1721 -0.3137 -0.0486
   19loPI   GL2  294   6.667  17.033  10.332 -0.2912  0.3109  0.0337
   19loPI   C1A  295   6.374  17.024   9.908 -0.1714  0.3003 -0.0112
   19loPI   C2A  296   6.379  16.868   9.546  0.1643 -0.2292  0.2373
   19loPI   C3A  297   6.314  16.973   9.074 -0.2765 -0.0034 -0.0513
   19loPI   C4A  298   6.364  16.941   8.655  0.3404 -0.0395  0.4253
   19loPI   C5A  299   6.415  17.195   8.388 -0.2524  0.0176  0.1528
   19loPI   C6A  300   6.363  17.566   8.221  0.2494  0.2848 -0.0297
   19loPI   C1B  301   6.857  17.118  10.034  0.0040 -0.2290 -0.2659
   19loPI   C2B  302   6.861  17.103   9.594  0.5937 -0.0254 -0.0050
   19loPI   C3B  303   6.802  17.151   9.173  0.4015  0.1135 -0.0462
   19loPI   C4B  304   6.808  17.186   8.830 -0.0962 -0.2929 -0.0825
   20loPI    C1  305  17.518  13.104  10.815 -0.0439  0.1600 -0.0511
   20loPI    C2  306  17.329  12.822  11.027 -0.0422 -0.0203 -0.2855
   20loPI    C3  307  17.688  12.954  11.145 -0.1437  0.0491 -0.0493
   20loPI   PO4  308  17.348  13.119  10.605 -0.0123  0.1569 -0.0203
   20loPI   GL1  309  17.367  13.379  10.221 -0.2162 -0.0555  0.4370
   20loPI   GL2  310  17.616  13.282  10.196 -0.3523 -0.0843  0.1277
   20loPI   C1A  311  17.345  13.346   9.729 -0.2379  0.0877  0.0728
   20loPI   C2A  312  17.304  13.489   9.322 -0.0494  0.1232  0.0756
   20loPI   C3A  313  17.213  13.328   8.866 -0.1691  0.5178 -0.1643
   20loPI   C4A  314  17.156  13.265   8.379 -0.1120 -0.2448 -0.1163
   20loPI   C5A  315  16.822  13.062   8.069 -0.1271  0.0236 -0.0200
   20loPI   C6A  316  16.519  13.172   7.878 -0.1614 -0.1106  0.1557
   20loPI   C1B  317  17.793  13.490   9.834 -0.0140 -0.1319 -0.3096
   20loPI   C2B  318  17.786  13.572   9.405  0.2477  0.0514  0.2279
   20loPI   C3B  319  17.710  13.515   9.008 -0.0947  0.1874 -0.2546
   20loPI   C4B  320  17.644  13.527   8.588  0.1415  0.1067 -0.1459
   21loPI    C1  321  16.251  14.825  10.884 -0.0062  0.3120 -0.2360
   21loPI    C2  322  15.898  14.944  11.031 -0.0643  0.0691 -0.1746
   21loPI    C3  323  16.218  14.922  11.271 -0.0506  0.1112 -0.1886
   21loPI   PO4  324  16.250  14.612  10.743 -0.0299  0.0714  0.0170
   21loPI   GL1  325  16.309  14.514  10.314  0.3687  0.0689 -0.1020
   21loPI   GL2  326  16.633  14.460  10.193 -0.0616 -0.5312  0.2667
   21loPI   C1A  327  16.211  14.826   9.915  0.2929 -0.0299 -0.2362
   21loPI   C2A  328  16.187  14.865   9.517  0.2433 -0.0917  0.0506
   21loPI   C3A  329  16.138  14.860   9.134 -0.5196 -0.0864  0.0210
   21loPI   C4A  330  16.177  14.945   8.804 -0.1070  0.1892 -0.1644
   21loPI   C5A  331  16.131  14.983   8.312 -0.0105  0.1861 -0.2240
   21loPI   C6A  332  15.917  14.850   7.966 -0.1190  0.2639 -0.4362
   21loPI   C1B  333  16.580  14.521   9.746  0.1504 -0.3834  0.0813
   21loPI   C2B  334  16.455  14.430   9.369  0.1892 -0.0612 -0.2185
   21loPI   C3B  335  16.503  14.524   9.005 -0.0461  0.0266  0.1569
   21loPI   C4B  336  16.559  14.642   8.565 -0.3392 -0.0376 -0.1812
   22loPI    C1  337  17.154  17.204  10.584  0.0705 -0.1326  0.0005
   22loPI    C2  338  17.057  17.170  10.971 -0.1253 -0.1802 -0.0516
   22loPI    C3  339  17.124  16.842  10.752  0.2413 -0.1461  0.0034
   22loPI   PO4  340  17.362  17.465  10.593 -0.1815  0.3448 -0.2270
   22loPI   GL1  341  17.567  17.706  10.276 -0.0259  0.1765 -0.0164
   22loPI   GL2  342  17.503  18.046  10.323 -0.0442 -0.0338  0.1705
   22loPI   C1A  343  17.741  17.715   9.763  0.1024 -0.1399 -0.2929
   22loPI   C2A  344  17.755  17.730   9.337  0.1497 -0.1218  0.0909
   22loPI   C3A  345  17.725  17.664   8.940 -0.0777  0.2274  0.0406
   22loPI   C4A  346  17.608  17.906   8.566  0.0100 -0.0176 -0.1942
   22loPI   C5A  347  17.456  18.005   8.237 -0.1364 -0.1363 -0.0094
   22loPI   C6A  348  17.556  18.277   7.899  0.0469  0.0011 -0.3284
   22loPI   C1B  349  17.374  18.056   9.960  0.1397  0.0503  0.0267
   22loPI   C2B  350  17.396  18.036   9.506 -0.0795 -0.0173 -0.0845
   22loPI   C3B  351  17.315  18.111   9.135 -0.1317 -0.2893  0.1276
   22loPI   C4B  352  17.197  18.150   8.666 -0.2386 -0.1024 -0.0310
   23loPI    C1  353  14.244   5.012  10.593  0.0414  0.2103 -0.1622
   23loPI    C2  354  14.300   5.404  10.655  0.2508  0.1336  0.1591
   23loPI    C3  355  14.213   5.163  10.962  0.2111 -0.0875 -0.0224
   23loPI   PO4  356  14.098   5.013  10.276 -0.2448 -0.0099  0.0174
   23loPI   GL1  357  14.116   4.636   9.863  0.0937 -0.0811 -0.0508
   23loPI   GL2  358  14.431   4.440   9.906 -0.2449 -0.1352 -0.1700
   23loPI   C1A  359  14.169   4.641   9.447  0.3072  0.0149  0.1909
   23loPI   C2A  360  14.299   4.766   9.048 -0.2451 -0.0027 -0.0051
   23loPI   C3A  361  14.374   4.716   8.723  0.0271  0.0623  0.3372
   23loPI   C4A  362  14.224   4.513   8.362 -0.1162 -0.1536 -0.1241
   23loPI   C5A  363  14.078   4.403   8.068  0.1118 -0.0861  0.0470
   23loPI   C6A  364  14.328   4.238   7.721 -0.1142  0.2434 -0.1480
   23loPI   C1B  365  14.679   4.409   9.462  0.0878 -0.0103 -0.1426
   23loPI   C2B  366  14.731   4.406   9.017  0.0414  0.2980  0.0517
   23loPI   C3B  367  14.714   4.212   8.617 -0.0739  0.0427 -0.1845
   23loPI   C4B  368  14.628   4.192   8.169 -0.0184 -0.0175 -0.0383
   24loPI    C1  369  12.050  17.361  10.749 -0.2377 -0.1907  0.0364
   24loPI    C2  370  12.407  17.181  10.730 -0.0096  0.2525 -0.0137
   24loPI    C3  371  12.190  17.161  11.066  0.1337  0.1136  0.0718
   24loPI   PO4  372  11.861  17.329  10.599 -0.2477 -0.0190  0.4846
   24loPI   GL1  373  11.716  17.421  10.110 -0.1494  0.0244  0.0021
   24loPI   GL2  374  11.604  17.180  10.174  0.0355  0.1440  0.0554
   24loPI   C1A  375  12.115  17.368   9.874 -0.2541 -0.2342 -0.2354
   24loPI   C2A  376  12.162  17.238   9.376  0.4086 -0.3067  0.3206
   24loPI   C3A  377  11.996  17.305   9.044 -0.3082  0.0425  0.1382
   24loPI   C4A  378  11.976  17.264   8.645 -0.0996  0.0664 -0.1410
   24loPI   C5A  379  12.178  17.209   8.322  0.3015  0.2214 -0.0708
   24loPI   C6A  380  12.103  17.404   7.825  0.1931  0.3696 -0.1315
   24loPI   C1B  381  11.460  17.254   9.739  0.1527  0.0875  0.0228
   24loPI   C2B  382  11.541  17.211   9.376 -0.0079  0.0072 -0.0436
   24loPI   C3B  383  11.438  17.080   8.925  0.3076  0.0024  0.0742
   24loPI   C4B  384  11.387  17.054   8.476 -0.1002 -0.0046  0.0784
   25loPI    C1  385   0.386  18.134  11.385  0.0333 -0.1627  0.3535
   25loPI    C2  386   0.008  18.264  11.387 -0.0116 -0.2633 -0.1492
   25loPI    C3  387   0.094  17.897  11.521 -0.0436 -0.1320  0.2434
   25loPI   PO4  388   0.406  18.226  11.081 -0.1664  0.1151 -0.1494
   25loPI   GL1  389   0.409  18.283  10.646  0.1528  0.0933 -0.6360
   25loPI   GL2  390   0.573  18.558  10.350  0.1730 -0.0175 -0.0845
   25loPI   C1A  391   0.185  18.259  10.212  0.0328  0.2602  0.0753
   25loPI   C2A  392   0.204  18.415   9.815 -0.1207  0.0459 -0.0446
   25loPI   C3A  393   0.161  18.399   9.409 -0.2667 -0.1526 -0.3274
   25loPI   C4A  394   0.098  18.400   9.011  0.2011  0.0644  0.1991
   25loPI   C5A  395   0.007  18.461   8.605 -0.0628 -0.1944  0.1984
   25loPI   C6A  396   0.222  18.497   8.327 -0.1640  0.2657 -0.1888
   25loPI   C1B  397   0.727  18.482  10.035  0.2263 -0.1380 -0.1422
   25loPI   C2B  398   0.703  18.660   9.638  0.1425  0.1422 -0.0494
   25loPI   C3B  399   0.572  18.590   9.183 -0.2175 -0.0564  0.0853
   25loPI   C4B  400   0.553  18.556   8.764  0.1674  0.0001 -0.0587
   26loPI    C1  401  17.663   7.133  11.025 -0.3372 -0.0651  0.1264
   26loPI    C2  402  17.784   7.494  11.147 -0.1080 -0.1266  0.0853
   26loPI    C3  403  17.675   7.218  11.415 -0.0936 -0.0925  0.1265
   26loPI   PO4  404  17.772   7.065  10.816  0.2554 -0.3003 -0.0842
   26loPI   GL1  405  17.555   7.106  10.352  0.0747  0.1995  0.2710
   26loPI   GL2  406  17.453   7.090  10.131 -0.3165 -0.2405  0.1861
   26loPI   C1A  407  18.004   7.158  10.205 -0.1714 -0.2098  0.1012
   26loPI   C2A  408  18.142   7.271   9.786  0.0079  0.1408 -0.0271
   26loPI   C3A  409  18.253   7.321   9.378  0.0342 -0.3120  0.2114
   26loPI   C4A  410  18.156   7.398   8.941  0.1575  0.0452 -0.0454
   26loPI   C5A  411  18.193   7.421   8.533 -0.1982 -0.0881  0.0563
   26loPI   C6A  412  18.482   7.115   8.344 -0.0252 -0.0697  0.0903
   26loPI   C1B  413  17.619   7.084   9.688 -0.0933 -0.3076  0.0680
   26loPI   C2B  414  17.772   7.126   9.237 -0.1281  0.0068  0.0860
   26loPI   C3B  415  17.706   7.216   8.846 -0.3113 -0.2297 -0.0295
   26loPI   C4B  416  17.667   7.347   8.400 -0.1566  0.2818  0.1580
   27loPI    C1  417   5.878   7.143  10.835 -0.1766  0.1157 -0.0924
   27loPI    C2  418   5.566   7.371  10.938 -0.0276  0.1832  0.2212
   27loPI    C3  419   5.737   7.132  11.209  0.1817  0.1323  0.0476
   27loPI   PO4  420   5.826   7.229  10.581  0.0962 -0.1428  0.2263
   27loPI   GL1  421   5.942   7.105  10.259 -0.1056 -0.0346 -0.1497
   27loPI   GL2  422   6.277   7.055  10.251 -0.1752  0.0921  0.1075
   27loPI   C1A  423   5.975   6.842   9.852 -0.4570 -0.1562 -0.0882
   27loPI   C2A  424   5.855   6.788   9.368  0.0491 -0.4039 -0.4816
   27loPI   C3A  425   5.901   6.770   9.007 -0.3129  0.4923 -0.2331
   27loPI   C4A  426   5.851   6.716   8.574  0.4345  0.2985  0.2259
   27loPI   C5A  427   6.019   6.723   8.178 -0.1285 -0.1639  0.2107
   27loPI   C6A  428   6.189   6.976   7.802 -0.1263  0.0933  0.2356
   27loPI   C1B  429   6.392   7.104   9.830 -0.2365 -0.2127  0.0929
   27loPI   C2B  430   6.418   7.024   9.403  0.2511 -0.1527  0.2162
   27loPI   C3B  431   6.443   7.030   8.970  0.0868 -0.0774 -0.0316
   27loPI   C4B  432   6.341   6.974   8.604 -0.2835 -0.2654 -0.0298
   28loPI    C1  433  15.004   8.106  10.499  0.0301 -0.1917 -0.0199
   28loPI    C2  434  14.999   7.852  10.808 -0.0064 -0.0812  0.0713
   28loPI    C3  435  14.787   8.191  10.825 -0.0550 -0.1024 -0.0992
   28loPI   PO4  436  15.257   8.136  10.433 -0.1753  0.1025  0.1789
   28loPI   GL1  437  15.562   7.922  10.215 -0.1841  0.1139 -0.3237
   28loPI   GL2  438  15.818   7.741  10.073  0.0887 -0.2482 -0.0319
   28loPI   C1A  439  15.580   8.039   9.804  0.3748 -0.0780 -0.0763
   28loPI   C2A  440  15.672   7.942   9.333  0.1353 -0.1900  0.1986
   28loPI   C3A  441  15.646   8.079   8.868  0.1116  0.1194  0.0585
   28loPI   C4A  442  15.645   7.954   8.459  0.1002 -0.1071  0.0621
   28loPI   C5A  443  15.438   8.053   8.068 -0.1069 -0.1245  0.1697
   28loPI   C6A  444  15.488   8.274   7.640  0.0488  0.1362  0.3001
   28loPI   C1B  445  15.881   7.593   9.676 -0.1002  0.1277  0.1214
   28loPI   C2B  446  16.004   7.640   9.170 -0.0999 -0.0966  0.1136
   28loPI   C3B  447  16.027   7.651   8.642 -0.0623  0.0099 -0.0107
   28loPI   C4B  448  16.310   7.582   8.169  0.0972  0.0028  0.1076
   29loPI    C1  449  11.261  12.669  10.683 -0.2706  0.2787  0.0555
   29loPI    C2  450  11.184  12.431  10.995  0.0019 -0.0989 -0.1577
   29loPI    C3  451  10.939  12.431  10.679 -0.1485  0.1128 -0.0430
   29loPI   PO4  452  11.485  12.592  10.525  0.0636 -0.0432 -0.5073
   29loPI   GL1  453  11.625  12.379  10.213  0.2382  0.0095  0.2528
   29loPI   GL2  454  11.856  12.589  10.201 -0.2290  0.1234 -0.0813
   29loPI   C1A  455  11.483  12.385   9.815 -0.0768  0.2662 -0.3848
   29loPI   C2A  456  11.389  12.383   9.535 -0.0898 -0.2481 -0.0667
   29loPI   C3A  457  11.390  12.367   9.051 -0.1484  0.0262 -0.1186
   29loPI   C4A  458  11.342  12.363   8.613 -0.1210 -0.1292 -0.0339
   29loPI   C5A  459  11.580  12.069   8.288  0.1400 -0.0437  0.2345
   29loPI   C6A  460  11.398  11.901   7.883 -0.1671  0.1658 -0.1393
   29loPI   C1B  461  11.903  12.554   9.764  0.1195 -0.1043 -0.1126
   29loPI   C2B  462  11.804  12.467   9.313 -0.1238  0.1498  0.0007
   29loPI   C3B  463  11.889  12.540   8.964  0.1295  0.2087  0.1330
   29loPI   C4B  464  11.796  12.470   8.655 -0.3697 -0.2447  0.1171
   30loPI    C1  465  13.188  11.000  11.081 -0.1396 -0.0358  0.0528
   30loPI    C2  466  13.518  10.775  11.091 -0.1495 -0.0708 -0.3002
   30loPI    C3  467  13.212  10.691  11.334  0.0165 -0.1697 -0.1229
   30loPI   PO4  468  13.183  11.053  10.839  0.0923 -0.3050 -0.0561
   30loPI   GL1  469  13.394  10.902  10.432  0.1354  0.0925 -0.0828
   30loPI   GL2  470  13.104  10.804  10.387 -0.0678 -0.0713 -0.2059
   30loPI   C1A  471  13.449  11.073  10.166  0.0975 -0.1951 -0.0199
   30loPI   C2A  472  13.403  11.040   9.753  0.0487 -0.0494  0.0223
   30loPI   C3A  473  13.473  11.108   9.290 -0.1161  0.3366 -0.1415
   30loPI   C4A  474  13.447  11.039   8.822  0.3129  0.3024  0.1007
   30loPI   C5A  475  13.551  11.052   8.417  0.0937  0.1160 -0.0211
   30loPI   C6A  476  13.430  10.861   7.975 -0.1662 -0.1329 -0.0319
   30loPI   C1B  477  12.963  10.924   9.980  0.1538  0.1481  0.1911
   30loPI   C2B  478  12.925  10.948   9.648  0.2451  0.1231  0.2691
   30loPI   C3B  479  12.975  10.948   9.179 -0.1115  0.4030  0.1484
   30loPI   C4B  480  12.981  10.975   8.801  0.1408 -0.1899 -0.2465
   31loPI    C1  481   0.277   8.016  11.058 -0.1306 -0.0443 -0.2303
   31loPI    C2  482  -0.061   8.217  11.129 -0.0015  0.0840  0.0346
   31loPI    C3  483  -0.047   7.822  11.189 -0.1162  0.0711 -0.0201
   31loPI   PO4  484   0.328   7.961  10.722  0.0019 -0.0829  0.1100
   31loPI   GL1  485   0.458   8.313  10.412 -0.2731 -0.1210 -0.0226
   31loPI   GL2  486   0.765   8.396  10.460  0.0137  0.3105 -0.2723
   31loPI   C1A  487   0.237   8.405  10.004 -0.1175 -0.0107 -0.2457
   31loPI   C2A  488   0.160   8.342   9.540 -0.0507  0.0678  0.1394
   31loPI   C3A  489   0.202   8.346   9.094 -0.2119 -0.1315  0.0011
   31loPI   C4A  490   0.265   8.542   8.662 -0.0147 -0.3772 -0.1076
   31loPI   C5A  491   0.261   8.842   8.293  0.4449 -0.1342  0.1188
   31loPI   C6A  492   0.671   9.132   8.193  0.1229  0.2582 -0.2664
   31loPI   C1B  493   0.765   8.496   9.944 -0.1385 -0.2002  0.1541
   31loPI   C2B  494   0.746   8.506   9.436 -0.1025 -0.1572 -0.1267
   31loPI   C3B  495   0.731   8.591   9.013  0.0478  0.0407 -0.3072
   31loPI   C4B  496   0.807   8.764   8.595 -0.0940 -0.0806 -0.0550
   32loPI    C1  497  10.487  13.875  11.117 -0.1284  0.2274  0.3375
   32loPI    C2  498  10.746  14.166  11.203  0.2305 -0.0657  0.2736
   32loPI    C3  499  10.846  13.784  11.269 -0.0930 -0.1983  0.0192
   32loPI   PO4  500  10.476  13.858  10.827  0.2765  0.1310  0.0238
   32loPI   GL1  501  10.317  13.779  10.367  0.2045  0.3041 -0.2019
   32loPI   GL2  502  10.135  14.090  10.479 -0.0163 -0.2378  0.0549
   32loPI   C1A  503  10.317  13.971   9.986  0.0502  0.0057 -0.1590
   32loPI   C2A  504  10.355  14.023   9.574  0.1135  0.2739  0.3079
   32loPI   C3A  505  10.268  13.970   9.150  0.3283 -0.2663 -0.0381
   32loPI   C4A  506  10.389  14.054   8.723  0.0387 -0.0726  0.0245
   32loPI   C5A  507  10.166  14.314   8.370 -0.0491  0.0506 -0.4058
   32loPI   C6A  508   9.936  14.751   8.267 -0.3991  0.0554 -0.0396
   32loPI   C1B  509   9.955  14.268  10.136 -0.1449  0.2619 -0.3273
   32loPI   C2B  510   9.966  14.366   9.678 -0.2028  0.0087 -0.1301
   32loPI   C3B  511   9.879  14.356   9.227  0.1677  0.0295 -0.1814
   32loPI   C4B  512   9.921  14.307   8.786 -0.3402 -0.0521 -0.4145
   33loPI    C1  513  17.447  16.484  10.972  0.1397 -0.1167  0.1388
   33loPI    C2  514  17.227  16.729  11.199  0.0374 -0.0239 -0.0574
   33loPI    C3  515  17.597  16.836  11.090  0.0607 -0.0381  0.0076
   33loPI   PO4  516  17.376  16.439  10.758 -0.1929 -0.0562 -0.1937
   33loPI   GL1  517  17.441  16.530  10.296  0.0033 -0.3728  0.3400
   33loPI   GL2  518  17.431  16.186  10.320  0.1762  0.0408  0.2231
   33loPI   C1A  519  17.532  16.723   9.884  0.1483 -0.2050 -0.4239
   33loPI   C2A  520  17.518  16.796   9.490  0.1475 -0.0560  0.1616
   33loPI   C3A  521  17.457  16.841   9.034 -0.0917  0.2379 -0.0397
   33loPI   C4A  522  17.347  16.789   8.659  0.3398 -0.1373 -0.2084
   33loPI   C5A  523  17.378  16.602   8.314  0.2444 -0.0895 -0.1238
   33loPI   C6A  524  17.481  16.265   8.060 -0.1561 -0.0214  0.1389
   33loPI   C1B  525  17.347  16.197   9.901  0.1464 -0.0423 -0.1992
   33loPI   C2B  526  17.377  16.307   9.524  0.1746 -0.0391 -0.0098
   33loPI   C3B  527  17.271  16.241   9.152 -0.1467 -0.1752  0.0253
   33loPI   C4B  528  17.278  16.274   8.741  0.0383 -0.1248 -0.1593
   34loPI    C1  529   8.136   8.487  11.106 -0.1088  0.2042 -0.1331
   34loPI    C2  530   7.879   8.524  11.410 -0.0219  0.1095 -0.0473
   34loPI    C3  531   8.206   8.754  11.396 -0.1142  0.2352 -0.1603
   34loPI   PO4  532   8.004   8.329  10.966  0.0336 -0.0997  0.0122
   34loPI   GL1  533   7.690   8.480  10.664  0.2280 -0.0388  0.1386
   34loPI   GL2  534   7.500   8.389  10.356 -0.0942 -0.1791 -0.1366
   34loPI   C1A  535   7.931   8.558  10.286  0.2720 -0.1820  0.3500
   34loPI   C2A  536   8.112   8.404   9.941 -0.0081  0.0182  0.0492
   34loPI   C3A  537   8.189   8.461   9.533  0.0154  0.1284  0.0820
   34loPI   C4A  538   8.173   8.478   9.089 -0.1235  0.1767  0.0542
   34loPI   C5A  539   8.245   8.583   8.557  0.1895  0.0400 -0.2681
   34loPI   C6A  540   8.369   8.583   8.158 -0.0490 -0.2369 -0.0674
   34loPI   C1B  541   7.648   8.331   9.946 -0.3772  0.0747  0.3697
   34loPI   C2B  542   7.667   8.374   9.463  0.0882 -0.2330  0.0226
   34loPI   C3B  543   7.673   8.310   9.021  0.2782 -0.0353  0.2239
   34loPI   C4B  544   7.657   8.383   8.524 -0.2199  0.2606  0.1714
   35loPI    C1  545   4.243   4.534  11.183  0.0456  0.1051 -0.0020
   35loPI    C2  546   3.941   4.672  11.406  0.0977  0.0493  0.1037
   35loPI    C3  547   4.225   4.444  11.573  0.0601 -0.1119 -0.0502
   35loPI   PO4  548   4.108   4.492  10.982  0.1836  0.1243  0.1160
   35loPI   GL1  549   3.826   4.351  10.674 -0.1712  0.1553  0.3188
   35loPI   GL2  550   4.126   4.219  10.543 -0.0667 -0.2177 -0.0629
   35loPI   C1A  551   3.639   4.549  10.375 -0.1359  0.0155 -0.0005
   35loPI   C2A  552   3.521   4.502   9.885  0.0094 -0.1796  0.1003
   35loPI   C3A  553   3.547   4.675   9.540  0.2279  0.0378  0.0041
   35loPI   C4A  554   3.491   4.653   9.121  0.2370  0.3165 -0.0644
   35loPI   C5A  555   3.476   4.677   8.724 -0.1589 -0.3864  0.0169
   35loPI   C6A  556   3.044   4.767   8.490  0.2056 -0.0794 -0.3553
   35loPI   C1B  557   3.992   4.193  10.132 -0.4936  0.0273 -0.1668
   35loPI   C2B  558   3.886   4.219   9.681  0.0816  0.0364 -0.0909
   35loPI   C3B  559   3.896   4.320   9.204  0.1733  0.2305  0.1133
   35loPI   C4B  560   3.784   4.304   8.791  0.0628  0.2789  0.0403
   36loPI    C1  561  16.879   4.056  11.328 -0.0221 -0.1274  0.0255
   36loPI    C2  562  16.608   4.338  11.413  0.0565 -0.0067 -0.1183
   36loPI    C3  563  16.918   4.277  11.659 -0.0120 -0.0334 -0.0379
   36loPI   PO4  564  16.881   4.051  11.018  0.0340 -0.0163  0.1721
   36loPI   GL1  565  17.031   4.026  10.582 -0.0491  0.1124  0.2593
   36loPI   GL2  566  16.804   4.083  10.325  0.2542 -0.1256  0.1088
   36loPI   C1A  567  17.307   4.129  10.266 -0.3317  0.1252  0.0807
   36loPI   C2A  568  17.483   4.166   9.879  0.1090 -0.1637 -0.0652
   36loPI   C3A  569  17.544   4.242   9.367 -0.1570 -0.2438 -0.2070
   36loPI   C4A  570  17.497   4.088   8.889  0.0631 -0.1695 -0.2613
   36loPI   C5A  571  17.464   4.253   8.402  0.0380 -0.0535 -0.0623
   36loPI   C6A  572  17.564   4.576   8.296  0.0679 -0.2862 -0.0861
   36loPI   C1B  573  16.864   3.955   9.996  0.1877 -0.0017 -0.0337
   36loPI   C2B  574  17.019   3.994   9.561  0.2533  0.1537 -0.0283
   36loPI   C3B  575  17.086   4.085   9.209 -0.0079  0.3412 -0.1543
   36loPI   C4B  576  16.984   3.990   8.811  0.1147  0.1706 -0.1983
   37loPI    C1  577   8.909  16.025  11.077 -0.1119  0.2285 -0.1461
   37loPI    C2  578   8.875  16.395  11.225 -0.0534  0.1216  0.1404
   37loPI    C3  579   9.042  16.106  11.445 -0.2041 -0.1036 -0.0364
   37loPI   PO4  580   9.122  16.035  10.855 -0.2248 -0.1915 -0.2522
   37loPI   GL1  581   9.049  15.764  10.409 -0.1311 -0.1490  0.0195
   37loPI   GL2  582   9.331  15.635  10.382  0.0710 -0.0269 -0.4090
   37loPI   C1A  583   8.938  15.899  10.014  0.3488 -0.2037  0.3065
   37loPI   C2A  584   8.888  15.926   9.548  0.0913 -0.0752  0.1794
   37loPI   C3A  585   8.872  15.902   9.138  0.0473 -0.1663  0.2409
   37loPI   C4A  586   8.895  15.839   8.683  0.4972 -0.2519  0.4003
   37loPI   C5A  587   8.922  15.594   8.367  0.1882  0.1928  0.1902
   37loPI   C6A  588   8.942  15.293   8.065  0.1615 -0.0766 -0.1357
   37loPI   C1B  589   9.289  15.550   9.939  0.1035  0.0247  0.0187
   37loPI   C2B  590   9.235  15.577   9.520 -0.1842  0.2950  0.2854
   37loPI   C3B  591   9.261  15.525   9.059  0.1410  0.0055 -0.1945
   37loPI   C4B  592   9.220  15.497   8.727  0.1609  0.2258  0.1843
   38loPI    C1  593   9.205  10.737  10.993 -0.0300  0.1902 -0.0579
   38loPI    C2  594   8.916  10.496  11.127 -0.1075  0.2045 -0.1974
   38loPI    C3  595   9.003  10.833  11.324  0.1558 -0.0473  0.1282
   38loPI   PO4  596   9.279  10.646  10.745 -0.0297 -0.1208 -0.1480
   38loPI   GL1  597   9.335  10.731  10.302 -0.1305 -0.3254  0.2001
   38loPI   GL2  598   9.522  10.970  10.050  0.1059  0.0490 -0.0144
   38loPI   C1A  599   9.512  10.468   9.962  0.0208 -0.3271 -0.0270
   38loPI   C2A  600   9.451  10.244   9.574  0.2561 -0.0327 -0.2378
   38loPI   C3A  601   9.574  10.334   9.183 -0.3409  0.1093  0.0803
   38loPI   C4A  602   9.675  10.358   8.705  0.1659  0.0483 -0.1626
   38loPI   C5A  603   9.764  10.370   8.284 -0.0379 -0.0467 -0.2260
   38loPI   C6A  604  10.082  10.656   8.058  0.1825 -0.0968 -0.0959
   38loPI   C1B  605   9.575  11.041   9.698  0.0442 -0.1530 -0.1104
   38loPI   C2B  606   9.753  10.864   9.317  0.0721 -0.0495  0.0317
   38loPI   C3B  607   9.761  10.857   8.791  0.0174  0.1286 -0.2301
   38loPI   C4B  608   9.711  10.853   8.367 -0.0253  0.1355 -0.0135
   39loPI    C1  609   6.650  11.725  10.576 -0.4111  0.0355  0.1842
   39loPI    C2  610   6.921  12.016  10.624 -0.3442  0.0292 -0.1313
   39loPI    C3  611   6.803  11.798  10.938  0.2170 -0.1465 -0.0318
   39loPI   PO4  612   6.411  11.772  10.444  0.2525  0.4782  0.2993
   39loPI   GL1  613   6.513  11.571  10.084 -0.0378  0.1868 -0.0236
   39loPI   GL2  614   6.535  11.897  10.011  0.0135  0.2778  0.2123
   39loPI   C1A  615   6.463  11.342   9.730  0.0787 -0.1797  0.2656
   39loPI   C2A  616   6.392  11.379   9.298 -0.1399  0.1569  0.1420
   39loPI   C3A  617   6.357  11.338   8.858 -0.0275  0.0823  0.0770
   39loPI   C4A  618   6.568  11.328   8.369 -0.0508  0.1793 -0.0352
   39loPI   C5A  619   6.421  11.683   7.988 -0.0570 -0.1563 -0.1187
   39loPI   C6A  620   6.307  12.172   7.950  0.3953 -0.0273 -0.1150
   39loPI   C1B  621   6.488  11.787   9.544 -0.0450 -0.1794  0.1053
   39loPI   C2B  622   6.468  11.835   9.130  0.0300  0.4593 -0.1954
   39loPI   C3B  623   6.444  11.762   8.683 -0.2567  0.1954 -0.2617
   39loPI   C4B  624   6.584  12.032   8.403 -0.0130 -0.1720  0.1121
   40loPI    C1  625  15.411  14.431  10.756  0.2431 -0.2373  0.0263
   40loPI    C2  626  15.475  14.036  10.749  0.2785 -0.2358  0.2137
   40loPI    C3  627  15.333  14.210  11.081  0.1530 -0.1073  0.0941
   40loPI   PO4  628  15.469  14.569  10.549 -0.0782 -0.0277 -0.0188
   40loPI   GL1  629  15.475  14.773  10.174 -0.2030 -0.0906 -0.1593
   40loPI   GL2  630  15.751  14.637  10.132  0.2616 -0.1688  0.1568
   40loPI   C1A  631  15.199  14.548   9.990  0.0163  0.2904  0.2602
   40loPI   C2A  632  15.195  14.393   9.576  0.2374  0.1096  0.0129
   40loPI   C3A  633  15.044  14.355   9.279  0.1378 -0.3268 -0.1769
   40loPI   C4A  634  15.071  14.547   8.883  0.2458  0.1356 -0.1028
   40loPI   C5A  635  15.236  14.585   8.430  0.1639  0.0134 -0.1955
   40loPI   C6A  636  15.046  14.577   8.013 -0.2781 -0.0912 -0.1421
   40loPI   C1B  637  15.710  14.747   9.729 -0.0288  0.3592 -0.1707
   40loPI   C2B  638  15.740  14.721   9.355 -0.0823  0.0466 -0.0588
   40loPI   C3B  639  15.574  14.680   8.988  0.1857  0.0855  0.0565
   40loPI   C4B  640  15.643  14.780   8.517  0.0522 -0.0366  0.1496
   41loPI    C1  641   6.510   7.957  10.806  0.1046 -0.2279  0.1313
   41loPI    C2  642   6.903   7.988  10.868  0.0890 -0.0968  0.1677
   41loPI    C3  643   6.657   8.272  11.004 -0.0112 -0.1427  0.0829
   41loPI   PO4  644   6.465   7.886  10.498  0.0328  0.1429  0.1432
   41loPI   GL1  645   6.694   7.728  10.120  0.0570  0.4354  0.2499
   41loPI   GL2  646   6.500   7.567  10.008 -0.0963  0.1006  0.0243
   41loPI   C1A  647   6.965   7.767   9.813  0.2780 -0.2678 -0.0982
   41loPI   C2A  648   7.073   7.720   9.365  0.0518  0.3342  0.1588
   41loPI   C3A  649   7.096   7.703   8.924 -0.0624  0.0333  0.0728
   41loPI   C4A  650   6.973   7.766   8.517  0.1527 -0.0262  0.1025
   41loPI   C5A  651   7.045   7.706   8.144 -0.2785  0.1887  0.0481
   41loPI   C6A  652   6.723   7.594   7.757 -0.0130  0.2046 -0.0036
   41loPI   C1B  653   6.573   7.534   9.536  0.0872 -0.1349 -0.2290
   41loPI   C2B  654   6.590   7.511   9.157  0.0278 -0.2421  0.2078
   41loPI   C3B  655   6.486   7.502   8.668 -0.0026  0.0468  0.3202
   41loPI   C4B  656   6.567   7.769   8.244  0.1372  0.2343 -0.1245
   42loPI    C1  657  16.786  17.545  10.742 -0.1072 -0.0237  0.0231
   42loPI    C2  658  16.410  17.603  10.866 -0.0594  0.1207  0.1018
   42loPI    C3  659  16.710  17.599  11.131 -0.0142 -0.0785  0.0491
   42loPI   PO4  660  16.662  17.537  10.429 -0.1896  0.0759  0.3728
   42loPI   GL1  661  16.794  17.270  10.075  0.1057 -0.4322  0.2197
   42loPI   GL2  662  17.138  17.516  10.095  0.1416 -0.1349 -0.0876
   42loPI   C1A  663  16.726  17.470   9.733 -0.2398 -0.1118 -0.1538
   42loPI   C2A  664  16.648  17.408   9.164 -0.0827 -0.2251  0.1116
   42loPI   C3A  665  16.721  17.530   8.691  0.0525 -0.1636  0.2029
   42loPI   C4A  666  16.689  17.429   8.272  0.0733  0.0388  0.1620
   42loPI   C5A  667  16.630  17.253   7.910 -0.1068  0.3322 -0.1346
   42loPI   C6A  668  16.751  16.866   7.650 -0.1583  0.0034  0.0621
   42loPI   C1B  669  17.228  17.588   9.684  0.2514  0.1032  0.0903
   42loPI   C2B  670  17.280  17.615   9.256 -0.1855 -0.3239  0.1368
   42loPI   C3B  671  17.208  17.704   8.816 -0.2108 -0.2572  0.1779
   42loPI   C4B  672  17.109  17.683   8.416 -0.0340 -0.0000  0.0242
   43loPI    C1  673   4.655  14.246  11.166  0.3776  0.0750 -0.0771
   43loPI    C2  674   4.787  14.469  11.471 -0.1014  0.0569  0.1531
   43loPI    C3  675   4.818  14.070  11.486  0.1772  0.0717  0.0252
   43loPI   PO4  676   4.800  14.406  10.890  0.2127 -0.2109  0.0922
   43loPI   GL1  677   5.082  14.515  10.701 -0.3391  0.0476  0.1026
   43loPI   GL2  678   5.264  14.252  10.603  0.1880  0.0179 -0.3688
   43loPI   C1A  679   5.015  14.615  10.328  0.1452 -0.6350 -0.3195
   43loPI   C2A  680   4.901  14.642   9.866  0.0052  0.3188  0.1494
   43loPI   C3A  681   4.857  14.628   9.464 -0.4234 -0.1838 -0.0479
   43loPI   C4A  682   4.807  14.625   9.108  0.0327  0.2805 -0.1114
   43loPI   C5A  683   4.816  14.634   8.637  0.0027 -0.1117  0.1671
   43loPI   C6A  684   4.855  14.634   8.241 -0.2072  0.4235 -0.0305
   43loPI   C1B  685   5.348  14.322  10.134  0.1434  0.2406  0.0612
   43loPI   C2B  686   5.308  14.231   9.729 -0.0121  0.0550  0.3491
   43loPI   C3B  687   5.231  14.265   9.333  0.1031  0.0111 -0.3935
   43loPI   C4B  688   5.143  14.292   8.942 -0.2772 -0.2675  0.0409
   44loPI    C1  689   3.635   2.016  11.369 -0.0623 -0.2791  0.1087
   44loPI    C2  690   3.755   2.353  11.548  0.0701 -0.2259 -0.0768
   44loPI    C3  691   3.633   2.042  11.768  0.1884 -0.1463  0.1035
   44loPI   PO4  692   3.393   2.024  11.197 -0.1832  0.0386  0.0242
   44loPI   GL1  693   3.269   1.966  10.740  0.3172 -0.1817  0.0366
   44loPI   GL2  694   2.925   1.999  10.675  0.0066  0.0222  0.0988
   44loPI   C1A  695   3.408   2.190  10.396  0.2344 -0.3863  0.2503
   44loPI   C2A  696   3.546   2.147   9.923  0.0972 -0.1038  0.0602
   44loPI   C3A  697   3.486   2.259   9.528  0.1197  0.3615 -0.0805
   44loPI   C4A  698   3.448   2.108   9.080 -0.0457 -0.2302  0.0882
   44loPI   C5A  699   3.149   2.182   8.649  0.0751 -0.1103  0.1039
   44loPI   C6A  700   3.034   2.364   8.241 -0.0667  0.1796  0.2229
   44loPI   C1B  701   2.973   1.935  10.261 -0.1984  0.1992  0.0595
   44loPI   C2B  702   3.084   2.020   9.876 -0.1432 -0.1857 -0.0040
   44loPI   C3B  703   3.005   2.045   9.523 -0.3918 -0.0851 -0.2622
   44loPI   C4B  704   2.991   2.022   9.200 -0.2962 -0.1667  0.2352
   45loPI    C1  705  12.577   5.880  10.571 -0.1496 -0.0402 -0.1201
   45loPI    C2  706  12.306   5.955  10.856  0.0216 -0.1397  0.0721
   45loPI    C3  707  12.492   5.601  10.845  0.3855  0.0447  0.1447
   45loPI   PO4  708  12.471   5.830  10.340 -0.1284  0.1272  0.3576
   45loPI   GL1  709  12.631   5.824   9.938  0.0705 -0.1391 -0.2511
   45loPI   GL2  710  12.397   5.885   9.766  0.0157  0.0543  0.0566
   45loPI   C1A  711  12.770   6.051   9.509 -0.1343  0.0160 -0.1064
   45loPI   C2A  712  12.767   6.136   9.155 -0.0388 -0.2061 -0.1037
   45loPI   C3A  713  12.745   6.058   8.703  0.3622 -0.1791 -0.0857
   45loPI   C4A  714  12.681   5.914   8.315  0.0119 -0.0477  0.0511
   45loPI   C5A  715  12.835   5.867   7.843  0.0995 -0.1060  0.2258
   45loPI   C6A  716  13.158   6.136   7.598 -0.0501  0.0567  0.0557
   45loPI   C1B  717  12.307   5.963   9.367 -0.0924  0.1770  0.4705
   45loPI   C2B  718  12.251   5.994   8.943  0.1921  0.1600 -0.1763
   45loPI   C3B  719  12.288   5.838   8.576 -0.0474  0.0944  0.1313
   45loPI   C4B  720  12.131   5.878   8.236 -0.2795 -0.0176 -0.0168
   46loPI    C1  721   5.383   6.901  10.771 -0.0630 -0.6133 -0.1125
   46loPI    C2  722   5.126   7.127  10.978  0.3612  0.0015 -0.2308
   46loPI    C3  723   5.293   6.806  11.150 -0.0145 -0.0523  0.0479
   46loPI   PO4  724   5.287   7.034  10.516  0.0639 -0.2546  0.1309
   46loPI   GL1  725   5.050   6.994  10.163  0.0670  0.0199 -0.0459
   46loPI   GL2  726   5.094   7.257  10.101  0.0883  0.0455  0.0945
   46loPI   C1A  727   4.957   6.978   9.732  0.0507 -0.2180  0.2633
   46loPI   C2A  728   4.990   7.123   9.298 -0.0437  0.1812  0.3827
   46loPI   C3A  729   4.989   6.992   8.784 -0.0534 -0.1776 -0.1590
   46loPI   C4A  730   4.989   6.948   8.370  0.6807  0.0455 -0.0770
   46loPI   C5A  731   5.274   6.912   8.013 -0.1013 -0.0672  0.1073
   46loPI   C6A  732   5.655   6.895   7.817 -0.1310  0.2576  0.1127
   46loPI   C1B  733   5.144   7.471   9.705 -0.1845  0.1787  0.2629
   46loPI   C2B  734   5.170   7.637   9.242 -0.1104  0.1892 -0.0410
   46loPI   C3B  735   5.132   7.591   8.826  0.0385 -0.4138 -0.0750
   46loPI   C4B  736   5.114   7.436   8.446  0.1663  0.0051 -0.1300
   47loPI    C1  737   2.091  14.342  11.278 -0.2223 -0.0069  0.0263
   47loPI    C2  738   1.758  14.335  11.499 -0.2128  0.0422  0.0424
   47loPI    C3  739   2.045  14.063  11.561 -0.1587  0.1275  0.1709
   47loPI   PO4  740   2.020  14.299  10.983  0.2409 -0.2026 -0.3330
   47loPI   GL1  741   1.859  14.439  10.480 -0.2911 -0.1535  0.3289
   47loPI   GL2  742   1.503  14.612  10.370 -0.1272  0.0899 -0.1436
   47loPI   C1A  743   1.972  14.258  10.064 -0.0301 -0.4430 -0.0628
   47loPI   C2A  744   2.018  14.240   9.668  0.1766 -0.1771 -0.1325
   47loPI   C3A  745   2.034  14.149   9.199 -0.1142  0.0573  0.0052
   47loPI   C4A  746   2.101  14.212   8.710 -0.4418  0.1842  0.1935
   47loPI   C5A  747   2.280  14.302   8.284 -0.4848 -0.3613 -0.1349
   47loPI   C6A  748   2.507  14.240   7.952  0.0592 -0.0798  0.1218
   47loPI   C1B  749   1.519  14.561   9.966  0.0694  0.3078 -0.1818
   47loPI   C2B  750   1.528  14.585   9.546  0.0815 -0.2038  0.3644
   47loPI   C3B  751   1.621  14.564   9.064 -0.0668  0.1275  0.1909
   47loPI   C4B  752   1.674  14.619   8.715 -0.0982 -0.3426 -0.0452
   48loPI    C1  753  17.819  16.092  11.145 -0.0389  0.0041  0.0074
   48loPI    C2  754  18.143  15.862  11.191 -0.1287 -0.0879  0.1868
   48loPI    C3  755  17.858  15.866  11.472 -0.2853 -0.0097  0.0288
   48loPI   PO4  756  17.744  16.022  10.858  0.1779  0.1042  0.0558
   48loPI   GL1  757  17.999  16.038  10.421  0.3401  0.0348 -0.1000
   48loPI   GL2  758  17.862  16.430  10.495 -0.2113  0.2431 -0.0504
   48loPI   C1A  759  18.201  16.006   9.965 -0.2316 -0.0070  0.0534
   48loPI   C2A  760  18.258  15.949   9.643 -0.0763  0.3122  0.1388
   48loPI   C3A  761  18.148  16.046   9.214  0.1237  0.0549  0.1530
   48loPI   C4A  762  18.140  16.202   8.789  0.0823 -0.0737  0.2137
   48loPI   C5A  763  17.825  16.342   8.388 -0.0448 -0.0920  0.1503
   48loPI   C6A  764  17.926  16.403   7.888 -0.0401  0.2443  0.0905
   48loPI   C1B  765  17.884  16.354  10.060  0.1017 -0.2267 -0.0280
   48loPI   C2B  766  17.829  16.388   9.641  0.2056  0.0542  0.4778
   48loPI   C3B  767  17.801  16.430   9.237  0.1749  0.0791  0.3651
   48loPI   C4B  768  17.744  16.430   8.873  0.1666 -0.0007  0.0017
   49loPI    C1  769   7.572   4.483  10.389 -0.4507  0.4285 -0.1141
   49loPI    C2  770   7.655   4.489  10.780  0.3078 -0.0073 -0.2484
   49loPI    C3  771   7.765   4.795  10.548  0.2278  0.0665 -0.1894
   49loPI   PO4  772   7.700   4.205  10.337  0.1052  0.0143 -0.2764
   49loPI   GL1  773   7.865   4.188   9.995 -0.0139  0.1126 -0.0743
   49loPI   GL2  774   8.195   4.167   9.797 -0.3777 -0.0168  0.1877
   49loPI   C1A  775   7.693   4.133   9.656  0.2988  0.0576  0.0299
   49loPI   C2A  776   7.476   3.916   9.262  0.1532  0.0148 -0.1652
   49loPI   C3A  777   7.020   3.786   9.143 -0.0283 -0.1244 -0.3771
   49loPI   C4A  778   6.926   3.764   8.711 -0.2176 -0.3549 -0.0568
   49loPI   C5A  779   6.814   3.583   8.376 -0.1323 -0.0553 -0.0817
   49loPI   C6A  780   6.810   3.404   7.964 -0.0272  0.1856 -0.2248
   49loPI   C1B  781   8.073   4.142   9.378 -0.0550  0.1768  0.2982
   49loPI   C2B  782   8.003   3.944   9.067  0.1235 -0.0468 -0.3117
   49loPI   C3B  783   7.959   3.969   8.647 -0.3609 -0.2177 -0.3220
   49loPI   C4B  784   7.864   4.113   8.209  0.0955 -0.1130  0.2838
   50loPI    C1  785  17.642   4.598  11.457 -0.0888  0.0598  0.1701
   50loPI    C2  786  17.357   4.324  11.396  0.0797 -0.0840  0.0169
   50loPI    C3  787  17.427   4.461  11.765 -0.1066 -0.1346  0.0723
   50loPI   PO4  788  17.699   4.616  11.086 -0.1195 -0.1167 -0.1243
   50loPI   GL1  789  17.693   4.722  10.708 -0.1577  0.0477  0.1400
   50loPI   GL2  790  17.768   4.908  10.417 -0.2123  0.0438  0.1119
   50loPI   C1A  791  17.809   4.359  10.338  0.0050  0.0299 -0.3136
   50loPI   C2A  792  18.004   4.347   9.924 -0.2310 -0.0817  0.2824
   50loPI   C3A  793  18.016   4.290   9.523  0.2281  0.2164 -0.1039
   50loPI   C4A  794  18.030   4.447   9.097  0.1353 -0.1036  0.0909
   50loPI   C5A  795  17.946   4.329   8.700  0.2105 -0.0844 -0.0969
   50loPI   C6A  796  17.878   4.145   8.304  0.0362  0.0422 -0.1034
   50loPI   C1B  797  17.922   4.828  10.069 -0.2767 -0.1151  0.0435
   50loPI   C2B  798  18.036   4.919   9.703  0.2697 -0.0887 -0.2157
   50loPI   C3B  799  18.188   4.924   9.317 -0.3164  0.0374  0.0219
   50loPI   C4B  800  18.125   4.871   8.888  0.2491  0.1337 -0.3613
   51loPI    C1  801   5.390   3.319  11.125  0.2247 -0.0711  0.1739
   51loPI    C2  802   5.330   2.956  11.282  0.0809 -0.1374 -0.0295
   51loPI    C3  803   5.620   3.192  11.426  0.0919 -0.2814  0.1883
   51loPI   PO4  804   5.382   3.315  10.748 -0.2508  0.0552  0.1759
   51loPI   GL1  805   5.512   3.210  10.397  0.1052  0.2320 -0.1446
   51loPI   GL2  806   5.748   2.980  10.488  0.0441 -0.0279  0.1846
   51loPI   C1A  807   5.530   3.241   9.995 -0.1861 -0.0845  0.3127
   51loPI   C2A  808   5.487   3.270   9.593 -0.2104  0.2898 -0.0010
   51loPI   C3A  809   5.564   3.337   9.181  0.0624  0.2180  0.1465
   51loPI   C4A  810   5.548   3.215   8.776  0.2442  0.3106 -0.1199
   51loPI   C5A  811   5.453   2.942   8.456 -0.0368 -0.0541  0.5714
   51loPI   C6A  812   5.391   3.052   8.008 -0.1626  0.1153 -0.0298
   51loPI   C1B  813   5.548   2.612  10.309  0.6086  0.1183  0.2309
   51loPI   C2B  814   5.409   2.768   9.891 -0.1867 -0.2351 -0.1251
   51loPI   C3B  815   5.482   2.754   9.440  0.1304  0.1661 -0.0121
   51loPI   C4B  816   5.415   2.732   8.946 -0.0206  0.1655 -0.1137
   52loPI    C1  817   2.869  15.919  11.230  0.1657  0.0805 -0.0006
   52loPI    C2  818   2.514  15.813  11.381  0.3269 -0.3033  0.1218
   52loPI    C3  819   2.734  16.092  11.564  0.0669 -0.0226  0.0136
   52loPI   PO4  820   2.806  15.837  10.962  0.1136 -0.1295 -0.0743
   52loPI   GL1  821   3.021  15.869  10.608 -0.4176 -0.1144 -0.2707
   52loPI   GL2  822   3.373  16.105  10.532  0.3000 -0.1194 -0.0905
   52loPI   C1A  823   2.874  15.786  10.260 -0.0896 -0.4339 -0.0451
   52loPI   C2A  824   2.935  15.958   9.799 -0.0435 -0.1741 -0.1433
   52loPI   C3A  825   2.797  15.880   9.392  0.0189  0.3841 -0.1547
   52loPI   C4A  826   2.945  15.893   9.090  0.2349  0.0808 -0.3600
   52loPI   C5A  827   2.950  16.155   8.658  0.0628  0.2885 -0.1382
   52loPI   C6A  828   3.224  16.321   8.504  0.1131 -0.0534  0.4335
   52loPI   C1B  829   3.359  16.057  10.079 -0.2274 -0.3200 -0.0974
   52loPI   C2B  830   3.444  16.022   9.707  0.0675  0.0361 -0.0185
   52loPI   C3B  831   3.459  16.061   9.218 -0.1299 -0.1851 -0.3738
   52loPI   C4B  832   3.604  16.096   8.745 -0.4455  0.1141 -0.3054
   53loPI    C1  833   6.830   5.812  10.979  0.0005  0.0820 -0.0995
   53loPI    C2  834   6.907   6.197  11.058  0.0764  0.0611 -0.0707
   53loPI    C3  835   7.168   5.914  11.167 -0.0150 -0.0056 -0.0236
   53loPI   PO4  836   6.829   5.841  10.745 -0.1600  0.1873 -0.1292
   53loPI   GL1  837   6.785   5.629  10.427  0.2316  0.3586  0.2047
   53loPI   GL2  838   6.494   5.446  10.435 -0.0007  0.1264  0.0155
   53loPI   C1A  839   6.964   5.802  10.022  0.2195  0.0631 -0.2215
   53loPI   C2A  840   7.034   5.826   9.569  0.2222  0.0158 -0.2332
   53loPI   C3A  841   6.980   5.707   9.137  0.0289  0.1103 -0.0185
   53loPI   C4A  842   6.962   5.704   8.692  0.2104 -0.1393  0.4633
   53loPI   C5A  843   7.046   5.756   8.224 -0.0109  0.0756  0.0038
   53loPI   C6A  844   7.104   5.841   7.836 -0.4654 -0.1919 -0.2507
   53loPI   C1B  845   6.529   5.560   9.925  0.1707 -0.3074  0.0796
   53loPI   C2B  846   6.519   5.629   9.441  0.0455  0.1009 -0.1339
   53loPI   C3B  847   6.491   5.605   8.946  0.1464  0.1499  0.1946
   53loPI   C4B  848   6.572   5.576   8.452 -0.1929 -0.0359 -0.1628
   54loPI    C1  849  16.801  18.025  10.818  0.1890  0.1697 -0.0131
   54loPI    C2  850  16.888  18.391  10.954  0.0715  0.1075  0.2362
   54loPI    C3  851  16.899  18.078  11.202  0.1894 -0.0623  0.0199
   54loPI   PO4  852  16.609  18.062  10.560  0.2990  0.0062  0.0269
   54loPI   GL1  853  16.679  17.931  10.131  0.2376  0.3356 -0.4097
   54loPI   GL2  854  16.407  17.734  10.093 -0.3142  0.0060 -0.0446
   54loPI   C1A  855  16.880  17.943   9.767  0.2660  0.3904  0.1144
   54loPI   C2A  856  16.916  17.900   9.365 -0.0360 -0.2775 -0.0803
   54loPI   C3A  857  16.789  17.884   8.985 -0.1475 -0.0884 -0.3946
   54loPI   C4A  858  16.725  18.012   8.557 -0.1721  0.1830 -0.0814
   54loPI   C5A  859  16.736  17.955   8.184 -0.1305 -0.2468  0.2626
   54loPI   C6A  860  17.036  17.957   7.974 -0.2696 -0.0810 -0.2543
   54loPI   C1B  861  16.422  17.872   9.633  0.3998  0.1354 -0.0706
   54loPI   C2B  862  16.271  17.821   9.156 -0.2895  0.1780  0.0831
   54loPI   C3B  863  16.237  17.767   8.687 -0.0822 -0.0394 -0.0357
   54loPI   C4B  864  16.244  17.754   8.222  0.1006  0.0008  0.1534
   55loPI    C1  865  12.399   1.649  10.777  0.0949 -0.2144  0.0121
   55loPI    C2  866  12.389   2.047  10.813 -0.1703 -0.1892 -0.2977
   55loPI    C3  867  12.333   1.816  11.134 -0.0488  0.0214 -0.1223
   55loPI   PO4  868  12.228   1.592  10.515  0.1116 -0.1609  0.2691
   55loPI   GL1  869  12.231   1.388  10.093 -0.1133 -0.3379  0.1956
   55loPI   GL2  870  12.214   1.612   9.984  0.2189  0.1536 -0.0028
   55loPI   C1A  871  12.173   1.102   9.713  0.0357  0.1276 -0.0401
   55loPI   C2A  872  12.014   1.019   9.338 -0.3305  0.0596 -0.3355
   55loPI   C3A  873  12.060   0.985   8.989 -0.0171 -0.1776 -0.1750
   55loPI   C4A  874  12.105   1.104   8.566 -0.0111 -0.0689  0.3013
   55loPI   C5A  875  11.985   0.843   8.186 -0.1529 -0.2377 -0.0306
   55loPI   C6A  876  12.112   0.457   8.151  0.0945  0.0463  0.1695
   55loPI   C1B  877  12.170   1.653   9.550 -0.1696  0.0498 -0.2904
   55loPI   C2B  878  12.110   1.516   9.126  0.2101  0.0225  0.1146
   55loPI   C3B  879  12.139   1.597   8.722  0.0529 -0.0565  0.1277
   55loPI   C4B  880  12.207   1.716   8.295  0.1393 -0.1932  0.4044
   56loPI    C1  881   0.560  14.263  10.856 -0.1815  0.2524 -0.4035
   56loPI    C2  882   0.382  14.522  11.104 -0.0536  0.1035 -0.1523
   56loPI    C3  883   0.522  14.174  11.244  0.4738  0.2333 -0.3324
   56loPI   PO4  884   0.547  14.378  10.628 -0.1610 -0.0408  0.1709
   56loPI   GL1  885   0.364  14.297  10.322  0.1087 -0.1057  0.0540
   56loPI   GL2  886   0.176  14.214  10.242 -0.2285  0.3312  0.0765
   56loPI   C1A  887   0.582  14.322   9.841 -0.0656 -0.1280  0.0530
   56loPI   C2A  888   0.701  14.293   9.386  0.0815 -0.0360 -0.1480
   56loPI   C3A  889   0.598  14.337   8.912 -0.4324  0.2730  0.1106
   56loPI   C4A  890   0.625  14.322   8.471  0.0535  0.0142  0.0460
   56loPI   C5A  891   0.860  14.395   8.207 -0.3607  0.2283  0.1817
   56loPI   C6A  892   1.179  14.599   7.981  0.0077 -0.2006  0.0979
   56loPI   C1B  893   0.119  14.183   9.787 -0.2908  0.2888  0.0842
   56loPI   C2B  894   0.165  14.177   9.380 -0.0657 -0.3050  0.0108
   56loPI   C3B  895   0.077  14.185   8.884  0.0772 -0.4552  0.3071
   56loPI   C4B  896   0.076  14.146   8.477  0.4392  0.0126 -0.1715
   57loPI    C1  897  11.297  15.007  11.117 -0.0125 -0.1048  0.1422
   57loPI    C2  898  11.144  15.048  11.484  0.0362  0.2070  0.1303
   57loPI    C3  899  11.540  15.066  11.428  0.0515 -0.1488  0.1009
   57loPI   PO4  900  11.081  14.976  10.985 -0.3815  0.0966  0.2421
   57loPI   GL1  901  10.989  14.884  10.514  0.3299  0.0173  0.5254
   57loPI   GL2  902  11.110  14.607  10.565 -0.0142  0.1812 -0.2843
   57loPI   C1A  903  11.052  15.213  10.098  0.0879 -0.1752  0.0287
   57loPI   C2A  904  11.007  15.118   9.650 -0.1292 -0.0742 -0.2480
   57loPI   C3A  905  11.089  15.157   9.276  0.2169  0.2289  0.0453
   57loPI   C4A  906  11.115  15.085   8.812 -0.1126 -0.0209  0.1182
   57loPI   C5A  907  11.081  15.072   8.390 -0.0779  0.3366 -0.2872
   57loPI   C6A  908  11.345  15.469   8.387 -0.1921 -0.1780 -0.2715
   57loPI   C1B  909  10.938  14.589  10.124 -0.2087 -0.1423 -0.0164
   57loPI   C2B  910  10.977  14.609   9.644  0.0164 -0.1403  0.1042
   57loPI   C3B  911  11.012  14.619   9.214 -0.1021 -0.1714  0.0251
   57loPI   C4B  912  11.107  14.567   8.751  0.1359  0.3893 -0.2383
   58loPI    C1  913  10.173   3.414  10.441  0.1831  0.0601 -0.2525
   58loPI    C2  914   9.959   3.703  10.616  0.0356 -0.2218  0.0441
   58loPI    C3  915  10.308   3.590  10.774  0.0968 -0.2022 -0.0755
   58loPI   PO4  916  10.104   3.464  10.168 -0.1534 -0.0556  0.0684
   58loPI   GL1  917  10.100   3.373   9.774  0.0790 -0.0646 -0.0394
   58loPI   GL2  918   9.901   3.155   9.786 -0.2400 -0.2532 -0.1697
   58loPI   C1A  919  10.326   3.324   9.370  0.0276 -0.0302 -0.2610
   58loPI   C2A  920  10.270   3.328   8.888  0.0818  0.0840  0.0386
   58loPI   C3A  921  10.084   3.406   8.507 -0.1895 -0.0127  0.1994
   58loPI   C4A  922  10.183   3.386   8.149  0.2237  0.2474 -0.0368
   58loPI   C5A  923   9.968   3.151   7.881  0.2430 -0.0333 -0.0328
   58loPI   C6A  924   9.985   2.974   7.415  0.0029 -0.3078 -0.0533
   58loPI   C1B  925   9.844   3.204   9.343  0.1151  0.0648  0.1374
   58loPI   C2B  926   9.730   3.259   8.855  0.0391  0.1366  0.3239
   58loPI   C3B  927   9.659   3.118   8.464 -0.2109 -0.1005  0.0211
   58loPI   C4B  928   9.517   3.283   8.074 -0.1756  0.0175  0.1486
   59loPI    C1  929  10.551  11.699  10.887  0.1352 -0.0437 -0.2565
   59loPI    C2  930  10.895  11.614  11.073  0.0060 -0.0736 -0.0260
   59loPI    C3  931  10.783  11.995  11.024  0.0335 -0.0660 -0.0299
   59loPI   PO4  932  10.597  11.619  10.627  0.1273  0.0016 -0.3575
   59loPI   GL1  933  10.433  11.582  10.259  0.0292  0.1613 -0.0312
   59loPI   GL2  934  10.790  11.708  10.166 -0.0440 -0.1964  0.2187
   59loPI   C1A  935  10.253  11.474   9.880  0.1488 -0.1744 -0.0740
   59loPI   C2A  936  10.212  11.555   9.489 -0.1223  0.1748 -0.0440
   59loPI   C3A  937  10.281  11.451   9.150  0.2123 -0.0517 -0.2206
   59loPI   C4A  938  10.335  11.535   8.723 -0.0209 -0.0197 -0.2232
   59loPI   C5A  939  10.264  11.634   8.200  0.2283 -0.0665 -0.0157
   59loPI   C6A  940  10.129  11.829   7.925 -0.0570  0.2155  0.0236
   59loPI   C1B  941  10.728  11.680   9.702  0.0959 -0.0308  0.2915
   59loPI   C2B  942  10.736  11.671   9.310  0.0701  0.0124  0.3183
   59loPI   C3B  943  10.792  11.665   8.859 -0.2257  0.0356 -0.0952
   59loPI   C4B  944  10.763  11.647   8.432 -0.0793 -0.0453 -0.1472
   60loPI    C1  945   9.131  12.814  11.011 -0.0657 -0.0229  0.0478
   60loPI    C2  946   9.168  12.426  11.101  0.0024 -0.0366 -0.0384
   60loPI    C3  947   8.877  12.643  11.269 -0.1402 -0.1644 -0.1178
   60loPI   PO4  948   9.158  12.798  10.745  0.0570  0.3484 -0.0658
   60loPI   GL1  949   8.930  12.710  10.322 -0.0375  0.2845 -0.2615
   60loPI   GL2  950   8.775  12.542  10.236  0.0987 -0.1820 -0.0285
   60loPI   C1A  951   9.163  12.681   9.920  0.3096  0.1983  0.0423
   60loPI   C2A  952   9.048  12.635   9.556 -0.1433 -0.3265  0.1745
   60loPI   C3A  953   8.947  12.669   9.191  0.2184 -0.1946  0.1325
   60loPI   C4A  954   9.078  12.700   8.775 -0.3733  0.1896 -0.4527
   60loPI   C5A  955   9.012  12.794   8.393  0.0519 -0.2685 -0.0268
   60loPI   C6A  956   9.194  12.730   8.109 -0.0193  0.1847  0.1352
   60loPI   C1B  957   8.616  12.593   9.787  0.1730 -0.1198  0.0450
   60loPI   C2B  958   8.491  12.578   9.343  0.1583  0.3580  0.3692
   60loPI   C3B  959   8.637  12.512   8.821  0.1075  0.1355 -0.0252
   60loPI   C4B  960   8.587  12.518   8.315  0.5238  0.1410  0.3226
   61loPI    C1  961   5.047  10.515  10.730  0.0737  0.0137 -0.0544
   61loPI    C2  962   4.960  10.169  10.912 -0.0097 -0.0882 -0.2849
   61loPI    C3  963   5.307  10.353  10.988 -0.1225 -0.0320  0.1179
   61loPI   PO4  964   5.003  10.491  10.548  0.0711  0.1190  0.0252
   61loPI   GL1  965   4.963  10.127  10.306 -0.2876 -0.1174 -0.1837
   61loPI   GL2  966   5.161   9.903  10.186  0.2147 -0.0571  0.1274
   61loPI   C1A  967   4.833  10.345   9.889  0.3815  0.1973 -0.2370
   61loPI   C2A  968   4.724  10.277   9.430 -0.2152 -0.0894  0.2616
   61loPI   C3A  969   4.772  10.407   9.057 -0.2258 -0.2642 -0.1100
   61loPI   C4A  970   4.801  10.401   8.602 -0.0208 -0.2708 -0.4856
   61loPI   C5A  971   4.759  10.520   8.140 -0.1298 -0.0622 -0.0502
   61loPI   C6A  972   4.393  10.662   7.999  0.2066  0.2066 -0.4549
   61loPI   C1B  973   5.214   9.997   9.789  0.2374 -0.1859  0.0835
   61loPI   C2B  974   5.126  10.017   9.299 -0.0453  0.0048 -0.1720
   61loPI   C3B  975   5.140  10.100   8.822  0.1238  0.0052  0.2836
   61loPI   C4B  976   5.345   9.929   8.442 -0.0526  0.1312 -0.0523
   62loPI    C1  977   0.155   6.171  11.165 -0.2058 -0.0448  0.0404
   62loPI    C2  978   0.338   5.829  11.262 -0.0072  0.0649  0.0564
   62loPI    C3  979   0.171   6.054  11.548  0.2017  0.1734  0.0957
   62loPI   PO4  980   0.068   6.118  10.953  0.3296  0.0615  0.0798
   62loPI   GL1  981  -0.023   6.064  10.502 -0.0444  0.2351  0.1637
   62loPI   GL2  982  -0.011   5.784  10.248  0.2866  0.1427 -0.1879
   62loPI   C1A  983  -0.223   6.221  10.102  0.4568  0.3178  0.1229
   62loPI   C2A  984  -0.179   6.285   9.751  0.0736 -0.1439 -0.1433
   62loPI   C3A  985  -0.236   6.287   9.310  0.2879 -0.2755  0.0077
   62loPI   C4A  986  -0.264   6.224   8.824  0.1810  0.1452 -0.4117
   62loPI   C5A  987  -0.228   6.343   8.374 -0.0539 -0.1726  0.1322
   62loPI   C6A  988  -0.002   6.202   8.040 -0.0458  0.0261  0.1405
   62loPI   C1B  989   0.065   5.881   9.827 -0.1350  0.0192 -0.1394
   62loPI   C2B  990   0.113   5.918   9.415 -0.0642  0.0474 -0.0763
   62loPI   C3B  991   0.108   5.830   8.953 -0.0284 -0.1967  0.0076
   62loPI   C4B  992   0.141   6.089   8.598  0.5302 -0.1442 -0.3295
   63loPI    C1  993   7.471   6.479  10.908  0.0698  0.0168 -0.6966
   63loPI    C2  994   7.581   6.133  11.075 -0.2785  0.2745  0.1140
   63loPI    C3  995   7.857   6.407  10.983 -0.0456 -0.0211 -0.0878
   63loPI   PO4  996   7.242   6.369  10.674  0.2702  0.1748  0.0888
   63loPI   GL1  997   7.013   6.110  10.357  0.0866 -0.2127  0.0676
   63loPI   GL2  998   6.580   6.113  10.132 -0.2531  0.2276  0.0876
   63loPI   C1A  999   7.138   6.265   9.975  0.1038  0.0137  0.0374
   63loPI   C2A 1000   7.111   6.308   9.574 -0.2262 -0.2758  0.3003
   63loPI   C3A 1001   7.075   6.228   9.119  0.2975  0.1660 -0.2096
   63loPI   C4A 1002   7.056   6.267   8.696  0.1843 -0.4233 -0.0755
   63loPI   C5A 1003   7.156   6.208   8.277 -0.1724 -0.2960 -0.0548
   63loPI   C6A 1004   7.008   6.376   7.975 -0.2717 -0.1071  0.0697
   63loPI   C1B 1005   6.653   6.115   9.753 -0.0013  0.1052 -0.1029
   63loPI   C2B 1006   6.600   6.139   9.321  0.1842  0.3424  0.1463
   63loPI   C3B 1007   6.605   6.057   8.861 -0.0037  0.1315  0.0747
   63loPI   C4B 1008   6.704   6.024   8.423 -0.1673 -0.1083 -0.1580
   64loPI    C1 1009   6.039  11.327  10.905  0.1382  0.1462 -0.2379
   64loPI    C2 1010   6.262  11.648  10.988  0.0397  0.1751 -0.0809
   64loPI    C3 1011   6.136  11.411  11.284 -0.1348  0.1571 -0.1688
   64loPI   PO4 1012   5.922  11.502  10.603 -0.2688 -0.1024  0.0416
   64loPI   GL1 1013   5.994  11.613  10.240  0.1258 -0.0592  0.1178
   64loPI   GL2 1014   5.874  11.847  10.199  0.1575 -0.0502 -0.0158
   64loPI   C1A 1015   6.012  11.679   9.722 -0.0785 -0.1406  0.2187
   64loPI   C2A 1016   5.979  11.637   9.364 -0.3245 -0.2294  0.0321
   64loPI   C3A 1017   5.959  11.671   9.018 -0.1349  0.1222 -0.1144
   64loPI   C4A 1018   5.953  11.685   8.583 -0.0417 -0.1269  0.2644
   64loPI   C5A 1019   5.907  11.768   8.164 -0.0409  0.3503 -0.2789
   64loPI   C6A 1020   5.783  12.159   7.995  0.0573  0.0850  0.2144
   64loPI   C1B 1021   5.677  11.996   9.834  0.0236 -0.2850  0.0177
   64loPI   C2B 1022   5.667  12.042   9.416  0.1292  0.0761 -0.4849
   64loPI   C3B 1023   5.541  12.033   8.993 -0.1328 -0.2118  0.0746
   64loPI   C4B 1024   5.638  12.116   8.517  0.0979  0.4040  0.0180
   65loPI    C1 1025  12.735  11.216  11.085  0.1975 -0.4292 -0.1289
   65loPI    C2 1026  12.730  10.843  11.230 -0.2720 -0.4089 -0.0783
   65loPI    C3 1027  12.469  11.114  11.365  0.0644 -0.0578 -0.1152
   65loPI   PO4 1028  12.703  11.309  10.805  0.0088  0.1314  0.4178
   65loPI   GL1 1029  12.850  11.242  10.489  0.0203  0.1279 -0.1341
   65loPI   GL2 1030  13.112  11.334  10.413 -0.2042  0.0412 -0.2350
   65loPI   C1A 1031  12.571  11.268  10.068 -0.2430  0.1594  0.2392
   65loPI   C2A 1032  12.553  11.350   9.588  0.1383 -0.0744  0.2094
   65loPI   C3A 1033  12.680  11.347   9.228 -0.1189  0.3084 -0.0407
   65loPI   C4A 1034  12.607  11.334   8.819 -0.3491  0.4676  0.1898
   65loPI   C5A 1035  12.618  11.245   8.364  0.1164 -0.0991  0.0137
   65loPI   C6A 1036  12.984  11.452   8.104  0.2323 -0.0071 -0.0258
   65loPI   C1B 1037  13.040  11.457   9.899 -0.0912 -0.2039  0.0870
   65loPI   C2B 1038  13.067  11.386   9.511 -0.0028 -0.1729 -0.0297
   65loPI   C3B 1039  13.154  11.528   9.066  0.1114  0.2327  0.0957
   65loPI   C4B 1040  13.135  11.377   8.605  0.0208 -0.2610  0.0136
   66loPI    C1 1041   3.673   7.469  10.545 -0.0546 -0.0980 -0.0400
   66loPI    C2 1042   3.600   7.439  10.937  0.2250  0.0213  0.0239
   66loPI    C3 1043   3.299   7.504  10.682  0.0649  0.1363  0.2384
   66loPI   PO4 1044   3.905   7.651  10.629  0.1082 -0.1758 -0.2614
   66loPI   GL1 1045   4.257   7.709  10.360  0.0336  0.0487  0.2021
   66loPI   GL2 1046   3.938   7.929  10.211  0.0505 -0.2127  0.0251
   66loPI   C1A 1047   4.322   7.698   9.976  0.1851  0.3434  0.3898
   66loPI   C2A 1048   4.253   7.734   9.596 -0.1961  0.3334  0.0903
   66loPI   C3A 1049   4.216   7.881   9.215  0.1113  0.2704  0.0454
   66loPI   C4A 1050   4.171   7.753   8.766 -0.1575  0.1492 -0.1768
   66loPI   C5A 1051   4.086   7.667   8.349 -0.4034 -0.3498  0.1189
   66loPI   C6A 1052   3.836   7.280   8.218 -0.1985 -0.0480 -0.0279
   66loPI   C1B 1053   3.848   8.031   9.889  0.1933 -0.0843  0.0043
   66loPI   C2B 1054   3.854   8.128   9.455 -0.1049  0.1989  0.0981
   66loPI   C3B 1055   3.866   8.192   8.973 -0.1742  0.0293 -0.2828
   66loPI   C4B 1056   3.956   8.182   8.565 -0.1954  0.2127  0.3133
   67loPI    C1 1057   6.691  11.322  11.030 -0.2409  0.2527 -0.1867
   67loPI    C2 1058   6.474  10.990  10.984  0.0902  0.0303 -0.1818
   67loPI    C3 1059   6.557  11.124  11.351  0.3781 -0.1700 -0.1700
   67loPI   PO4 1060   6.838  11.231  10.793  0.2827  0.0783 -0.3135
   67loPI   GL1 1061   6.891  11.250  10.413  0.0334 -0.1676  0.1063
   67loPI   GL2 1062   7.094  11.468  10.231 -0.0012  0.1908  0.2278
   67loPI   C1A 1063   6.720  11.080  10.072  0.2032 -0.2482 -0.3451
   67loPI   C2A 1064   6.793  11.010   9.555  0.1463 -0.1914 -0.2326
   67loPI   C3A 1065   6.811  10.991   9.058 -0.0635 -0.1529  0.1234
   67loPI   C4A 1066   6.945  11.124   8.645  0.1914 -0.0356  0.1294
   67loPI   C5A 1067   6.984  10.980   8.302 -0.0711  0.0343  0.0108
   67loPI   C6A 1068   7.045  10.614   8.044 -0.0828  0.0599  0.0952
   67loPI   C1B 1069   6.964  11.558   9.877  0.3648  0.1230 -0.0470
   67loPI   C2B 1070   6.914  11.522   9.469 -0.0783  0.1098  0.0362
   67loPI   C3B 1071   6.903  11.495   8.982 -0.1391 -0.5302 -0.2166
   67loPI   C4B 1072   6.978  11.636   8.507 -0.1760 -0.2652  0.0462
   68loPI    C1 1073  12.941  13.872  10.742  0.0089  0.2584 -0.0432
   68loPI    C2 1074  13.264  13.657  10.838 -0.1318  0.1353  0.1618
   68loPI    C3 1075  13.173  13.986  11.046 -0.0217  0.2902 -0.0318
   68loPI   PO4 1076  12.931  13.826  10.493 -0.1034  0.1257 -0.4432
   68loPI   GL1 1077  12.835  13.667  10.097  0.0093  0.0011 -0.1754
   68loPI   GL2 1078  13.137  13.836   9.910 -0.0350 -0.0915  0.1089
   68loPI   C1A 1079  12.698  13.799   9.673 -0.1495 -0.2481  0.0149
   68loPI   C2A 1080  12.680  13.738   9.203 -0.0479 -0.0631 -0.0015
   68loPI   C3A 1081  12.573  13.687   8.756  0.0236 -0.1206 -0.0915
   68loPI   C4A 1082  12.577  13.642   8.224 -0.0164  0.1756 -0.0702
   68loPI   C5A 1083  12.261  13.740   8.007 -0.0094  0.2955 -0.2949
   68loPI   C6A 1084  12.222  14.008   7.760  0.0081 -0.2548 -0.1050
   68loPI   C1B 1085  13.226  13.894   9.431  0.1238  0.2002 -0.0161
   68loPI   C2B 1086  13.237  13.947   9.026  0.0083  0.2328  0.2175
   68loPI   C3B 1087  13.048  13.840   8.607 -0.0706 -0.4403  0.1028
   68loPI   C4B 1088  13.363  13.918   8.231  0.1390 -0.1683  0.1121
   69loPI    C1 1089  13.462  18.178  10.961  0.2586 -0.0906 -0.1578
   69loPI    C2 1090  13.607  18.548  11.009  0.0528 -0.0303  0.0178
   69loPI    C3 1091  13.727  18.253  11.252 -0.0470 -0.0008  0.1035
   69loPI   PO4 1092  13.408  18.158  10.755  0.0167  0.0598  0.2607
   69loPI   GL1 1093  13.363  17.940  10.377 -0.1752 -0.2466  0.2453
   69loPI   GL2 1094  13.218  18.280  10.186 -0.1214  0.1729 -0.2362
   69loPI   C1A 1095  13.563  17.977   9.969 -0.0939  0.1117  0.0781
   69loPI   C2A 1096  13.555  17.802   9.625  0.2799 -0.0310  0.0845
   69loPI   C3A 1097  13.556  17.742   9.230  0.1135 -0.1759 -0.2472
   69loPI   C4A 1098  13.534  17.848   8.864  0.2240  0.0980 -0.3624
   69loPI   C5A 1099  13.566  17.816   8.453  0.1393  0.0996  0.0471
   69loPI   C6A 1100  13.696  17.856   8.039 -0.2343 -0.1292 -0.2738
   69loPI   C1B 1101  13.245  18.285   9.744  0.0682  0.0347 -0.0689
   69loPI   C2B 1102  13.234  18.110   9.279 -0.0859  0.0172  0.1228
   69loPI   C3B 1103  13.236  18.248   8.823  0.2608 -0.1456 -0.2651
   69loPI   C4B 1104  13.204  18.284   8.398  0.0288  0.0365 -0.2075
   70loPI    C1 1105  17.917  11.216  10.945  0.2171 -0.0848  0.0592
   70loPI    C2 1106  17.830  11.374  11.303 -0.1236  0.0270 -0.0690
   70loPI    C3 1107  18.209  11.284  11.210 -0.0230  0.0649  0.2905
   70loPI   PO4 1108  17.777  11.260  10.769  0.0815  0.2861 -0.2210
   70loPI   GL1 1109  17.719  11.421  10.322 -0.3843 -0.1843 -0.3273
   70loPI   GL2 1110  17.778  11.843  10.218  0.0149 -0.0767 -0.1798
   70loPI   C1A 1111  17.748  11.468   9.884 -0.1045 -0.1282  0.1616
   70loPI   C2A 1112  17.778  11.476   9.443 -0.0430 -0.1301  0.2118
   70loPI   C3A 1113  17.699  11.539   9.118  0.2283 -0.0506  0.0041
   70loPI   C4A 1114  17.722  11.537   8.708 -0.1760 -0.2033  0.2400
   70loPI   C5A 1115  17.614  11.760   8.291  0.0293  0.0859 -0.0571
   70loPI   C6A 1116  17.701  12.061   7.932 -0.1678 -0.0275 -0.0980
   70loPI   C1B 1117  17.809  11.983   9.873 -0.0346 -0.1279  0.0129
   70loPI   C2B 1118  17.848  12.003   9.436  0.2952  0.0223  0.1170
   70loPI   C3B 1119  17.748  12.110   9.046 -0.0031  0.0160 -0.0099
   70loPI   C4B 1120  17.889  12.040   8.615  0.0738 -0.0874 -0.0981
   71loPI    C1 1121   0.619   7.671  10.984 -0.1869 -0.1224 -0.0599
   71loPI    C2 1122   0.262   7.508  10.909 -0.2804  0.0884 -0.0819
   71loPI    C3 1123   0.368   7.592  11.286 -0.2258 -0.0348 -0.0691
   71loPI   PO4 1124   0.760   7.456  10.815  0.1124  0.2252 -0.0709
   71loPI   GL1 1125   0.461   7.623  10.389 -0.1479 -0.0108 -0.1839
   71loPI   GL2 1126   0.291   7.370  10.368  0.2168  0.1268  0.2980
   71loPI   C1A 1127   0.531   7.944  10.111  0.1165 -0.0018 -0.2067
   71loPI   C2A 1128   0.585   8.031   9.612 -0.0151  0.5124 -0.2730
   71loPI   C3A 1129   0.573   8.066   9.126 -0.0778 -0.2602 -0.2054
   71loPI   C4A 1130   0.583   8.140   8.732 -0.2042 -0.0323 -0.0396
   71loPI   C5A 1131   0.652   8.062   8.374  0.2840  0.1791  0.1289
   71loPI   C6A 1132   0.715   7.907   7.981 -0.1452 -0.0026  0.0572
   71loPI   C1B 1133   0.370   7.462   9.913  0.0943 -0.0420 -0.1620
   71loPI   C2B 1134   0.500   7.475   9.512 -0.2421  0.2428  0.0703
   71loPI   C3B 1135   0.469   7.577   9.111 -0.1374  0.0965 -0.1376
   71loPI   C4B 1136   0.528   7.562   8.696  0.2323 -0.2807  0.0254
   72loPI    C1 1137   4.857  14.871  11.144  0.0210 -0.0049  0.0953
   72loPI    C2 1138   4.474  14.851  11.259  0.0287 -0.0321  0.1161
   72loPI    C3 1139   4.754  14.977  11.516  0.0693 -0.2482  0.1800
   72loPI   PO4 1140   4.793  14.912  10.850  0.1716 -0.4167 -0.1752
   72loPI   GL1 1141   4.593  14.681  10.518  0.1608  0.6176 -0.4306
   72loPI   GL2 1142   4.399  14.397  10.490 -0.1172 -0.0462  0.1743
   72loPI   C1A 1143   4.569  14.992  10.159 -0.1741 -0.1471  0.1405
   72loPI   C2A 1144   4.533  15.027   9.748  0.3131 -0.0764  0.0483
   72loPI   C3A 1145   4.538  15.021   9.380 -0.2656  0.2257  0.0250
   72loPI   C4A 1146   4.426  15.066   9.005  0.0959  0.0117  0.1528
   72loPI   C5A 1147   4.039  14.947   8.626  0.0884  0.0757  0.1789
   72loPI   C6A 1148   3.669  15.069   8.532 -0.1432 -0.2060 -0.0253
   72loPI   C1B 1149   4.500  14.526  10.063  0.2488 -0.2259 -0.0743
   72loPI   C2B 1150   4.424  14.457   9.680 -0.3245 -0.5974 -0.0222
   72loPI   C3B 1151   4.351  14.473   9.276  0.0335 -0.3645 -0.0329
   72loPI   C4B 1152   4.225  14.454   8.800  0.0894  0.1312 -0.0669
   73loPI    C1 1153  14.329  16.872  10.748 -0.1485 -0.0319 -0.0596
   73loPI    C2 1154  14.025  16.920  11.003  0.0565 -0.0879  0.1991
   73loPI    C3 1155  14.323  17.187  10.995  0.0568 -0.0927  0.0246
   73loPI   PO4 1156  14.243  16.816  10.434 -0.3271  0.1663  0.0127
   73loPI   GL1 1157  14.236  16.536   9.991  0.0253  0.1768 -0.0633
   73loPI   GL2 1158  13.985  16.538  10.122  0.4494 -0.1629  0.2323
   73loPI   C1A 1159  14.235  16.593   9.486 -0.4447 -0.1133  0.1805
   73loPI   C2A 1160  14.192  16.612   8.963 -0.2228 -0.2479  0.1578
   73loPI   C3A 1161  14.209  16.615   8.568  0.2343 -0.0575  0.1311
   73loPI   C4A 1162  14.272  16.566   8.159  0.1892 -0.1901  0.0953
   73loPI   C5A 1163  14.210  16.381   7.784 -0.0425  0.3626  0.1658
   73loPI   C6A 1164  13.989  16.010   7.601 -0.2936  0.0910  0.2579
   73loPI   C1B 1165  13.814  16.402   9.734  0.1980  0.1257  0.1947
   73loPI   C2B 1166  13.715  16.410   9.252 -0.0916  0.0561 -0.0707
   73loPI   C3B 1167  13.607  16.435   8.873 -0.1072 -0.1982  0.0506
   73loPI   C4B 1168  13.672  16.328   8.456  0.2719  0.2554 -0.0742
   74loPI    C1 1169   2.766   3.168  11.221 -0.3789 -0.1143  0.0671
   74loPI    C2 1170   2.639   3.374  11.539 -0.0104  0.1089  0.0755
   74loPI    C3 1171   2.891   3.067  11.587 -0.0710  0.0484  0.0098
   74loPI   PO4 1172   2.889   3.379  11.037 -0.1811  0.0998 -0.0921
   74loPI   GL1 1173   2.701   3.527  10.675  0.1666  0.3293  0.2740
   74loPI   GL2 1174   3.075   3.453  10.572  0.2213  0.0489 -0.3678
   74loPI   C1A 1175   2.783   3.389  10.166  0.1659  0.0100  0.1968
   74loPI   C2A 1176   2.859   3.389   9.703 -0.0752  0.1332  0.1066
   74loPI   C3A 1177   2.815   3.489   9.278  0.4451  0.2379 -0.0197
   74loPI   C4A 1178   2.810   3.433   8.872 -0.0864 -0.0312  0.2103
   74loPI   C5A 1179   3.043   3.472   8.495 -0.2596 -0.0682  0.0197
   74loPI   C6A 1180   3.392   3.667   8.313  0.1421  0.1014 -0.1134
   74loPI   C1B 1181   3.302   3.522  10.167  0.1002  0.1376  0.0248
   74loPI   C2B 1182   3.360   3.592   9.722 -0.0625 -0.1915  0.0440
   74loPI   C3B 1183   3.236   3.651   9.340 -0.1931 -0.0262 -0.2990
   74loPI   C4B 1184   3.280   3.605   8.892  0.0593  0.0822 -0.1394
   75loPI    C1 1185   5.508  12.720  11.162 -0.0153  0.1175  0.0990
   75loPI    C2 1186   5.851  12.530  11.241  0.0698  0.2392  0.0274
   75loPI    C3 1187   5.645  12.704  11.537 -0.1521 -0.1967  0.1389
   75loPI   PO4 1188   5.518  12.873  10.912 -0.2341  0.0669 -0.1952
   75loPI   GL1 1189   5.662  12.851  10.512 -0.5133  0.2304 -0.2537
   75loPI   GL2 1190   5.401  12.763  10.222 -0.2707 -0.0442  0.1722
   75loPI   C1A 1191   5.876  13.007  10.133 -0.1231 -0.0085 -0.1037
   75loPI   C2A 1192   5.876  13.065   9.668 -0.1022  0.0191 -0.2184
   75loPI   C3A 1193   5.871  13.047   9.230  0.0318 -0.1528  0.2078
   75loPI   C4A 1194   5.887  13.066   8.852  0.0698 -0.1310  0.2777
   75loPI   C5A 1195   5.932  13.270   8.480  0.0930 -0.0259  0.1639
   75loPI   C6A 1196   5.625  13.563   8.255  0.2895 -0.0636  0.1842
   75loPI   C1B 1197   5.451  12.837   9.861 -0.1077  0.1407  0.0883
   75loPI   C2B 1198   5.420  12.920   9.445  0.1476 -0.0499  0.0590
   75loPI   C3B 1199   5.382  12.946   9.007  0.0839 -0.1837 -0.0541
   75loPI   C4B 1200   5.430  12.947   8.666 -0.1643  0.3630  0.3597
   76loPI    C1 1201   8.270  11.603  10.715  0.0393 -0.1318 -0.0058
   76loPI    C2 1202   8.609  11.474  10.883  0.1463  0.3778  0.1864
   76loPI    C3 1203   8.273  11.490  11.099  0.0296  0.0207  0.0394
   76loPI   PO4 1204   8.215  11.517  10.485 -0.4125 -0.1185  0.0326
   76loPI   GL1 1205   8.349  11.572  10.064  0.1483 -0.0396 -0.2004
   76loPI   GL2 1206   8.489  11.306  10.106  0.1116  0.0614  0.0958
   76loPI   C1A 1207   8.366  11.545   9.535  0.1434 -0.1470  0.1553
   76loPI   C2A 1208   8.328  11.439   9.136  0.0547  0.3056 -0.4177
   76loPI   C3A 1209   8.369  11.469   8.645 -0.1266 -0.0350 -0.1017
   76loPI   C4A 1210   8.068  11.447   8.289 -0.0064  0.0771  0.0498
   76loPI   C5A 1211   7.624  11.386   8.089 -0.0091 -0.1253  0.2817
   76loPI   C6A 1212   7.276  11.564   8.077  0.1983 -0.0023  0.3505
   76loPI   C1B 1213   8.692  11.170   9.676  0.2242 -0.0834 -0.1092
   76loPI   C2B 1214   8.822  11.104   9.304  0.1506  0.0242 -0.2578
   76loPI   C3B 1215   8.882  11.045   8.781 -0.0702 -0.3667  0.0651
   76loPI   C4B 1216   8.999  11.007   8.382  0.0786  0.1146  0.1457
   77loPI    C1 1217   1.462  10.665  10.789 -0.0755 -0.1614  0.0585
   77loPI    C2 1218   1.197  10.726  11.082 -0.1964 -0.1492 -0.0528
   77loPI    C3 1219   1.267  10.355  10.950 -0.1192 -0.1580  0.0126
   77loPI   PO4 1220   1.426  10.768  10.619 -0.2964  0.0355 -0.2038
   77loPI   GL1 1221   1.459  10.845  10.243 -0.0152 -0.0994  0.2397
   77loPI   GL2 1222   1.793  10.872  10.164  0.2474  0.1181  0.1838
   77loPI   C1A 1223   1.310  11.092   9.872 -0.0186 -0.0803  0.0961
   77loPI   C2A 1224   1.333  11.083   9.428 -0.1571  0.0002 -0.2904
   77loPI   C3A 1225   1.399  11.309   9.095  0.3065  0.0939  0.2107
   77loPI   C4A 1226   1.467  11.303   8.707 -0.0973  0.1770  0.1009
   77loPI   C5A 1227   1.605  11.080   8.450 -0.1333 -0.1344 -0.1429
   77loPI   C6A 1228   1.624  11.386   8.114 -0.0757  0.0352 -0.2566
   77loPI   C1B 1229   1.684  10.716   9.785 -0.3244 -0.1037  0.1529
   77loPI   C2B 1230   1.793  10.780   9.403 -0.3554  0.0387 -0.0260
   77loPI   C3B 1231   1.751  10.825   8.925  0.0519 -0.0535 -0.2912
   77loPI   C4B 1232   2.009  10.786   8.518  0.0775 -0.4129  0.0448
   78loPI    C1 1233  15.531  11.562  10.563 -0.1713 -0.2105 -0.2288
   78loPI    C2 1234  15.844  11.468  10.333  0.1559  0.1549  0.0537
   78loPI    C3 1235  15.840  11.361  10.718 -0.1034  0.0905  0.0350
   78loPI   PO4 1236  15.323  11.410  10.446  0.0498 -0.0128 -0.1307
   78loPI   GL1 1237  15.457  11.201  10.192  0.0873  0.1614  0.0609
   78loPI   GL2 1238  15.352  11.075  10.017 -0.1713  0.2930  0.0098
   78loPI   C1A 1239  15.773  11.320   9.865 -0.0432 -0.1233  0.0312
   78loPI   C2A 1240  15.785  11.357   9.372 -0.0172 -0.3814 -0.0170
   78loPI   C3A 1241  15.854  11.445   8.868  0.0270  0.2666  0.1340
   78loPI   C4A 1242  15.759  11.398   8.478  0.4264  0.1863  0.2021
   78loPI   C5A 1243  15.688  11.218   8.030  0.2183 -0.0173  0.2722
   78loPI   C6A 1244  15.492  11.341   7.690 -0.3964 -0.1578  0.2823
   78loPI   C1B 1245  15.361  11.210   9.607  0.1098 -0.2090 -0.1543
   78loPI   C2B 1246  15.312  11.166   9.182  0.1781  0.0519 -0.3391
   78loPI   C3B 1247  15.374  11.185   8.789  0.1069 -0.0973  0.1853
   78loPI   C4B 1248  15.320  11.126   8.359 -0.3271  0.1183 -0.1202
   79loPI    C1 1249  13.449  16.190  10.779 -0.0963  0.0718 -0.1077
   79loPI    C2 1250  13.562  16.474  11.037  0.0882 -0.2733  0.2007
   79loPI    C3 1251  13.176  16.371  11.009 -0.0296  0.2258 -0.1484
   79loPI   PO4 1252  13.544  16.247  10.559 -0.1457 -0.2717  0.1563
   79loPI   GL1 1253  13.753  16.073  10.159 -0.4230  0.0863  0.1353
   79loPI   GL2 1254  13.791  15.709  10.184 -0.0735 -0.4304 -0.0404
   79loPI   C1A 1255  13.730  15.910   9.750  0.3404  0.1838  0.0594
   79loPI   C2A 1256  13.585  15.965   9.342 -0.2312  0.2666  0.0790
   79loPI   C3A 1257  13.611  15.915   8.864 -0.0295  0.1667  0.0642
   79loPI   C4A 1258  13.438  15.825   8.411  0.1715  0.2270 -0.1678
   79loPI   C5A 1259  13.109  15.563   8.175  0.0708 -0.0820 -0.0381
   79loPI   C6A 1260  12.801  15.301   7.983  0.0085  0.0563 -0.0302
   79loPI   C1B 1261  13.577  15.417  10.041  0.6474  0.0995  0.1820
   79loPI   C2B 1262  13.556  15.484   9.561  0.1612  0.3681 -0.0332
   79loPI   C3B 1263  13.557  15.474   9.098 -0.2878  0.1529 -0.0181
   79loPI   C4B 1264  13.482  15.369   8.583 -0.0029 -0.2242 -0.0263
   80loPI    C1 1265   8.194   4.543  10.922  0.1238  0.0273 -0.0981
   80loPI    C2 1266   8.039   4.887  11.054 -0.0070 -0.0147 -0.1401
   80loPI    C3 1267   8.420   4.795  11.134  0.0044  0.1014 -0.0581
   80loPI   PO4 1268   8.198   4.489  10.638  0.2165 -0.2541 -0.0327
   80loPI   GL1 1269   8.125   4.661  10.193  0.1072  0.3567  0.1709
   80loPI   GL2 1270   8.371   4.766  10.201 -0.1421  0.2105 -0.2100
   80loPI   C1A 1271   7.985   5.053  10.058 -0.2102 -0.0597  0.0423
   80loPI   C2A 1272   7.952   5.166   9.568 -0.1252 -0.1955  0.1016
   80loPI   C3A 1273   7.705   5.123   9.194 -0.0310 -0.0802  0.1326
   80loPI   C4A 1274   7.608   4.964   8.744 -0.1829  0.0182  0.3037
   80loPI   C5A 1275   7.374   4.630   8.482 -0.0913  0.4247  0.3081
   80loPI   C6A 1276   7.384   4.368   8.259  0.4180  0.0726  0.0509
   80loPI   C1B 1277   8.212   4.710   9.662  0.2280 -0.1072 -0.0886
   80loPI   C2B 1278   8.246   4.614   9.179  0.1135 -0.0175 -0.1032
   80loPI   C3B 1279   8.007   4.531   8.804  0.0183 -0.2873 -0.1308
   80loPI   C4B 1280   7.851   4.584   8.412  0.0170 -0.1809 -0.2456
   81loPI    C1 1281  16.045   9.783  10.968 -0.1481 -0.0233 -0.0441
   81loPI    C2 1282  15.770   9.791  11.258 -0.0534 -0.0594  0.0471
   81loPI    C3 1283  16.123   9.971  11.312 -0.0664  0.0050 -0.0779
   81loPI   PO4 1284  15.913   9.821  10.769  0.1414  0.1723  0.0241
   81loPI   GL1 1285  15.865   9.849  10.372 -0.1133 -0.1860 -0.2407
   81loPI   GL2 1286  15.458   9.931  10.438  0.0088  0.3893 -0.3403
   81loPI   C1A 1287  15.926   9.972   9.996  0.2232 -0.1435 -0.0270
   81loPI   C2A 1288  15.975  10.019   9.507  0.3416 -0.2844 -0.2669
   81loPI   C3A 1289  16.106  10.049   9.140 -0.1204 -0.1526 -0.0695
   81loPI   C4A 1290  16.119  10.001   8.692 -0.2168 -0.1401  0.3948
   81loPI   C5A 1291  16.059   9.901   8.253  0.1178  0.3379  0.2067
   81loPI   C6A 1292  15.628   9.740   8.216  0.1070 -0.1259 -0.0319
   81loPI   C1B 1293  15.368   9.858   9.962 -0.0019 -0.2919  0.1159
   81loPI   C2B 1294  15.492   9.843   9.512  0.0367 -0.0952 -0.0817
   81loPI   C3B 1295  15.589   9.942   9.117  0.4364  0.0468 -0.2855
   81loPI   C4B 1296  15.582   9.893   8.734  0.0373 -0.1772  0.0135
   82loPI    C1 1297  11.127   9.972  11.056  0.1761 -0.0183  0.0062
   82loPI    C2 1298  10.884   9.981  11.374  0.0845 -0.0099 -0.0635
   82loPI    C3 1299  11.207  10.217  11.362  0.1069 -0.0348  0.0379
   82loPI   PO4 1300  10.891   9.955  10.840  0.2637 -0.0762  0.0993
   82loPI   GL1 1301  11.003   9.831  10.473  0.0785  0.0288  0.0173
   82loPI   GL2 1302  10.684   9.839  10.271  0.2366 -0.1096 -0.1537
   82loPI   C1A 1303  11.175   9.723  10.049  0.0280 -0.0503  0.0043
   82loPI   C2A 1304  11.211   9.998   9.727  0.0525  0.0663  0.1448
   82loPI   C3A 1305  11.224  10.015   9.257 -0.1867 -0.1243 -0.0955
   82loPI   C4A 1306  11.393   9.985   8.899  0.0872  0.3159  0.2940
   82loPI   C5A 1307  11.386   9.846   8.457  0.0675 -0.0277 -0.1875
   82loPI   C6A 1308  11.502   9.816   8.117 -0.1387 -0.0313  0.1910
   82loPI   C1B 1309  10.741   9.813   9.813  0.1102 -0.1096  0.0269
   82loPI   C2B 1310  10.791   9.824   9.368 -0.1981  0.0571 -0.0049
   82loPI   C3B 1311  10.782   9.804   9.058 -0.1362 -0.1574 -0.1190
   82loPI   C4B 1312  10.849   9.869   8.600 -0.0317  0.0210  0.1019
   83loPI    C1 1313  17.657  10.133  10.989 -0.0387 -0.1386 -0.0564
   83loPI    C2 1314  18.030  10.252  10.905  0.0711 -0.3400  0.1358
   83loPI    C3 1315  17.866  10.341  11.259 -0.0396 -0.3099  0.0777
   83loPI   PO4 1316  17.534  10.272  10.786 -0.3180  0.3495  0.1173
   83loPI   GL1 1317  17.563  10.136  10.365  0.4140  0.2336  0.2236
   83loPI   GL2 1318  17.364  10.084  10.288  0.2468  0.0339 -0.0537
   83loPI   C1A 1319  17.726  10.091   9.850  0.2424  0.2165  0.1950
   83loPI   C2A 1320  17.873  10.100   9.499  0.0237  0.0497  0.0820
   83loPI   C3A 1321  17.962  10.176   9.094  0.1619  0.1715 -0.0466
   83loPI   C4A 1322  17.909  10.227   8.729 -0.0071  0.2407  0.4225
   83loPI   C5A 1323  18.075  10.231   8.295 -0.0338 -0.0234 -0.1346
   83loPI   C6A 1324  17.816  10.467   7.869 -0.1062  0.0458  0.0504
   83loPI   C1B 1325  17.249  10.056   9.857 -0.0137 -0.2061  0.0178
   83loPI   C2B 1326  17.422   9.980   9.398 -0.3603 -0.2134 -0.2000
   83loPI   C3B 1327  17.415  10.072   8.914  0.0132 -0.2268  0.3347
   83loPI   C4B 1328  17.443  10.254   8.481  0.2105  0.0504 -0.0854
   84loPI    C1 1329   1.810   9.006  10.902 -0.0966  0.0414 -0.0819
   84loPI    C2 1330   1.725   9.196  11.244  0.3011 -0.0620  0.0809
   84loPI    C3 1331   1.719   8.797  11.231  0.0427 -0.0549 -0.1036
   84loPI   PO4 1332   2.026   9.185  10.806 -0.1139  0.0706 -0.0837
   84loPI   GL1 1333   2.219   9.313  10.396 -0.1819 -0.0940 -0.2246
   84loPI   GL2 1334   1.929   9.350  10.291 -0.5508  0.0930 -0.0674
   84loPI   C1A 1335   2.149   8.997  10.041  0.0366  0.1445 -0.1119
   84loPI   C2A 1336   2.138   8.920   9.600  0.0256 -0.1597  0.0168
   84loPI   C3A 1337   2.219   9.134   9.204  0.0900 -0.0345 -0.3389
   84loPI   C4A 1338   2.258   9.113   8.763 -0.0308 -0.0484  0.2225
   84loPI   C5A 1339   2.099   9.354   8.296 -0.0422 -0.0980 -0.0668
   84loPI   C6A 1340   2.344   9.778   8.162  0.0067  0.2208  0.1296
   84loPI   C1B 1341   1.782   9.294   9.871 -0.2139  0.0018 -0.0138
   84loPI   C2B 1342   1.782   9.370   9.463 -0.1326 -0.0986 -0.2544
   84loPI   C3B 1343   1.905   9.478   9.079 -0.0512 -0.1609  0.3729
   84loPI   C4B 1344   1.934   9.588   8.766 -0.2280 -0.0099  0.1453
   85loPI    C1 1345  13.273  14.946  11.055  0.1718  0.0325 -0.0067
   85loPI    C2 1346  13.670  14.906  11.086  0.1654  0.0023  0.0385
   85loPI    C3 1347  13.433  14.780  11.382  0.1209  0.0036  0.0037
   85loPI   PO4 1348  13.282  14.797  10.737 -0.2870  0.0889 -0.0560
   85loPI   GL1 1349  13.125  14.536  10.282 -0.1120 -0.1347 -0.0767
   85loPI   GL2 1350  13.087  14.235  10.200 -0.4736  0.0533  0.3001
   85loPI   C1A 1351  12.895  14.765  10.045 -0.1108 -0.2047  0.1011
   85loPI   C2A 1352  13.007  14.803   9.643 -0.3300  0.0651 -0.0776
   85loPI   C3A 1353  12.853  14.709   9.281 -0.1232 -0.3494  0.3231
   85loPI   C4A 1354  12.779  14.736   8.780 -0.1065 -0.5795  0.0572
   85loPI   C5A 1355  12.726  14.766   8.354  0.2226 -0.0591 -0.2202
   85loPI   C6A 1356  12.603  14.860   7.862  0.0261 -0.1772  0.0531
   85loPI   C1B 1357  13.264  14.367   9.687  0.2527  0.1988  0.1158
   85loPI   C2B 1358  13.249  14.411   9.241  0.2468 -0.2636 -0.3009
   85loPI   C3B 1359  13.278  14.384   8.801  0.3305  0.0363  0.3552
   85loPI   C4B 1360  13.165  14.440   8.415  0.2305  0.1758  0.1038
   86loPI    C1 1361  13.241   3.485  10.246  0.0106 -0.1652 -0.1617
   86loPI    C2 1362  13.402   3.479  10.612 -0.0780 -0.0088 -0.1192
   86loPI    C3 1363  13.116   3.744  10.524  0.0387  0.0457 -0.3425
   86loPI   PO4 1364  13.253   3.246  10.216 -0.0977  0.0617 -0.2016
   86loPI   GL1 1365  13.155   3.107   9.902 -0.1335 -0.1272  0.1135
   86loPI   GL2 1366  12.783   3.191   9.867 -0.0814 -0.1752  0.2274
   86loPI   C1A 1367  13.285   2.993   9.473 -0.1218 -0.3241 -0.0464
   86loPI   C2A 1368  13.445   2.924   9.070 -0.0845  0.2225  0.1392
   86loPI   C3A 1369  13.428   2.928   8.694  0.1380  0.2923  0.0865
   86loPI   C4A 1370  13.494   3.181   8.288 -0.4132  0.2383  0.0082
   86loPI   C5A 1371  13.605   3.083   7.920 -0.1862 -0.2871 -0.1345
   86loPI   C6A 1372  13.950   3.308   7.775  0.1704  0.0776 -0.0092
   86loPI   C1B 1373  12.527   3.076   9.451  0.0475  0.2132  0.2553
   86loPI   C2B 1374  12.476   3.135   8.925 -0.3986  0.5709 -0.1113
   86loPI   C3B 1375  12.587   3.236   8.597 -0.0844 -0.4442 -0.0446
   86loPI   C4B 1376  12.618   3.055   8.111  0.0868  0.0845  0.0497
   87loPI    C1 1377  15.622  17.900  10.800  0.0392 -0.0234  0.0227
   87loPI    C2 1378  15.927  17.733  10.997  0.0745  0.0352  0.0178
   87loPI    C3 1379  15.555  17.700  11.140  0.0898  0.0091  0.0518
   87loPI   PO4 1380  15.571  17.819  10.582  0.0322  0.5238 -0.1257
   87loPI   GL1 1381  15.776  17.876  10.134  0.0802 -0.0598  0.2951
   87loPI   GL2 1382  15.583  18.006  10.025 -0.1443 -0.4713  0.0056
   87loPI   C1A 1383  15.963  17.678   9.739  0.0059  0.2271 -0.2109
   87loPI   C2A 1384  15.870  17.625   9.363 -0.1856  0.0052 -0.0898
   87loPI   C3A 1385  15.772  17.609   8.962  0.1582 -0.1227 -0.0776
   87loPI   C4A 1386  15.662  17.596   8.504  0.1012 -0.2547  0.0143
   87loPI   C5A 1387  15.329  17.446   8.252 -0.1542  0.0684  0.0426
   87loPI   C6A 1388  14.924  17.362   7.939  0.2325 -0.1079  0.1829
   87loPI   C1B 1389  15.545  17.945   9.600 -0.1601 -0.2408  0.3052
   87loPI   C2B 1390  15.415  17.984   9.247  0.1539 -0.0677  0.0708
   87loPI   C3B 1391  15.401  17.902   8.771  0.1579  0.1844  0.0187
   87loPI   C4B 1392  15.293  17.985   8.441 -0.0256  0.1873 -0.1348
   88loPI    C1 1393  10.832   3.186  10.233 -0.0714 -0.1510 -0.0797
   88loPI    C2 1394  10.606   3.169  10.562  0.1700 -0.0499  0.0941
   88loPI    C3 1395  10.754   3.520  10.438  0.2829 -0.1237  0.0179
   88loPI   PO4 1396  10.859   2.936  10.172  0.1174 -0.1486 -0.0229
   88loPI   GL1 1397  10.866   2.862   9.735 -0.1741 -0.0154 -0.1263
   88loPI   GL2 1398  10.663   3.077   9.680 -0.1587  0.1636 -0.0268
   88loPI   C1A 1399  11.097   2.680   9.415  0.0154 -0.2880 -0.0435
   88loPI   C2A 1400  11.033   2.572   9.047 -0.0126 -0.2334 -0.3278
   88loPI   C3A 1401  10.912   2.484   8.633  0.0385 -0.0989  0.2107
   88loPI   C4A 1402  10.772   2.624   8.330 -0.0508 -0.1218 -0.2128
   88loPI   C5A 1403  10.837   2.599   7.814  0.1580 -0.1083 -0.0188
   88loPI   C6A 1404  10.744   2.941   7.398 -0.0912 -0.1809  0.0974
   88loPI   C1B 1405  10.680   2.912   9.264  0.0628 -0.2159  0.0677
   88loPI   C2B 1406  10.589   2.903   8.782 -0.0833 -0.3503 -0.0022
   88loPI   C3B 1407  10.441   3.023   8.345 -0.2571  0.1471 -0.0969
   88loPI   C4B 1408  10.375   2.802   7.915 -0.0280 -0.0620 -0.0808
   89loPI    C1 1409   3.326  13.028  11.254 -0.0674  0.1104  0.1254
   89loPI    C2 1410   3.047  13.315  11.245  0.1326  0.3156  0.3180
   89loPI    C3 1411   2.947  12.942  11.350 -0.2309  0.1872 -0.4186
   89loPI   PO4 1412   3.452  13.091  11.081  0.0102  0.2206 -0.0606
   89loPI   GL1 1413   3.437  13.294  10.783 -0.0499 -0.1377 -0.2387
   89loPI   GL2 1414   3.450  13.629  10.689  0.0297 -0.1020 -0.1401
   89loPI   C1A 1415   3.141  13.293  10.434 -0.2291 -0.0772 -0.1497
   89loPI   C2A 1416   3.198  13.208   9.986 -0.0442 -0.1061 -0.0614
   89loPI   C3A 1417   3.182  13.144   9.544  0.0294 -0.3511  0.1329
   89loPI   C4A 1418   3.137  13.177   9.102  0.0408 -0.2650 -0.2890
   89loPI   C5A 1419   3.220  12.961   8.691 -0.2548  0.0068  0.2625
   89loPI   C6A 1420   3.473  12.827   8.432  0.1356 -0.0054 -0.0240
   89loPI   C1B 1421   3.495  13.707  10.350 -0.1031 -0.1203 -0.1240
   89loPI   C2B 1422   3.307  13.675   9.946 -0.2142  0.0267  0.1775
   89loPI   C3B 1423   3.372  13.636   9.472 -0.4082  0.0068  0.0625
   89loPI   C4B 1424   3.289  13.667   9.104 -0.2800 -0.2463  0.3633
   90loPI    C1 1425   1.845   7.401  11.099 -0.1064 -0.1183  0.0180
   90loPI    C2 1426   1.573   7.633  11.277 -0.0723  0.0349 -0.1270
   90loPI    C3 1427   1.956   7.648  11.393 -0.0959 -0.0585 -0.0359
   90loPI   PO4 1428   1.781   7.386  10.883 -0.0647  0.0704 -0.0030
   90loPI   GL1 1429   1.723   7.574  10.375  0.1153 -0.1134 -0.0465
   90loPI   GL2 1430   1.783   7.871  10.367 -0.0211 -0.0181 -0.0765
   90loPI   C1A 1431   1.478   7.683  10.045  0.1405 -0.3025 -0.0460
   90loPI   C2A 1432   1.452   7.710   9.571 -0.0891  0.3461  0.0090
   90loPI   C3A 1433   1.374   7.805   9.128  0.4140 -0.0031  0.1705
   90loPI   C4A 1434   1.472   7.955   8.684  0.0607  0.2792 -0.1777
   90loPI   C5A 1435   1.624   7.625   8.342  0.3106 -0.1362 -0.0998
   90loPI   C6A 1436   1.378   7.506   7.899 -0.0934  0.3162  0.0341
   90loPI   C1B 1437   2.009   7.813  10.037 -0.1675  0.0706 -0.1339
   90loPI   C2B 1438   1.925   7.962   9.513 -0.0405  0.1864 -0.0584
   90loPI   C3B 1439   2.032   8.019   9.077  0.1346  0.1729  0.2284
   90loPI   C4B 1440   1.959   8.143   8.688  0.3268  0.0579 -0.2857
   91loPI    C1 1441   2.794  16.562  11.182  0.0172  0.0339 -0.2216
   91loPI    C2 1442   2.587  16.597  11.523  0.2734 -0.2389 -0.0323
   91loPI    C3 1443   2.867  16.867  11.430  0.2699 -0.2171  0.0209
   91loPI   PO4 1444   2.640  16.369  11.058  0.1144 -0.2191 -0.0413
   91loPI   GL1 1445   2.452  16.290  10.594 -0.2360  0.0377 -0.0805
   91loPI   GL2 1446   2.158  16.170  10.435 -0.1374  0.0720  0.0135
   91loPI   C1A 1447   2.552  16.150  10.081 -0.2683  0.1403 -0.2166
   91loPI   C2A 1448   2.560  16.288   9.653  0.4388 -0.2918 -0.1803
   91loPI   C3A 1449   2.442  16.225   9.136  0.2421  0.0258 -0.0632
   91loPI   C4A 1450   2.494  16.324   8.714  0.0095 -0.0016 -0.0142
   91loPI   C5A 1451   2.528  16.555   8.344 -0.1836  0.0518  0.2441
   91loPI   C6A 1452   2.860  16.325   8.059  0.0888  0.2113  0.0140
   91loPI   C1B 1453   1.974  16.099  10.083  0.3326 -0.0763  0.1516
   91loPI   C2B 1454   1.975  16.037   9.711 -0.0543 -0.2263 -0.1910
   91loPI   C3B 1455   2.031  16.146   9.419  0.3358 -0.0435  0.0371
   91loPI   C4B 1456   1.946  16.115   8.999 -0.2139 -0.0974  0.2483
   92loPI    C1 1457  12.855   7.171  10.266 -0.3671  0.0036 -0.0858
   92loPI    C2 1458  12.767   6.867  10.510 -0.1051  0.0452  0.0650
   92loPI    C3 1459  12.603   7.226  10.572  0.2288  0.1459  0.3999
   92loPI   PO4 1460  12.885   7.157  10.000 -0.2154 -0.2364  0.0892
   92loPI   GL1 1461  13.025   7.030   9.684  0.0609 -0.0353 -0.0993
   92loPI   GL2 1462  12.934   6.681   9.720 -0.1381 -0.1910  0.0293
   92loPI   C1A 1463  13.030   7.222   9.227 -0.0400  0.0967  0.0845
   92loPI   C2A 1464  13.035   7.126   8.827  0.2956  0.1045  0.2313
   92loPI   C3A 1465  13.021   7.062   8.474 -0.3944 -0.0453 -0.1096
   92loPI   C4A 1466  12.809   7.169   8.142 -0.2669  0.2132  0.0607
   92loPI   C5A 1467  12.740   6.913   7.781 -0.1740 -0.2582  0.0014
   92loPI   C6A 1468  12.364   6.708   7.631  0.1296 -0.0530 -0.0226
   92loPI   C1B 1469  12.808   6.657   9.274 -0.3872  0.1957  0.0261
   92loPI   C2B 1470  12.774   6.554   8.779  0.1154  0.0848  0.2494
   92loPI   C3B 1471  12.837   6.570   8.234  0.0288 -0.2699 -0.0911
   92loPI   C4B 1472  12.711   6.387   7.809  0.1373 -0.0415 -0.2612
   93loPI    C1 1473   5.725   4.996  10.898  0.0080 -0.0246 -0.0285
   93loPI    C2 1474   5.347   4.988  10.765  0.0746  0.1987 -0.2397
   93loPI    C3 1475   5.488   5.316  10.946  0.1243  0.0619 -0.0265
   93loPI   PO4 1476   5.791   4.783  10.794  0.2640 -0.1993  0.1362
   93loPI   GL1 1477   5.591   4.773  10.384 -0.0723  0.4001  0.0740
   93loPI   GL2 1478   5.674   5.013  10.284 -0.1941  0.1236 -0.1920
   93loPI   C1A 1479   5.568   4.567   9.969  0.0331 -0.1159  0.1717
   93loPI   C2A 1480   5.476   4.719   9.490 -0.0692  0.2464 -0.0710
   93loPI   C3A 1481   5.375   4.776   9.046  0.2552  0.2234 -0.1831
   93loPI   C4A 1482   5.303   4.709   8.666 -0.2751 -0.0550 -0.3205
   93loPI   C5A 1483   5.541   4.859   8.351 -0.3453  0.0855  0.2009
   93loPI   C6A 1484   5.936   4.819   8.339 -0.0686 -0.1623  0.1934
   93loPI   C1B 1485   5.641   5.134   9.914 -0.3448 -0.0607  0.0308
   93loPI   C2B 1486   5.550   5.273   9.496 -0.2806  0.0617  0.0368
   93loPI   C3B 1487   5.526   5.258   9.053  0.0502  0.1643  0.0566
   93loPI   C4B 1488   5.381   5.215   8.658  0.0401 -0.4143 -0.1409
   94loPI    C1 1489  10.313   8.537  10.845 -0.2092  0.2506  0.0667
   94loPI    C2 1490  10.148   8.466  11.203 -0.0154  0.2510  0.1573
   94loPI    C3 1491  10.542   8.532  11.173  0.0317 -0.1132 -0.1009
   94loPI   PO4 1492  10.066   8.722  10.733 -0.0140 -0.1883  0.0317
   94loPI   GL1 1493   9.865   8.617  10.394  0.1543  0.4259 -0.1736
   94loPI   GL2 1494   9.632   8.432  10.439 -0.1953 -0.0630 -0.2965
   94loPI   C1A 1495  10.016   8.630  10.005 -0.0847 -0.2685  0.1205
   94loPI   C2A 1496  10.036   8.565   9.588  0.0766  0.2708  0.0862
   94loPI   C3A 1497   9.978   8.532   9.130 -0.1501  0.2362  0.2966
   94loPI   C4A 1498  10.156   8.615   8.757 -0.0498  0.2004 -0.0344
   94loPI   C5A 1499  10.233   8.548   8.403 -0.1318 -0.0705 -0.0538
   94loPI   C6A 1500  10.126   8.362   7.950  0.1301  0.0332 -0.1884
   94loPI   C1B 1501   9.548   8.351   9.969 -0.1387 -0.1089 -0.0513
   94loPI   C2B 1502   9.566   8.403   9.458 -0.0584  0.1049  0.1344
   94loPI   C3B 1503   9.444   8.425   9.044 -0.3155  0.0553  0.1319
   94loPI   C4B 1504   9.698   8.402   8.671 -0.0646  0.1694 -0.0036
   95loPI    C1 1505   1.912   9.666  10.645  0.3060 -0.0007 -0.0981
   95loPI    C2 1506   1.979   9.951  10.916 -0.4669  0.1380 -0.0281
   95loPI    C3 1507   1.796   9.612  11.024 -0.2075 -0.0802 -0.2579
   95loPI   PO4 1508   1.925   9.790  10.441 -0.0675  0.3046 -0.0529
   95loPI   GL1 1509   1.788  10.057  10.193  0.1613  0.0741 -0.1294
   95loPI   GL2 1510   1.933   9.882   9.929  0.1187  0.1766 -0.2620
   95loPI   C1A 1511   1.653  10.249   9.830 -0.0059 -0.1439 -0.1457
   95loPI   C2A 1512   1.640  10.280   9.333 -0.3008 -0.2393  0.0643
   95loPI   C3A 1513   1.540  10.393   8.854  0.2278 -0.0271 -0.2875
   95loPI   C4A 1514   1.519  10.569   8.458 -0.0204 -0.3603 -0.1242
   95loPI   C5A 1515   1.847  10.743   8.030  0.3177  0.2065  0.1110
   95loPI   C6A 1516   2.164  11.070   7.909  0.2499 -0.0520  0.1454
   95loPI   C1B 1517   1.951   9.842   9.485 -0.0075  0.1559 -0.0809
   95loPI   C2B 1518   2.010   9.990   9.031 -0.1608  0.2871 -0.0214
   95loPI   C3B 1519   1.924  10.134   8.607  0.2593 -0.1034 -0.0554
   95loPI   C4B 1520   2.040  10.371   8.298  0.0097 -0.1898  0.0274
   96loPI    C1 1521  11.464   1.180  10.599  0.0352 -0.2957 -0.0510
   96loPI    C2 1522  11.862   1.219  10.619  0.0178 -0.1846  0.0899
   96loPI    C3 1523  11.632   1.358  10.916 -0.1341 -0.1425 -0.0460
   96loPI   PO4 1524  11.468   1.157  10.346  0.2286  0.3092 -0.3776
   96loPI   GL1 1525  11.511   1.216   9.933  0.2462 -0.0441  0.1032
   96loPI   GL2 1526  11.745   1.395   9.794 -0.2454 -0.0525  0.0334
   96loPI   C1A 1527  11.255   1.319   9.580  0.0418  0.4282  0.1603
   96loPI   C2A 1528  11.141   1.295   9.098  0.2235  0.1470 -0.0470
   96loPI   C3A 1529  11.093   1.150   8.631  0.0755 -0.0219  0.0815
   96loPI   C4A 1530  11.026   1.129   8.132 -0.0049  0.0094  0.1213
   96loPI   C5A 1531  10.844   0.800   7.890  0.0220  0.1615 -0.3625
   96loPI   C6A 1532  10.963   0.464   7.663  0.1046  0.0025 -0.1136
   96loPI   C1B 1533  11.635   1.327   9.269 -0.1652  0.2116 -0.3776
   96loPI   C2B 1534  11.686   1.347   8.842 -0.2441 -0.2313  0.0437
   96loPI   C3B 1535  11.538   1.451   8.476 -0.0227 -0.0515 -0.0702
   96loPI   C4B 1536  11.515   1.203   8.087  0.1339 -0.4580  0.2225
   97loPI    C1 1537   8.744  12.183  11.075 -0.0304  0.1096 -0.0452
   97loPI    C2 1538   8.504  11.922  11.261 -0.0727  0.2103  0.0426
   97loPI    C3 1539   8.604  12.265  11.441  0.2597  0.1024  0.0694
   97loPI   PO4 1540   8.818  12.098  10.828 -0.1005  0.0893 -0.1188
   97loPI   GL1 1541   8.730  12.063  10.395  0.0046  0.1006  0.0115
   97loPI   GL2 1542   8.386  11.979  10.392 -0.2196  0.0421  0.0489
   97loPI   C1A 1543   8.916  12.165  10.002 -0.0244 -0.0370 -0.1840
   97loPI   C2A 1544   9.031  12.146   9.576  0.0154  0.0158 -0.0800
   97loPI   C3A 1545   8.937  12.171   9.172 -0.3391  0.0152 -0.1988
   97loPI   C4A 1546   8.919  12.141   8.678  0.0842  0.0598 -0.1860
   97loPI   C5A 1547   8.965  12.179   8.149  0.0317  0.1141 -0.2623
   97loPI   C6A 1548   8.674  12.065   7.774 -0.1089 -0.0594  0.2884
   97loPI   C1B 1549   8.421  12.149   9.929  0.1627 -0.0934 -0.1957
   97loPI   C2B 1550   8.496  12.101   9.512  0.1110  0.0562 -0.2128
   97loPI   C3B 1551   8.444  12.124   9.096 -0.1058 -0.1068  0.0413
   97loPI   C4B 1552   8.427  12.059   8.621 -0.4494 -0.0932  0.3258
   98loPI    C1 1553   0.210   1.579  10.952 -0.0297 -0.0696  0.2331
   98loPI    C2 1554   0.254   1.738  11.316  0.1223  0.1066  0.1391
   98loPI    C3 1555   0.133   1.967  11.012  0.0285 -0.0325  0.0707
   98loPI   PO4 1556   0.402   1.408  10.791 -0.0300  0.1900 -0.2049
   98loPI   GL1 1557   0.350   1.188  10.443 -0.1026 -0.0764  0.2297
   98loPI   GL2 1558   0.375   0.823  10.271 -0.3808  0.0314 -0.5043
   98loPI   C1A 1559   0.487   1.255  10.074  0.1016 -0.4685  0.3086
   98loPI   C2A 1560   0.380   1.217   9.662  0.0978 -0.0690  0.1452
   98loPI   C3A 1561   0.384   1.196   9.195  0.0006  0.0401  0.3274
   98loPI   C4A 1562   0.395   1.182   8.791  0.3214 -0.2115 -0.3070
   98loPI   C5A 1563   0.493   1.117   8.347 -0.1400 -0.1430  0.1141
   98loPI   C6A 1564   0.595   1.142   7.865 -0.1257  0.0403  0.2319
   98loPI   C1B 1565   0.325   0.715   9.854  0.0801 -0.1374  0.2919
   98loPI   C2B 1566   0.297   0.694   9.445  0.1052 -0.2797 -0.1753
   98loPI   C3B 1567   0.207   0.667   8.962 -0.0378 -0.1151 -0.0971
   98loPI   C4B 1568   0.221   0.730   8.565 -0.0510  0.1853  0.0017
   99loPI    C1 1569   0.020  11.934  10.761 -0.1626 -0.0673 -0.0785
   99loPI    C2 1570  -0.329  11.747  10.706 -0.1361 -0.1134 -0.0892
   99loPI    C3 1571  -0.124  11.692  11.045 -0.0623 -0.2113 -0.1491
   99loPI   PO4 1572   0.103  11.902  10.538  0.3025 -0.0764 -0.0801
   99loPI   GL1 1573   0.281  11.613  10.198 -0.0190  0.1446 -0.1345
   99loPI   GL2 1574   0.033  11.606   9.999  0.1912 -0.2974 -0.0219
   99loPI   C1A 1575   0.485  11.804   9.775 -0.2375  0.3174  0.1964
   99loPI   C2A 1576   0.551  11.915   9.371  0.4065 -0.1664 -0.2198
   99loPI   C3A 1577   0.522  11.835   9.012 -0.0511 -0.2898  0.3727
   99loPI   C4A 1578   0.615  11.876   8.575  0.0314  0.0416  0.1072
   99loPI   C5A 1579   0.445  11.833   8.113 -0.0338  0.0622  0.3054
   99loPI   C6A 1580   0.168  11.936   7.902  0.3012 -0.0777  0.0065
   99loPI   C1B 1581   0.047  11.667   9.605  0.2040 -0.0334  0.0715
   99loPI   C2B 1582   0.016  11.699   9.196 -0.0194 -0.3877  0.1782
   99loPI   C3B 1583   0.078  11.752   8.706 -0.0150 -0.1137 -0.0092
   99loPI   C4B 1584  -0.066  11.783   8.299  0.0460 -0.0616 -0.4318
  100loPI    C1 1585  13.325  12.210  10.933 -0.0560  0.2287 -0.1304
  100loPI    C2 1586  13.249  11.924  11.202  0.0105  0.0061 -0.3433
  100loPI    C3 1587  13.563  12.167  11.251 -0.2542  0.2862  0.0272
  100loPI   PO4 1588  13.304  12.080  10.730 -0.0588 -0.4102  0.2831
  100loPI   GL1 1589  13.423  12.056  10.377  0.1926  0.0159 -0.0445
  100loPI   GL2 1590  13.493  11.735  10.525  0.2761 -0.1237  0.3308
  100loPI   C1A 1591  13.584  12.053   9.888  0.1056 -0.0257  0.3828
  100loPI   C2A 1592  13.620  12.138   9.508 -0.0690  0.1632  0.0400
  100loPI   C3A 1593  13.674  12.240   9.141  0.0206 -0.0329  0.1097
  100loPI   C4A 1594  13.690  12.090   8.697 -0.1079 -0.0058  0.0396
  100loPI   C5A 1595  13.626  11.650   8.432  0.0620  0.0384  0.0947
  100loPI   C6A 1596  13.441  11.341   8.078  0.1235 -0.0933  0.4820
  100loPI   C1B 1597  13.453  11.594  10.105 -0.1782 -0.1790  0.0592
  100loPI   C2B 1598  13.631  11.436   9.747 -0.2164 -0.2640 -0.1075
  100loPI   C3B 1599  13.561  11.618   9.365 -0.1277 -0.0271  0.0969
  100loPI   C4B 1600  13.630  11.544   8.892  0.2099 -0.2349 -0.5561
  101loPI    C1 1601  12.348   9.559  10.737 -0.1655 -0.0826  0.1645
  101loPI    C2 1602  12.586   9.431  11.032  0.0782 -0.0294 -0.0059
  101loPI    C3 1603  12.597   9.815  10.919  0.1593 -0.0989 -0.2410
  101loPI   PO4 1604  12.352   9.373  10.567 -0.0193 -0.2822 -0.0953
  101loPI   GL1 1605  12.104   9.151  10.226  0.0041  0.0275 -0.0458
  101loPI   GL2 1606  11.904   9.022   9.921  0.1780 -0.0813  0.0040
  101loPI   C1A 1607  12.431   9.297   9.870  0.1715  0.1228 -0.1212
  101loPI   C2A 1608  12.562   9.379   9.559  0.0411  0.1576  0.0185
  101loPI   C3A 1609  12.611   9.399   9.154  0.2290  0.2167 -0.0974
  101loPI   C4A 1610  12.675   9.427   8.718  0.2495 -0.1208  0.1407
  101loPI   C5A 1611  12.588   9.423   8.218 -0.1067  0.0033  0.0140
  101loPI   C6A 1612  12.708   9.481   7.820  0.0542  0.1166  0.1569
  101loPI   C1B 1613  12.028   9.147   9.659  0.0172  0.0246 -0.0085
  101loPI   C2B 1614  12.038   9.194   9.222 -0.1647  0.1207  0.0663
  101loPI   C3B 1615  12.142   9.267   8.921  0.0240  0.2009  0.2673
  101loPI   C4B 1616  12.165   9.326   8.488  0.0973  0.0098  0.3133
  102loPI    C1 1617   9.142  14.929  11.334 -0.1264  0.1873  0.0353
  102loPI    C2 1618   9.185  15.208  11.617 -0.1427 -0.0083  0.2334
  102loPI    C3 1619   9.094  14.832  11.719  0.2017 -0.1614 -0.0054
  102loPI   PO4 1620   9.097  15.074  11.070 -0.0850 -0.2116 -0.1078
  102loPI   GL1 1621   9.342  15.151  10.682  0.3633 -0.2966 -0.2837
  102loPI   GL2 1622   9.641  15.295  10.673 -0.2496  0.1207 -0.1147
  102loPI   C1A 1623   9.183  15.103  10.278  0.3292 -0.2428 -0.4198
  102loPI   C2A 1624   9.159  14.977   9.866 -0.0593  0.0444 -0.0421
  102loPI   C3A 1625   9.154  15.104   9.467  0.1366 -0.0856  0.1348
  102loPI   C4A 1626   9.175  15.057   9.049  0.0924  0.0383 -0.1425
  102loPI   C5A 1627   9.346  15.018   8.591 -0.1316  0.1646 -0.2826
  102loPI   C6A 1628   9.757  15.158   8.515 -0.4598 -0.0222 -0.1830
  102loPI   C1B 1629   9.697  15.305  10.271 -0.1234  0.1862 -0.0008
  102loPI   C2B 1630   9.693  15.185   9.951 -0.3406  0.0586 -0.0610
  102loPI   C3B 1631   9.678  15.141   9.428  0.0493 -0.2609 -0.2548
  102loPI   C4B 1632   9.653  15.168   9.002 -0.2283  0.0095  0.2085
  103loPI    C1 1633  12.702   8.394  10.523 -0.0453  0.2142 -0.0485
  103loPI    C2 1634  12.554   8.647  10.796  0.1408  0.1054  0.1569
  103loPI    C3 1635  12.876   8.426  10.882  0.1301 -0.0187 -0.1105
  103loPI   PO4 1636  12.797   8.486  10.328 -0.2336  0.1232  0.6367
  103loPI   GL1 1637  12.887   8.547   9.944  0.0553 -0.0001 -0.0191
  103loPI   GL2 1638  12.959   8.851  10.051  0.1003  0.0212  0.0651
  103loPI   C1A 1639  13.039   8.552   9.533 -0.0628  0.0759 -0.1074
  103loPI   C2A 1640  12.867   8.446   9.109  0.1065  0.0630 -0.3708
  103loPI   C3A 1641  12.763   8.548   8.737 -0.1283  0.0035  0.1819
  103loPI   C4A 1642  12.745   8.594   8.306  0.1174  0.0795 -0.1532
  103loPI   C5A 1643  12.948   8.662   7.879  0.1189  0.0650  0.2519
  103loPI   C6A 1644  13.266   8.627   7.615  0.3764  0.4135 -0.1427
  103loPI   C1B 1645  12.938   9.041   9.674 -0.1478  0.1314  0.1159
  103loPI   C2B 1646  13.021   8.995   9.210 -0.1818  0.1908 -0.3820
  103loPI   C3B 1647  12.972   9.016   8.800  0.0895  0.2703 -0.0023
  103loPI   C4B 1648  12.975   9.059   8.343  0.0212  0.3627 -0.3524
  104loPI    C1 1649   2.312   8.092  10.639  0.0745  0.2069  0.0338
  104loPI    C2 1650   2.168   7.895  10.956  0.0027  0.0862 -0.0728
  104loPI    C3 1651   2.206   7.708  10.604  0.1438  0.2010 -0.1197
  104loPI   PO4 1652   2.158   8.259  10.584 -0.2540 -0.2914 -0.0940
  104loPI   GL1 1653   2.055   8.555  10.153 -0.2263  0.0576  0.0521
  104loPI   GL2 1654   1.849   8.368  10.195 -0.1922 -0.4053 -0.0585
  104loPI   C1A 1655   2.049   8.444   9.746  0.3071 -0.0408 -0.1235
  104loPI   C2A 1656   2.056   8.494   9.298 -0.3158  0.1682 -0.0609
  104loPI   C3A 1657   2.148   8.672   8.950  0.1417 -0.0636  0.0420
  104loPI   C4A 1658   2.106   8.748   8.435  0.3155  0.1346  0.0928
  104loPI   C5A 1659   1.837   8.952   8.168  0.0188 -0.2712  0.0797
  104loPI   C6A 1660   1.495   9.160   7.978 -0.0327  0.0716  0.1959
  104loPI   C1B 1661   1.562   8.308   9.942  0.0144 -0.0590  0.1902
  104loPI   C2B 1662   1.536   8.259   9.519 -0.3170 -0.2370 -0.1617
  104loPI   C3B 1663   1.591   8.341   9.080  0.3463 -0.0551 -0.2032
  104loPI   C4B 1664   1.526   8.529   8.661 -0.1811 -0.1156 -0.0722
  105loPI    C1 1665  10.779   5.435  10.556  0.1348  0.2387 -0.1951
  105loPI    C2 1666  11.087   5.198  10.647 -0.1128 -0.0156 -0.0016
  105loPI    C3 1667  11.015   5.524  10.866 -0.0966 -0.0632  0.0753
  105loPI   PO4 1668  10.828   5.380  10.267 -0.1713  0.2457  0.1911
  105loPI   GL1 1669  10.803   5.267   9.848 -0.2411 -0.0626  0.1612
  105loPI   GL2 1670  11.047   5.347   9.724  0.1257 -0.1118 -0.2013
  105loPI   C1A 1671  10.612   5.318   9.434 -0.2089 -0.0966  0.0887
  105loPI   C2A 1672  10.535   5.475   9.027 -0.1338 -0.0564 -0.1100
  105loPI   C3A 1673  10.547   5.417   8.596 -0.1001  0.0002 -0.0090
  105loPI   C4A 1674  10.663   5.261   8.170  0.0597  0.1341  0.2301
  105loPI   C5A 1675  10.766   5.486   7.796 -0.2615 -0.0896  0.1416
  105loPI   C6A 1676  11.018   5.275   7.357  0.0044  0.0867  0.1673
  105loPI   C1B 1677  11.049   5.541   9.342  0.2314  0.3385  0.0850
  105loPI   C2B 1678  11.082   5.567   8.926 -0.2476 -0.1258 -0.0230
  105loPI   C3B 1679  11.159   5.491   8.512 -0.0606  0.0802  0.1798
  105loPI   C4B 1680  11.193   5.565   8.082 -0.1537 -0.2819  0.0591
  106loPI    C1 1681  11.612  16.859  10.536  0.2061 -0.0532  0.0142
  106loPI    C2 1682  11.310  16.809  10.794  0.1197  0.0596 -0.0643
  106loPI    C3 1683  11.646  16.993  10.911  0.1385 -0.0206  0.0087
  106loPI   PO4 1684  11.480  16.676  10.303 -0.2919  0.1647  0.0205
  106loPI   GL1 1685  11.264  16.782   9.937 -0.1548  0.1974 -0.0049
  106loPI   GL2 1686  11.040  16.541   9.993  0.1589 -0.0831 -0.1361
  106loPI   C1A 1687  11.346  16.674   9.471  0.0952 -0.1156  0.3802
  106loPI   C2A 1688  11.356  16.617   9.040  0.3614 -0.4973  0.1672
  106loPI   C3A 1689  11.303  16.597   8.595 -0.0570 -0.1819 -0.2574
  106loPI   C4A 1690  11.625  16.636   8.286  0.0966 -0.0160 -0.0865
  106loPI   C5A 1691  12.099  16.617   8.288  0.0847  0.4157 -0.2244
  106loPI   C6A 1692  12.496  16.672   8.255 -0.0668  0.1570 -0.0038
  106loPI   C1B 1693  10.868  16.547   9.618 -0.2306  0.1075  0.0078
  106loPI   C2B 1694  10.878  16.495   9.193 -0.0435 -0.0073 -0.1653
  106loPI   C3B 1695  10.841  16.471   8.786  0.0687  0.2689  0.1386
  106loPI   C4B 1696  10.738  16.458   8.317 -0.1394  0.2915 -0.2102
  107loPI    C1 1697  17.842   3.514  11.312  0.0169  0.3617  0.2680
  107loPI    C2 1698  17.602   3.221  11.440 -0.1914  0.3908 -0.0447
  107loPI    C3 1699  17.699   3.521  11.685 -0.0661  0.1214  0.2423
  107loPI   PO4 1700  17.784   3.500  11.017 -0.3168 -0.0956  0.0350
  107loPI   GL1 1701  18.017   3.700  10.711  0.0805  0.0839 -0.1144
  107loPI   GL2 1702  17.808   3.753  10.560  0.1218  0.0397 -0.1837
  107loPI   C1A 1703  18.175   3.522  10.307  0.1775  0.1295 -0.0224
  107loPI   C2A 1704  18.258   3.528   9.871  0.0500  0.4029  0.0452
  107loPI   C3A 1705  18.224   3.598   9.463 -0.0276  0.1413  0.2221
  107loPI   C4A 1706  18.376   3.469   9.006 -0.4053  0.1001  0.2588
  107loPI   C5A 1707  18.472   3.614   8.519  0.4508  0.1661  0.3077
  107loPI   C6A 1708  18.663   3.566   8.155  0.1071 -0.0859  0.1049
  107loPI   C1B 1709  17.806   3.885  10.132  0.0168  0.0052 -0.0112
  107loPI   C2B 1710  17.827   3.857   9.620  0.0160  0.4121 -0.0581
  107loPI   C3B 1711  17.934   3.897   9.157 -0.2865 -0.1193  0.1783
  107loPI   C4B 1712  18.078   3.858   8.720  0.2960  0.0477  0.0739
  108loPI    C1 1713   1.637   0.775  11.261 -0.0184  0.2341  0.0653
  108loPI    C2 1714   1.552   0.448  11.475  0.0536  0.0694 -0.1532
  108loPI    C3 1715   1.476   0.811  11.625  0.0969 -0.0424  0.1465
  108loPI   PO4 1716   1.492   0.842  11.023 -0.0997  0.3324 -0.1197
  108loPI   GL1 1717   1.410   1.089  10.620  0.2790 -0.1027 -0.0339
  108loPI   GL2 1718   1.587   0.793  10.543 -0.2500 -0.3916  0.2377
  108loPI   C1A 1719   1.424   1.092  10.165 -0.1400 -0.0729 -0.2833
  108loPI   C2A 1720   1.339   1.102   9.795  0.1089  0.1615  0.1653
  108loPI   C3A 1721   1.266   0.967   9.382  0.0039  0.0797 -0.0512
  108loPI   C4A 1722   1.249   1.045   8.931  0.1338 -0.0055  0.1546
  108loPI   C5A 1723   1.279   1.093   8.562  0.3034 -0.1674  0.1646
  108loPI   C6A 1724   1.042   1.181   8.213 -0.1619 -0.4123  0.1758
  108loPI   C1B 1725   1.698   0.676  10.075  0.1300  0.2237  0.0467
  108loPI   C2B 1726   1.794   0.721   9.686 -0.2250  0.2677  0.2708
  108loPI   C3B 1727   1.696   0.738   9.218 -0.0298  0.0115 -0.0549
  108loPI   C4B 1728   1.673   0.716   8.829  0.1679  0.4652  0.2558
  109loPI    C1 1729  17.813   5.094  10.988 -0.2293  0.1991  0.0189
  109loPI    C2 1730  17.870   5.342  11.298  0.0055  0.1158  0.0441
  109loPI    C3 1731  17.541   5.115  11.281  0.0130  0.0870  0.2571
  109loPI   PO4 1732  17.976   5.145  10.836  0.0198  0.4506  0.0900
  109loPI   GL1 1733  18.191   5.224  10.541  0.0208 -0.1072  0.0843
  109loPI   GL2 1734  18.501   5.081  10.352  0.1319 -0.0425 -0.0214
  109loPI   C1A 1735  18.134   5.272  10.044 -0.0161 -0.2851 -0.2124
  109loPI   C2A 1736  18.213   5.437   9.580 -0.2454 -0.3077 -0.1759
  109loPI   C3A 1737  18.127   5.444   9.224 -0.2165 -0.0119  0.0803
  109loPI   C4A 1738  18.213   5.347   8.800 -0.1759 -0.0111  0.2982
  109loPI   C5A 1739  18.374   5.640   8.467  0.1985  0.0322  0.0996
  109loPI   C6A 1740  18.243   5.668   8.024  0.1844  0.1201  0.1492
  109loPI   C1B 1741  18.541   5.100   9.837 -0.2296 -0.0946 -0.1033
  109loPI   C2B 1742  18.636   5.104   9.363  0.2392 -0.0367  0.1189
  109loPI   C3B 1743  18.607   5.050   8.932 -0.3538  0.2558  0.1389
  109loPI   C4B 1744  18.485   5.053   8.551  0.0717 -0.3101 -0.2147
  110loPI    C1 1745  12.707   1.170  10.424  0.3162  0.0204  0.1571
  110loPI    C2 1746  12.338   1.086  10.553  0.2585  0.3534  0.2189
  110loPI    C3 1747  12.623   0.805  10.563 -0.0506  0.0203 -0.0525
  110loPI   PO4 1748  12.707   1.322  10.201 -0.2366 -0.2515  0.2120
  110loPI   GL1 1749  12.666   1.214   9.764  0.2514 -0.2627  0.1188
  110loPI   GL2 1750  13.020   1.308   9.781 -0.0607  0.1441  0.0271
  110loPI   C1A 1751  12.503   1.133   9.331  0.0778  0.1563 -0.0298
  110loPI   C2A 1752  12.501   1.212   8.974 -0.3060 -0.1372  0.1159
  110loPI   C3A 1753  12.548   1.271   8.627 -0.3394  0.1114  0.0469
  110loPI   C4A 1754  12.531   1.155   8.235 -0.0249 -0.4728 -0.2572
  110loPI   C5A 1755  12.281   1.262   8.021 -0.0411 -0.0334 -0.1969
  110loPI   C6A 1756  11.931   1.460   7.865  0.2470 -0.1606 -0.5493
  110loPI   C1B 1757  13.071   1.356   9.294  0.2158 -0.0067 -0.3715
  110loPI   C2B 1758  13.140   1.431   8.851 -0.2512  0.1070 -0.0203
  110loPI   C3B 1759  13.026   1.308   8.430 -0.1793 -0.3125  0.0771
  110loPI   C4B 1760  13.044   1.308   8.041  0.2510  0.3458 -0.1720
  111loPI    C1 1761   0.895   5.719  11.366  0.0286  0.0471  0.0673
  111loPI    C2 1762   0.702   6.034  11.519 -0.0411  0.0167  0.0424
  111loPI    C3 1763   0.690   5.682  11.708  0.1770  0.0704  0.1598
  111loPI   PO4 1764   0.801   5.673  11.060 -0.0710 -0.1116 -0.1140
  111loPI   GL1 1765   0.442   5.847  10.751 -0.3218 -0.1385  0.1170
  111loPI   GL2 1766   0.469   6.030  10.611 -0.1669  0.2381 -0.1405
  111loPI   C1A 1767   0.405   5.565  10.403 -0.1109  0.2727  0.1646
  111loPI   C2A 1768   0.448   5.574  10.004  0.0425 -0.2598  0.1981
  111loPI   C3A 1769   0.474   5.632   9.527 -0.0839  0.0894 -0.2177
  111loPI   C4A 1770   0.458   5.528   9.128  0.0036  0.2128  0.0214
  111loPI   C5A 1771   0.607   5.515   8.825  0.1169  0.2403  0.0576
  111loPI   C6A 1772   1.035   5.716   8.727 -0.1941 -0.0488 -0.0793
  111loPI   C1B 1773   0.633   6.045  10.117  0.0987 -0.2041  0.0866
  111loPI   C2B 1774   0.695   6.120   9.778 -0.3546  0.1426 -0.0872
  111loPI   C3B 1775   0.619   6.068   9.281 -0.1793  0.0669 -0.0295
  111loPI   C4B 1776   0.595   6.055   8.810 -0.1051  0.2734  0.0323
  112loPI    C1 1777   5.869  17.792  11.092  0.0517 -0.1900 -0.0786
  112loPI    C2 1778   5.847  17.432  11.264  0.1586 -0.1890 -0.0619
  112loPI    C3 1779   6.152  17.676  11.350  0.0015 -0.0299  0.0498
  112loPI   PO4 1780   5.882  17.765  10.823 -0.5298 -0.2575 -0.1401
  112loPI   GL1 1781   5.729  17.842  10.527 -0.1825  0.2618 -0.0226
  112loPI   GL2 1782   5.557  18.018  10.583  0.0010  0.0879 -0.0314
  112loPI   C1A 1783   5.713  17.680  10.130  0.1473 -0.1571  0.2054
  112loPI   C2A 1784   5.610  17.627   9.623  0.0080 -0.0734 -0.1268
  112loPI   C3A 1785   5.588  17.630   9.258  0.1120 -0.0354  0.2005
  112loPI   C4A 1786   5.567  17.688   8.856  0.0494  0.1577 -0.0752
  112loPI   C5A 1787   5.544  17.664   8.386 -0.2006 -0.0513  0.1000
  112loPI   C6A 1788   5.384  17.571   7.930 -0.2111 -0.0425 -0.2756
  112loPI   C1B 1789   5.361  18.047  10.112 -0.0038 -0.2253  0.0325
  112loPI   C2B 1790   5.287  18.010   9.679  0.1015  0.2324  0.3602
  112loPI   C3B 1791   5.163  18.014   9.225  0.3019  0.0186 -0.2368
  112loPI   C4B 1792   5.208  18.033   8.752  0.1043 -0.0050 -0.0202
  113loPI    C1 1793  13.251   1.717  10.536  0.0434 -0.0990 -0.0074
  113loPI    C2 1794  13.234   1.714  10.936  0.2546 -0.2947  0.0021
  113loPI    C3 1795  12.961   1.515  10.723  0.0974 -0.1281  0.0450
  113loPI   PO4 1796  13.427   1.668  10.472 -0.0166 -0.1313 -0.0050
  113loPI   GL1 1797  13.596   1.544  10.057  0.2242 -0.1259 -0.1902
  113loPI   GL2 1798  13.257   1.698  10.029 -0.0309 -0.1562  0.1247
  113loPI   C1A 1799  13.528   1.557   9.619  0.2307 -0.1835 -0.1656
  113loPI   C2A 1800  13.493   1.572   9.186 -0.1714 -0.1443 -0.0520
  113loPI   C3A 1801  13.589   1.550   8.776  0.0622  0.2793 -0.0035
  113loPI   C4A 1802  13.448   1.569   8.350 -0.2510 -0.3337  0.0029
  113loPI   C5A 1803  13.301   1.798   7.996  0.1052  0.2437  0.1941
  113loPI   C6A 1804  12.901   1.912   7.871 -0.3321 -0.1674  0.1790
  113loPI   C1B 1805  13.201   1.884   9.556  0.0413 -0.0775  0.0776
  113loPI   C2B 1806  13.204   1.973   9.077 -0.1221  0.2308 -0.3074
  113loPI   C3B 1807  13.223   1.968   8.775  0.0480  0.0204 -0.0587
  113loPI   C4B 1808  13.052   1.985   8.461  0.0799  0.2735  0.1046
  114loPI    C1 1809   2.559   6.545  10.906  0.1392 -0.0337 -0.1015
  114loPI    C2 1810   2.684   6.766  11.215 -0.0404 -0.1075  0.0259
  114loPI    C3 1811   2.792   6.382  11.188 -0.1881 -0.1551  0.1041
  114loPI   PO4 1812   2.390   6.814  10.728  0.1792  0.2282 -0.1285
  114loPI   GL1 1813   2.263   6.916  10.320  0.1549  0.0983  0.1868
  114loPI   GL2 1814   1.996   7.173  10.488  0.1250  0.2339 -0.1764
  114loPI   C1A 1815   2.191   7.039   9.867  0.3181 -0.1386  0.0090
  114loPI   C2A 1816   2.296   7.133   9.353 -0.1368 -0.0819  0.0718
  114loPI   C3A 1817   2.197   7.175   8.970 -0.0010  0.1567 -0.3291
  114loPI   C4A 1818   1.931   7.243   8.538  0.0885  0.1689 -0.2923
  114loPI   C5A 1819   1.543   7.045   8.458  0.2768 -0.1922  0.1311
  114loPI   C6A 1820   1.216   7.117   8.247  0.0548  0.0731  0.0821
  114loPI   C1B 1821   1.827   7.332  10.019 -0.2283 -0.0451  0.0488
  114loPI   C2B 1822   1.844   7.334   9.636  0.3328 -0.0211 -0.0138
  114loPI   C3B 1823   1.934   7.493   9.225  0.0443 -0.1026  0.0021
  114loPI   C4B 1824   1.772   7.554   8.880  0.3738 -0.1545  0.1579
  115loPI    C1 1825  17.720   7.912  10.877  0.1452  0.2847  0.1112
  115loPI    C2 1826  17.390   8.134  10.827 -0.0433 -0.0187 -0.0179
  115loPI    C3 1827  17.491   8.005  11.192  0.0168  0.1996  0.0440
  115loPI   PO4 1828  17.869   7.952  10.736 -0.0227  0.0006 -0.0458
  115loPI   GL1 1829  18.050   8.004  10.371  0.0561 -0.1295  0.0137
  115loPI   GL2 1830  18.105   7.761  10.089 -0.0217  0.1192  0.0899
  115loPI   C1A 1831  17.884   8.078   9.818  0.0849 -0.1819 -0.1542
  115loPI   C2A 1832  17.929   8.115   9.423 -0.1137 -0.0607  0.3045
  115loPI   C3A 1833  17.913   8.150   9.087 -0.0854  0.0912  0.0724
  115loPI   C4A 1834  17.911   8.281   8.678 -0.0033  0.2783 -0.3552
  115loPI   C5A 1835  17.578   8.288   8.293 -0.0801 -0.3589 -0.0227
  115loPI   C6A 1836  17.440   8.350   7.840 -0.0424  0.0158  0.3818
  115loPI   C1B 1837  18.315   7.778   9.710  0.1185  0.1455 -0.2030
  115loPI   C2B 1838  18.270   7.809   9.299  0.1462 -0.0967  0.3664
  115loPI   C3B 1839  18.334   7.902   8.848  0.4115  0.3057 -0.1206
  115loPI   C4B 1840  18.327   7.947   8.393  0.0114  0.2001 -0.2483
  116loPI    C1 1841   7.079  15.943  11.201  0.0880  0.1919 -0.0584
  116loPI    C2 1842   7.043  16.181  11.520  0.0913 -0.0623  0.1353
  116loPI    C3 1843   7.078  15.786  11.569  0.2095 -0.0932 -0.1767
  116loPI   PO4 1844   6.835  15.974  10.996 -0.0960  0.1095 -0.1451
  116loPI   GL1 1845   6.736  15.820  10.617  0.2284  0.0221  0.0309
  116loPI   GL2 1846   6.778  16.081  10.515 -0.1569  0.1483  0.1268
  116loPI   C1A 1847   6.589  15.599  10.259 -0.0772  0.3930  0.4140
  116loPI   C2A 1848   6.586  15.625   9.820  0.1947  0.4349 -0.1761
  116loPI   C3A 1849   6.450  15.702   9.384 -0.3265  0.0252 -0.4263
  116loPI   C4A 1850   6.470  15.584   8.958 -0.0638  0.1558  0.0744
  116loPI   C5A 1851   6.350  15.542   8.454 -0.1618 -0.1169 -0.2090
  116loPI   C6A 1852   6.300  15.590   8.050  0.0070  0.0777  0.0256
  116loPI   C1B 1853   6.688  16.075  10.118  0.0565  0.1593  0.0049
  116loPI   C2B 1854   6.687  16.161   9.620  0.1535 -0.0980 -0.1233
  116loPI   C3B 1855   6.636  16.138   9.172 -0.3783  0.1731 -0.0914
  116loPI   C4B 1856   6.618  16.150   8.775 -0.1970  0.1536  0.1531
  117loPI    C1 1857  10.967   7.737  10.529  0.3888 -0.5979  0.0137
  117loPI    C2 1858  10.698   7.512  10.722 -0.0221  0.0203  0.1904
  117loPI    C3 1859  10.991   7.693  10.926 -0.1172  0.2134  0.1585
  117loPI   PO4 1860  11.065   7.544  10.314 -0.0088  0.3247 -0.1283
  117loPI   GL1 1861  10.985   7.487   9.921 -0.0528  0.0927  0.2373
  117loPI   GL2 1862  10.880   7.219   9.841 -0.1271 -0.0659 -0.1273
  117loPI   C1A 1863  11.100   7.473   9.472 -0.0020  0.0859 -0.3513
  117loPI   C2A 1864  11.211   7.509   8.996 -0.0181 -0.3326 -0.1177
  117loPI   C3A 1865  11.167   7.427   8.468  0.0831  0.2778 -0.0285
  117loPI   C4A 1866  11.003   7.478   8.071 -0.0555 -0.2860  0.0003
  117loPI   C5A 1867  10.637   7.735   7.970 -0.0963  0.0184 -0.0719
  117loPI   C6A 1868  10.393   8.017   7.635 -0.0622  0.4094  0.2012
  117loPI   C1B 1869  10.621   7.286   9.597  0.1160  0.0798  0.2482
  117loPI   C2B 1870  10.723   7.355   9.115 -0.1569  0.4689  0.1004
  117loPI   C3B 1871  10.705   7.308   8.685  0.0246 -0.0300  0.2871
  117loPI   C4B 1872  10.641   7.358   8.341 -0.1015 -0.1212  0.2244
  118loPI    C1 1873  17.867   0.517  11.257  0.2180  0.2015 -0.0633
  118loPI    C2 1874  18.155   0.604  11.520  0.1521  0.2895 -0.0195
  118loPI    C3 1875  17.807   0.454  11.647  0.1965  0.1356 -0.0772
  118loPI   PO4 1876  17.857   0.693  11.097 -0.0172  0.1370  0.0670
  118loPI   GL1 1877  17.872   0.478  10.621  0.1161  0.0797  0.1189
  118loPI   GL2 1878  18.254   0.464  10.462 -0.0171 -0.1424  0.0961
  118loPI   C1A 1879  17.681   0.348  10.318 -0.0058  0.1914 -0.1627
  118loPI   C2A 1880  17.568   0.354   9.796  0.2809  0.2575 -0.0756
  118loPI   C3A 1881  17.465   0.307   9.431 -0.0052  0.0928  0.0278
  118loPI   C4A 1882  17.437   0.405   8.986  0.1810  0.0338 -0.1566
  118loPI   C5A 1883  17.375   0.415   8.533 -0.0341  0.0467 -0.2571
  118loPI   C6A 1884  17.103   0.279   8.170 -0.0737 -0.1140 -0.1004
  118loPI   C1B 1885  18.085   0.541  10.073  0.0458  0.0863 -0.3021
  118loPI   C2B 1886  17.987   0.564   9.643 -0.2030  0.0859  0.0247
  118loPI   C3B 1887  17.951   0.468   9.191 -0.1150 -0.3567  0.0216
  118loPI   C4B 1888  17.884   0.674   8.758 -0.1629 -0.3184 -0.0612
  119loPI    C1 1889  13.319  16.774  10.742 -0.0693  0.3510  0.0016
  119loPI    C2 1890  13.554  17.004  10.969  0.1610  0.0825  0.0412
  119loPI    C3 1891  13.211  16.861  11.117  0.2571 -0.0019  0.1850
  119loPI   PO4 1892  13.285  16.965  10.518 -0.1453  0.0692  0.2149
  119loPI   GL1 1893  13.521  17.081  10.206  0.3542 -0.0745 -0.0290
  119loPI   GL2 1894  13.546  16.824  10.085  0.2447  0.0502 -0.2271
  119loPI   C1A 1895  13.495  17.314   9.828 -0.0026  0.0959  0.0010
  119loPI   C2A 1896  13.402  17.270   9.392  0.0571 -0.1282 -0.0342
  119loPI   C3A 1897  13.438  17.265   8.937  0.2653  0.0410  0.2280
  119loPI   C4A 1898  13.276  17.244   8.545  0.0635  0.0607  0.1334
  119loPI   C5A 1899  13.401  17.293   8.126  0.1555 -0.1541 -0.0567
  119loPI   C6A 1900  13.350  17.520   7.754  0.2795 -0.3361 -0.0218
  119loPI   C1B 1901  13.472  16.806   9.671 -0.2674  0.1109 -0.0391
  119loPI   C2B 1902  13.336  16.778   9.268 -0.2782 -0.0145 -0.1022
  119loPI   C3B 1903  13.328  16.819   8.792 -0.0819 -0.1379 -0.0498
  119loPI   C4B 1904  13.219  16.660   8.350  0.4513 -0.1213 -0.2306
  120loPI    C1 1905   4.015  13.120  11.095 -0.3342 -0.0354 -0.0904
  120loPI    C2 1906   3.846  12.900  11.384 -0.0703  0.0783  0.1548
  120loPI    C3 1907   3.848  13.299  11.411  0.2575  0.0788  0.1708
  120loPI   PO4 1908   3.917  13.056  10.843  0.0010  0.0176 -0.0695
  120loPI   GL1 1909   3.807  13.050  10.504 -0.1031 -0.0175  0.0609
  120loPI   GL2 1910   3.517  12.997  10.367 -0.0579  0.0487 -0.0347
  120loPI   C1A 1911   3.769  13.320  10.092  0.0736 -0.0263  0.0606
  120loPI   C2A 1912   3.661  13.315   9.679 -0.2580  0.3517  0.0049
  120loPI   C3A 1913   3.616  13.296   9.216 -0.1406 -0.1490  0.0538
  120loPI   C4A 1914   3.587  13.286   8.834  0.3566 -0.0136 -0.0903
  120loPI   C5A 1915   3.554  13.405   8.386  0.3219 -0.0278 -0.0831
  120loPI   C6A 1916   3.522  13.317   7.930  0.1284 -0.2563  0.0101
  120loPI   C1B 1917   3.621  12.728  10.022  0.1038  0.0019 -0.1085
  120loPI   C2B 1918   3.621  12.819   9.633 -0.1821 -0.0175  0.1669
  120loPI   C3B 1919   3.479  12.844   9.327  0.1274  0.3613  0.1778
  120loPI   C4B 1920   3.601  12.736   8.909 -0.4016  0.0673 -0.0614
  121loPI    C1 1921   5.224  15.134  11.329  0.1160 -0.0507 -0.3159
  121loPI    C2 1922   5.250  15.230  11.716 -0.1297 -0.2030 -0.2588
  121loPI    C3 1923   5.205  14.848  11.608  0.1541 -0.1852 -0.4499
  121loPI   PO4 1924   5.120  15.279  11.182  0.0608  0.0169 -0.3120
  121loPI   GL1 1925   4.999  15.310  10.680 -0.2830  0.3674  0.4396
  121loPI   GL2 1926   5.211  15.314  10.600  0.0239  0.1566 -0.0305
  121loPI   C1A 1927   5.040  15.120  10.180 -0.1276  0.2309 -0.0504
  121loPI   C2A 1928   5.018  15.205   9.726 -0.2511  0.1148  0.0580
  121loPI   C3A 1929   5.032  15.056   9.295 -0.0019  0.1048  0.0705
  121loPI   C4A 1930   5.026  15.052   8.778  0.2667 -0.2386 -0.4818
  121loPI   C5A 1931   4.941  15.121   8.313 -0.0990  0.1578  0.0676
  121loPI   C6A 1932   5.160  15.134   7.879 -0.0741 -0.4044  0.6035
  121loPI   C1B 1933   5.190  15.586  10.179 -0.1677 -0.0479 -0.1444
  121loPI   C2B 1934   5.111  15.694   9.762 -0.5127 -0.5906  0.0166
  121loPI   C3B 1935   5.120  15.568   9.281  0.0764  0.1862 -0.2144
  121loPI   C4B 1936   5.168  15.644   8.822  0.0946  0.2378  0.1195
  122loPI    C1 1937   9.185  16.619  10.930 -0.2957 -0.2366  0.0947
  122loPI    C2 1938   9.435  16.365  11.112  0.0519  0.0585  0.0388
  122loPI    C3 1939   9.289  16.680  11.311  0.1215  0.1630 -0.0737
  122loPI   PO4 1940   9.193  16.433  10.671 -0.0996 -0.2485 -0.2099
  122loPI   GL1 1941   9.154  16.279  10.223 -0.1385 -0.0415  0.0580
  122loPI   GL2 1942   9.441  16.499  10.208 -0.2243 -0.1082 -0.0286
  122loPI   C1A 1943   8.951  16.413   9.864 -0.0726  0.2009  0.0532
  122loPI   C2A 1944   9.116  16.449   9.466  0.3762  0.2717  0.2077
  122loPI   C3A 1945   9.047  16.467   9.054 -0.2049  0.1552 -0.0921
  122loPI   C4A 1946   8.938  16.314   8.674 -0.2026  0.1095  0.0362
  122loPI   C5A 1947   8.807  16.107   8.225 -0.0143  0.1441 -0.2289
  122loPI   C6A 1948   8.531  15.850   8.199  0.0926 -0.1121  0.0619
  122loPI   C1B 1949   9.491  16.604   9.868 -0.0237  0.0616  0.0802
  122loPI   C2B 1950   9.587  16.565   9.405  0.0328 -0.2940  0.2474
  122loPI   C3B 1951   9.521  16.530   8.994 -0.1115  0.0741 -0.0300
  122loPI   C4B 1952   9.406  16.520   8.644 -0.0948 -0.2353 -0.1354
  123loPI    C1 1953   6.118   2.253  10.763 -0.1047 -0.2493 -0.3531
  123loPI    C2 1954   6.322   2.564  10.616  0.1151 -0.2464 -0.0529
  123loPI    C3 1955   5.946   2.613  10.744  0.1441 -0.1073 -0.0195
  123loPI   PO4 1956   6.311   2.041  10.657 -0.0266 -0.3183  0.1618
  123loPI   GL1 1957   6.212   2.039  10.181 -0.0535 -0.0436 -0.0903
  123loPI   GL2 1958   6.366   2.355  10.150  0.1002  0.1406 -0.4682
  123loPI   C1A 1959   6.271   1.956   9.827  0.2636 -0.2205  0.0934
  123loPI   C2A 1960   6.232   2.034   9.382  0.0922 -0.0905 -0.2864
  123loPI   C3A 1961   6.207   2.057   9.049 -0.0784 -0.1757 -0.2300
  123loPI   C4A 1962   6.093   2.165   8.583  0.0963 -0.2027 -0.1101
  123loPI   C5A 1963   5.816   2.152   8.152 -0.0583 -0.1524 -0.1502
  123loPI   C6A 1964   5.846   2.060   7.788  0.1033  0.2748  0.2674
  123loPI   C1B 1965   6.308   2.484   9.733  0.1824  0.0977  0.3810
  123loPI   C2B 1966   6.300   2.483   9.282 -0.1791 -0.0389 -0.2326
  123loPI   C3B 1967   6.342   2.531   8.815  0.1954  0.0403 -0.4110
  123loPI   C4B 1968   6.276   2.707   8.354 -0.1405 -0.2086 -0.1700
  124loPI    C1 1969   5.522  12.254  11.049 -0.0002 -0.2821 -0.0684
  124loPI    C2 1970   5.135  12.347  11.088  0.0220 -0.1276 -0.2063
  124loPI    C3 1971   5.349  12.243  11.410 -0.0621  0.0723 -0.0839
  124loPI   PO4 1972   5.548  12.359  10.832  0.1805  0.0098  0.2818
  124loPI   GL1 1973   5.698  12.323  10.340 -0.0011  0.0832 -0.0651
  124loPI   GL2 1974   5.478  12.183  10.356 -0.0026  0.2235  0.0360
  124loPI   C1A 1975   5.787  12.521  10.039 -0.3522 -0.1076  0.0664
  124loPI   C2A 1976   5.821  12.557   9.649 -0.0638  0.4048  0.0126
  124loPI   C3A 1977   5.740  12.555   9.180  0.0758  0.0782 -0.1561
  124loPI   C4A 1978   5.752  12.559   8.755  0.1075  0.2642 -0.1046
  124loPI   C5A 1979   5.659  12.625   8.343 -0.3433 -0.1231 -0.0334
  124loPI   C6A 1980   5.696  12.662   7.945  0.1257  0.0242  0.1728
  124loPI   C1B 1981   5.328  12.290   9.967 -0.1686  0.1619  0.2143
  124loPI   C2B 1982   5.365  12.410   9.591 -0.0301 -0.2791  0.5577
  124loPI   C3B 1983   5.233  12.447   9.174  0.0398  0.0498  0.0865
  124loPI   C4B 1984   5.268  12.444   8.737  0.0710  0.1468  0.2436
  125loPI    C1 1985  11.772   2.623  10.439  0.2936  0.1430  0.3028
  125loPI    C2 1986  11.659   2.510  10.806  0.0514  0.0829  0.2118
  125loPI    C3 1987  11.935   2.796  10.761  0.1874 -0.0099  0.4405
  125loPI   PO4 1988  11.660   2.729  10.139  0.2683  0.0416 -0.1688
  125loPI   GL1 1989  11.634   2.849   9.741  0.2516  0.0829  0.0286
  125loPI   GL2 1990  11.916   2.965   9.813 -0.1699  0.1095  0.2642
  125loPI   C1A 1991  11.567   2.831   9.344  0.0538  0.0269  0.0777
  125loPI   C2A 1992  11.479   2.791   8.927  0.0156 -0.0309  0.1035
  125loPI   C3A 1993  11.318   2.707   8.521  0.2383 -0.1737 -0.3841
  125loPI   C4A 1994  11.254   2.618   8.062  0.0104  0.1760 -0.0008
  125loPI   C5A 1995  11.230   2.322   7.671  0.1107 -0.1418  0.3500
  125loPI   C6A 1996  11.078   2.239   7.255  0.5563 -0.1347  0.0562
  125loPI   C1B 1997  12.071   2.954   9.411 -0.0344  0.0007  0.0241
  125loPI   C2B 1998  12.001   3.007   8.997  0.2506 -0.1696  0.2713
  125loPI   C3B 1999  11.931   3.001   8.553  0.1127  0.0816  0.1871
  125loPI   C4B 2000  12.129   3.162   8.223  0.1669 -0.2953 -0.0608
  126loPI    C1 2001  11.625   5.749  10.301  0.0432  0.0738 -0.1488
  126loPI    C2 2002  11.962   5.887  10.465  0.1314 -0.0727 -0.2046
  126loPI    C3 2003  11.633   5.846  10.689  0.0994  0.2377 -0.1903
  126loPI   PO4 2004  11.579   5.816  10.082  0.1910  0.1164 -0.1607
  126loPI   GL1 2005  11.542   5.569   9.726 -0.3093 -0.1656 -0.0823
  126loPI   GL2 2006  11.302   5.874   9.667 -0.2542 -0.2001 -0.1780
  126loPI   C1A 2007  11.551   5.675   9.292 -0.0627 -0.2029 -0.2687
  126loPI   C2A 2008  11.593   5.697   8.810 -0.0496  0.2083  0.0087
  126loPI   C3A 2009  11.612   5.742   8.397  0.1666  0.2976 -0.1711
  126loPI   C4A 2010  11.730   5.760   7.975  0.2375 -0.1462  0.1792
  126loPI   C5A 2011  11.852   6.107   7.684  0.0953  0.0389  0.2868
  126loPI   C6A 2012  11.683   6.387   7.361 -0.1165 -0.0024 -0.1645
  126loPI   C1B 2013  11.255   6.054   9.229  0.0380 -0.1305 -0.0128
  126loPI   C2B 2014  11.224   6.046   8.752  0.0977 -0.1971 -0.0531
  126loPI   C3B 2015  11.305   6.090   8.441 -0.1072 -0.2194  0.0757
  126loPI   C4B 2016  11.306   6.099   8.020 -0.0034 -0.3549  0.0115
  127loPI    C1 2017   6.905  18.134  11.124  0.2877  0.0990  0.0977
  127loPI    C2 2018   6.964  17.977  11.487 -0.4205  0.0474  0.2045
  127loPI    C3 2019   7.076  18.354  11.411  0.0445 -0.0524  0.3630
  127loPI   PO4 2020   6.897  18.033  10.988  0.0661  0.0609  0.0973
  127loPI   GL1 2021   6.790  18.007  10.561  0.0988 -0.0158 -0.1182
  127loPI   GL2 2022   6.649  17.632  10.562  0.1807 -0.1102 -0.2347
  127loPI   C1A 2023   6.641  17.954  10.134  0.2756  0.2317 -0.0992
  127loPI   C2A 2024   6.619  17.951   9.653  0.0850  0.2044  0.1081
  127loPI   C3A 2025   6.557  18.021   9.304  0.0683  0.0953 -0.0660
  127loPI   C4A 2026   6.545  17.867   8.886 -0.0155 -0.1131  0.1440
  127loPI   C5A 2027   6.459  18.054   8.416 -0.1517  0.1288 -0.1604
  127loPI   C6A 2028   6.478  17.961   7.988 -0.1406  0.1218 -0.1081
  127loPI   C1B 2029   6.525  17.520  10.123 -0.0321  0.2686  0.0717
  127loPI   C2B 2030   6.498  17.438   9.655  0.0260 -0.2150 -0.1184
  127loPI   C3B 2031   6.472  17.463   9.238 -0.1609 -0.1237 -0.1069
  127loPI   C4B 2032   6.350  17.447   8.815 -0.0730 -0.1422 -0.1724
  128loPI    C1 2033  13.760  14.416  10.771  0.0127  0.1510 -0.0305
  128loPI    C2 2034  13.883  14.475  11.147 -0.0767  0.3641 -0.0337
  128loPI    C3 2035  13.504  14.368  11.075  0.0060  0.0713 -0.0481
  128loPI   PO4 2036  13.980  14.464  10.660 -0.2186  0.1220  0.0978
  128loPI   GL1 2037  14.147  14.575  10.246 -0.3225 -0.1167 -0.1537
  128loPI   GL2 2038  14.181  14.305  10.178 -0.0356  0.0171  0.1238
  128loPI   C1A 2039  14.266  14.660   9.861 -0.2176 -0.1363 -0.1410
  128loPI   C2A 2040  14.250  14.717   9.461 -0.2319  0.0870 -0.0107
  128loPI   C3A 2041  14.105  14.709   9.103  0.0198 -0.1479 -0.0909
  128loPI   C4A 2042  14.183  14.745   8.664  0.0398 -0.1820 -0.2699
  128loPI   C5A 2043  14.097  14.687   8.226  0.1811 -0.0866 -0.1625
  128loPI   C6A 2044  14.158  14.768   7.876  0.1175 -0.0209  0.2331
  128loPI   C1B 2045  14.138  14.075   9.843 -0.1720  0.1583  0.1296
  128loPI   C2B 2046  14.158  14.205   9.313  0.0867 -0.0814  0.2122
  128loPI   C3B 2047  14.154  14.174   8.881  0.1420 -0.0763  0.2469
  128loPI   C4B 2048  14.125  14.186   8.402 -0.0879  0.0750  0.1462
  129loPI    C1 2049   4.744  17.802  11.019  0.2881 -0.1972  0.0092
  129loPI    C2 2050   4.831  17.473  11.228  0.1740 -0.0359  0.3167
  129loPI    C3 2051   4.874  17.833  11.395 -0.0242  0.0921  0.0987
  129loPI   PO4 2052   4.858  17.728  10.737 -0.0105  0.1899 -0.0030
  129loPI   GL1 2053   4.978  18.007  10.397  0.1676 -0.4913 -0.0644
  129loPI   GL2 2054   5.020  18.397  10.408 -0.1301 -0.2923  0.1760
  129loPI   C1A 2055   4.837  17.907  10.008  0.0697 -0.2227  0.5796
  129loPI   C2A 2056   4.757  17.940   9.566  0.0072 -0.1135  0.2954
  129loPI   C3A 2057   4.733  17.828   9.097  0.4636 -0.1535  0.0276
  129loPI   C4A 2058   4.706  17.880   8.682 -0.5022 -0.3064 -0.3395
  129loPI   C5A 2059   4.411  18.028   8.336 -0.2287 -0.1866 -0.1711
  129loPI   C6A 2060   4.428  17.990   7.898  0.0071  0.1455  0.2215
  129loPI   C1B 2061   4.914  18.402  10.002 -0.0283  0.1988 -0.0610
  129loPI   C2B 2062   4.902  18.407   9.507  0.0089 -0.0137  0.1575
  129loPI   C3B 2063   4.805  18.326   9.092  0.0015  0.1527 -0.2309
  129loPI   C4B 2064   4.780  18.322   8.610  0.1360 -0.1648  0.0015
  130loPI    C1 2065  11.910   2.044  10.592 -0.1450  0.0495 -0.1146
  130loPI    C2 2066  11.917   2.110  10.986 -0.3381 -0.2013 -0.0671
  130loPI    C3 2067  11.920   1.735  10.845  0.2643 -0.1132 -0.3202
  130loPI   PO4 2068  11.750   2.153  10.432 -0.4043 -0.0043  0.1365
  130loPI   GL1 2069  11.548   2.112  10.026 -0.1635  0.2469 -0.1208
  130loPI   GL2 2070  11.829   1.924   9.946 -0.0805 -0.0895 -0.2544
  130loPI   C1A 2071  11.439   2.356   9.655 -0.0396  0.0640  0.4249
  130loPI   C2A 2072  11.483   2.305   9.308 -0.1171 -0.1736 -0.0674
  130loPI   C3A 2073  11.469   2.285   8.843 -0.1263  0.2537 -0.1469
  130loPI   C4A 2074  11.300   2.215   8.453 -0.2829 -0.1791 -0.1092
  130loPI   C5A 2075  10.935   2.203   8.139  0.0998 -0.2927 -0.2127
  130loPI   C6A 2076  10.607   1.885   8.095 -0.3702 -0.1080 -0.1679
  130loPI   C1B 2077  11.812   1.944   9.467  0.0555  0.1295 -0.0284
  130loPI   C2B 2078  11.779   1.974   9.032  0.0304  0.0857 -0.0948
  130loPI   C3B 2079  11.793   1.913   8.577  0.1840  0.2090  0.0275
  130loPI   C4B 2080  11.599   2.064   8.104  0.2217  0.2171  0.2492
  131loPI    C1 2081   3.169  12.550  11.095 -0.2556  0.0150 -0.0250
  131loPI    C2 2082   3.153  12.254  11.364  0.0902 -0.0059 -0.0224
  131loPI    C3 2083   3.428  12.541  11.400 -0.0761  0.1750 -0.1709
  131loPI   PO4 2084   3.155  12.378  10.878  0.1386 -0.0985  0.2304
  131loPI   GL1 2085   3.122  12.535  10.471 -0.0886 -0.0453 -0.1302
  131loPI   GL2 2086   3.401  12.368  10.340  0.0400 -0.2640  0.0640
  131loPI   C1A 2087   3.108  12.682  10.059  0.0214 -0.2101 -0.1180
  131loPI   C2A 2088   3.157  12.582   9.698  0.0399 -0.1405  0.5202
  131loPI   C3A 2089   3.011  12.768   9.319 -0.2816 -0.1000  0.0113
  131loPI   C4A 2090   3.124  12.609   8.981  0.0098 -0.1777 -0.4179
  131loPI   C5A 2091   2.994  12.438   8.550  0.0979 -0.0339 -0.2327
  131loPI   C6A 2092   2.583  12.303   8.409 -0.1729  0.0959 -0.4616
  131loPI   C1B 2093   3.392  12.184   9.948 -0.1005 -0.0581 -0.1010
  131loPI   C2B 2094   3.460  12.221   9.625  0.0760  0.0302  0.0540
  131loPI   C3B 2095   3.454  12.274   9.168  0.0627  0.0578 -0.0087
  131loPI   C4B 2096   3.600  12.270   8.710 -0.0411 -0.4212 -0.0139
  132loPI    C1 2097  10.500   8.995  11.232  0.0579  0.0842 -0.0286
  132loPI    C2 2098  10.104   8.955  11.187  0.0742 -0.0990 -0.0170
  132loPI    C3 2099  10.269   8.913  11.548  0.0701  0.2854  0.0339
  132loPI   PO4 2100  10.552   8.965  10.911  0.0685  0.4159  0.1033
  132loPI   GL1 2101  10.472   9.011  10.582  0.0294  0.1698  0.1192
  132loPI   GL2 2102  10.405   8.736  10.398  0.0352  0.1673  0.2657
  132loPI   C1A 2103  10.725   9.239  10.286 -0.1830 -0.0016  0.3181
  132loPI   C2A 2104  10.630   9.342   9.832  0.0675 -0.0250 -0.1379
  132loPI   C3A 2105  10.608   9.370   9.467  0.0611  0.3615  0.0810
  132loPI   C4A 2106  10.671   9.312   9.086  0.1123 -0.0306  0.3653
  132loPI   C5A 2107  10.736   9.350   8.616 -0.0833  0.1130  0.0068
  132loPI   C6A 2108  10.948   9.488   8.288 -0.0515  0.2238  0.1814
  132loPI   C1B 2109  10.525   8.854   9.980 -0.2376  0.0086  0.1664
  132loPI   C2B 2110  10.577   8.681   9.595 -0.1161  0.4876  0.0232
  132loPI   C3B 2111  10.459   8.576   9.175  0.1353  0.1847  0.1408
  132loPI   C4B 2112  10.599   8.827   8.892  0.0172 -0.1490  0.0488
  133loPI    C1 2113   0.414  12.411  10.640 -0.1844  0.0775 -0.0717
  133loPI    C2 2114   0.120  12.429  10.911  0.0280  0.0543  0.1641
  133loPI    C3 2115   0.427  12.178  10.964  0.0467  0.0115 -0.1263
  133loPI   PO4 2116   0.351  12.459  10.430 -0.0511 -0.0227 -0.0383
  133loPI   GL1 2117   0.400  12.181  10.120 -0.0611 -0.4231  0.2269
  133loPI   GL2 2118   0.049  12.129  10.126 -0.0553 -0.2336  0.1737
  133loPI   C1A 2119   0.651  12.307   9.769  0.2245  0.0157  0.0009
  133loPI   C2A 2120   0.715  12.401   9.312  0.1773  0.1172  0.0886
  133loPI   C3A 2121   0.645  12.364   8.845 -0.0682 -0.2021 -0.3287
  133loPI   C4A 2122   0.760  12.427   8.396 -0.2276 -0.3316 -0.0730
  133loPI   C5A 2123   0.689  12.209   7.901 -0.0780  0.2117 -0.0561
  133loPI   C6A 2124   0.584  11.787   7.662 -0.1006 -0.2715  0.1791
  133loPI   C1B 2125   0.098  12.175   9.685  0.0353  0.1806  0.0962
  133loPI   C2B 2126   0.121  12.154   9.280 -0.1318  0.1982  0.3064
  133loPI   C3B 2127   0.118  12.218   8.802  0.2415  0.0891  0.1695
  133loPI   C4B 2128   0.255  12.189   8.412 -0.1197  0.0156  0.1321
  134loPI    C1 2129  11.563   6.575  10.414  0.0880  0.2531 -0.0023
  134loPI    C2 2130  11.397   6.702  10.754 -0.1008  0.0639 -0.0218
  134loPI    C3 2131  11.527   6.325  10.724  0.3324  0.2070 -0.0086
  134loPI   PO4 2132  11.515   6.703  10.253  0.0412  0.0833 -0.1434
  134loPI   GL1 2133  11.566   6.558   9.830  0.0368  0.3725  0.0350
  134loPI   GL2 2134  11.247   6.834   9.792 -0.2516 -0.1993  0.0974
  134loPI   C1A 2135  11.436   6.451   9.458 -0.1963 -0.2477 -0.2150
  134loPI   C2A 2136  11.409   6.623   9.084  0.0400  0.0277 -0.0411
  134loPI   C3A 2137  11.431   6.533   8.651 -0.1691  0.0392  0.0684
  134loPI   C4A 2138  11.402   6.593   8.191 -0.0086  0.1587  0.0220
  134loPI   C5A 2139  11.376   6.545   7.792 -0.3198 -0.0442  0.0040
  134loPI   C6A 2140  11.357   6.726   7.413  0.4877 -0.1243  0.0884
  134loPI   C1B 2141  11.025   6.893   9.420 -0.1721  0.0434  0.1723
  134loPI   C2B 2142  11.085   7.065   9.094 -0.0645 -0.2528 -0.1163
  134loPI   C3B 2143  11.140   6.923   8.613  0.3989 -0.0580  0.1350
  134loPI   C4B 2144  11.027   6.962   8.154  0.0321  0.1263  0.1227
  135loPI    C1 2145  10.000  10.256  10.995 -0.2375  0.1845 -0.0039
  135loPI    C2 2146  10.155  10.552  11.215  0.1199  0.0794 -0.1073
  135loPI    C3 2147   9.854  10.331  11.360  0.0755  0.2758  0.1055
  135loPI   PO4 2148  10.105  10.375  10.753 -0.2480 -0.0810  0.1681
  135loPI   GL1 2149  10.196  10.683  10.423 -0.3420  0.0623 -0.0565
  135loPI   GL2 2150   9.898  10.678  10.203 -0.1379  0.0965  0.3024
  135loPI   C1A 2151  10.468  10.744  10.111 -0.3614 -0.1187  0.1802
  135loPI   C2A 2152  10.506  10.711   9.660  0.0950  0.1901 -0.2120
  135loPI   C3A 2153  10.545  10.689   9.191  0.2970 -0.0257  0.0813
  135loPI   C4A 2154  10.576  10.728   8.787 -0.1600  0.1099  0.1752
  135loPI   C5A 2155  10.711  10.574   8.362 -0.2371 -0.0748 -0.0727
  135loPI   C6A 2156  10.579  10.492   8.043  0.0711  0.1549  0.0708
  135loPI   C1B 2157   9.942  10.406   9.813  0.0675 -0.1948 -0.0732
  135loPI   C2B 2158  10.060  10.453   9.448  0.0428 -0.1132  0.0003
  135loPI   C3B 2159  10.138  10.520   8.988 -0.0652 -0.2273  0.3470
  135loPI   C4B 2160  10.249  10.557   8.493  0.2511  0.2225 -0.0879
  136loPI    C1 2161   2.052   0.068  11.179 -0.0639  0.1245  0.2561
  136loPI    C2 2162   1.898  -0.291  11.092 -0.1550  0.2313 -0.0366
  136loPI    C3 2163   1.671  -0.014  11.268 -0.0772  0.1391  0.2131
  136loPI   PO4 2164   2.151   0.156  11.047 -0.0734  0.2067  0.2304
  136loPI   GL1 2165   2.219   0.240  10.614  0.1396  0.2105 -0.0088
  136loPI   GL2 2166   2.027   0.472  10.486  0.3145  0.1200  0.2679
  136loPI   C1A 2167   2.491   0.385  10.306 -0.1612  0.0550  0.4384
  136loPI   C2A 2168   2.549   0.547   9.921  0.2412  0.0092 -0.0161
  136loPI   C3A 2169   2.613   0.540   9.449  0.2098 -0.2371  0.0609
  136loPI   C4A 2170   2.594   0.568   9.092 -0.4437 -0.0651  0.1340
  136loPI   C5A 2171   2.677   0.540   8.620  0.1473  0.2762  0.2372
  136loPI   C6A 2172   2.987   0.476   8.384  0.0924 -0.0677  0.0513
  136loPI   C1B 2173   2.096   0.167  10.109 -0.2094 -0.0623 -0.1833
  136loPI   C2B 2174   2.121   0.357   9.665  0.0187  0.3237  0.0342
  136loPI   C3B 2175   2.158   0.367   9.218  0.2426 -0.1169  0.0322
  136loPI   C4B 2176   2.107   0.317   8.767 -0.1598 -0.1805  0.0853
  137loPI    C1 2177   8.614   5.421  10.842 -0.1629  0.1396 -0.2241
  137loPI    C2 2178   8.317   5.312  11.086  0.0127 -0.1480 -0.1334
  137loPI    C3 2179   8.690   5.344  11.227  0.0729 -0.0655 -0.3089
  137loPI   PO4 2180   8.623   5.293  10.713 -0.2371  0.0455 -0.0330
  137loPI   GL1 2181   8.406   5.309  10.271 -0.1814 -0.0005 -0.1894
  137loPI   GL2 2182   8.659   5.431  10.197 -0.1375  0.0494 -0.1008
  137loPI   C1A 2183   8.439   5.120   9.800  0.0124  0.1316  0.3924
  137loPI   C2A 2184   8.382   5.130   9.291 -0.0247  0.1390 -0.2749
  137loPI   C3A 2185   8.166   5.033   8.852  0.0217  0.0029 -0.1151
  137loPI   C4A 2186   7.894   5.232   8.309 -0.0336  0.0974 -0.0229
  137loPI   C5A 2187   7.603   5.104   8.038  0.0258  0.1405 -0.3525
  137loPI   C6A 2188   7.232   4.833   8.017 -0.0773  0.1386 -0.0667
  137loPI   C1B 2189   8.571   5.600   9.859  0.1419  0.1329 -0.1734
  137loPI   C2B 2190   8.326   5.698   9.416  0.1120 -0.0094 -0.2495
  137loPI   C3B 2191   8.309   5.677   8.968  0.1173 -0.0393  0.1901
  137loPI   C4B 2192   8.270   5.515   8.586 -0.0056 -0.1521  0.3295
  138loPI    C1 2193   8.734  10.188  10.677  0.4117  0.1777  0.0990
  138loPI    C2 2194   8.517  10.229  11.010  0.0026 -0.1826 -0.1132
  138loPI    C3 2195   8.502  10.510  10.725 -0.1401 -0.1769 -0.1007
  138loPI   PO4 2196   8.925  10.221  10.676  0.0294  0.2629 -0.1879
  138loPI   GL1 2197   9.169  10.270  10.290 -0.0375  0.3047  0.0423
  138loPI   GL2 2198   8.985  10.400  10.072  0.1835 -0.4215  0.0860
  138loPI   C1A 2199   9.426   9.965  10.194  0.4591 -0.1017 -0.1657
  138loPI   C2A 2200   9.444   9.816   9.806 -0.0092 -0.0514 -0.0718
  138loPI   C3A 2201   9.456   9.795   9.233  0.1007 -0.2450 -0.1214
  138loPI   C4A 2202   9.494   9.900   8.853  0.1348 -0.3252 -0.3983
  138loPI   C5A 2203   9.420   9.961   8.408 -0.1286 -0.0224  0.0079
  138loPI   C6A 2204   9.599   9.818   7.984 -0.4431  0.3408  0.0952
  138loPI   C1B 2205   8.943  10.274   9.673 -0.3177 -0.1586 -0.1567
  138loPI   C2B 2206   8.949  10.150   9.251  0.3170 -0.2529 -0.0782
  138loPI   C3B 2207   9.041  10.129   8.791 -0.2393 -0.0181 -0.0122
  138loPI   C4B 2208   8.949  10.065   8.401  0.3152  0.0530  0.3945
  139loPI    C1 2209   0.518   9.227  10.684  0.2030  0.1953  0.1780
  139loPI    C2 2210   0.120   9.198  10.702  0.1859  0.2451 -0.0808
  139loPI    C3 2211   0.341   9.120  11.026 -0.0169 -0.0596 -0.0122
  139loPI   PO4 2212   0.578   9.283  10.480  0.0510 -0.0621  0.2504
  139loPI   GL1 2213   0.450   9.346  10.087  0.0149 -0.0888  0.1140
  139loPI   GL2 2214   0.173   9.447  10.257 -0.0666 -0.1103  0.2210
  139loPI   C1A 2215   0.459   9.257   9.634 -0.2599 -0.1428  0.0138
  139loPI   C2A 2216   0.500   9.450   9.283 -0.0757  0.2461  0.1669
  139loPI   C3A 2217   0.632   9.526   8.930 -0.2230 -0.1007 -0.2421
  139loPI   C4A 2218   0.545   9.584   8.450 -0.1116  0.1814  0.0908
  139loPI   C5A 2219   0.254   9.860   8.109  0.0174 -0.1308 -0.0447
  139loPI   C6A 2220   0.022  10.161   7.833  0.4370  0.1982 -0.0847
  139loPI   C1B 2221   0.097   9.586   9.852  0.0911  0.2717 -0.1159
  139loPI   C2B 2222   0.066   9.710   9.393 -0.0889 -0.0168  0.0697
  139loPI   C3B 2223   0.213   9.936   9.016 -0.1722  0.1408  0.2164
  139loPI   C4B 2224   0.179   9.951   8.608  0.1129 -0.1784 -0.1893
  140loPI    C1 2225   9.009  13.294  11.099 -0.1115 -0.0242  0.1556
  140loPI    C2 2226   9.309  13.234  11.356 -0.0302 -0.1938  0.0235
  140loPI    C3 2227   8.947  13.082  11.433  0.0503 -0.4373 -0.0686
  140loPI   PO4 2228   9.080  13.342  10.874 -0.0083  0.1593 -0.3472
  140loPI   GL1 2229   9.174  13.221  10.475  0.0684  0.3167  0.2697
  140loPI   GL2 2230   9.455  12.858  10.322  0.1857  0.1321  0.0835
  140loPI   C1A 2231   9.255  13.308  10.072  0.3152 -0.0116 -0.2420
  140loPI   C2A 2232   9.283  13.206   9.589 -0.2059  0.0618  0.2446
  140loPI   C3A 2233   9.136  13.142   9.131  0.0702 -0.2070 -0.1570
  140loPI   C4A 2234   9.115  13.210   8.657  0.1611 -0.0655  0.3416
  140loPI   C5A 2235   8.950  13.272   8.324 -0.1709  0.0842  0.1061
  140loPI   C6A 2236   8.735  13.520   8.115 -0.2792 -0.1238 -0.0647
  140loPI   C1B 2237   9.623  12.851   9.963  0.0330  0.1283 -0.3138
  140loPI   C2B 2238   9.671  12.785   9.528  0.1714  0.0632 -0.2075
  140loPI   C3B 2239   9.461  12.765   9.019 -0.5012  0.2055 -0.1172
  140loPI   C4B 2240   9.479  12.939   8.526  0.0890  0.1068 -0.0737
  141loPI    C1 2241   1.601   2.439  11.181 -0.3418 -0.0507 -0.1994
  141loPI    C2 2242   1.807   2.615  10.886 -0.1016 -0.0970 -0.0618
  141loPI    C3 2243   1.476   2.788  11.030  0.0042  0.1275 -0.0839
  141loPI   PO4 2244   1.532   2.265  11.120 -0.0125 -0.0993 -0.0405
  141loPI   GL1 2245   1.374   2.191  10.718 -0.0930 -0.0011 -0.1739
  141loPI   GL2 2246   1.309   2.426  10.600 -0.1691  0.1579 -0.2521
  141loPI   C1A 2247   1.608   2.011  10.360 -0.2028 -0.1282  0.5369
  141loPI   C2A 2248   1.619   2.137   9.865 -0.3064 -0.1323 -0.0106
  141loPI   C3A 2249   1.665   2.108   9.444 -0.1702  0.1419 -0.1067
  141loPI   C4A 2250   1.657   2.042   8.933 -0.2386  0.2288  0.0942
  141loPI   C5A 2251   1.384   2.223   8.540  0.0958  0.0837 -0.0883
  141loPI   C6A 2252   1.159   2.399   8.240  0.3341 -0.0965 -0.0417
  141loPI   C1B 2253   1.276   2.417  10.182 -0.1881  0.1514  0.0339
  141loPI   C2B 2254   1.228   2.486   9.804 -0.3606 -0.1132 -0.0709
  141loPI   C3B 2255   1.237   2.486   9.378 -0.0025 -0.3111  0.0752
  141loPI   C4B 2256   1.125   2.388   8.959 -0.2053 -0.1893 -0.1137
  142loPI    C1 2257   1.879  13.223  10.785 -0.1202  0.0492  0.3810
  142loPI    C2 2258   2.084  12.880  10.797 -0.0816  0.0591  0.0818
  142loPI    C3 2259   1.906  13.018  11.128  0.1457 -0.0994  0.2739
  142loPI   PO4 2260   2.076  13.324  10.593 -0.0058 -0.0744 -0.1407
  142loPI   GL1 2261   1.927  13.609  10.331  0.0543 -0.0573 -0.2262
  142loPI   GL2 2262   2.147  13.875  10.362  0.0031  0.0171  0.2706
  142loPI   C1A 2263   1.850  13.736   9.936 -0.2031 -0.0735  0.1618
  142loPI   C2A 2264   1.917  13.758   9.493  0.1515  0.2507  0.0389
  142loPI   C3A 2265   1.904  13.701   9.023  0.1403 -0.0687  0.2831
  142loPI   C4A 2266   2.007  13.699   8.582 -0.2028 -0.3553  0.0518
  142loPI   C5A 2267   1.913  13.980   8.215  0.1995  0.1495  0.2070
  142loPI   C6A 2268   1.646  14.283   8.020 -0.1388 -0.2525  0.1338
  142loPI   C1B 2269   2.353  13.958   9.959 -0.1716 -0.0589 -0.0143
  142loPI   C2B 2270   2.380  13.863   9.521 -0.0462 -0.0788  0.0115
  142loPI   C3B 2271   2.377  13.798   9.109 -0.4714  0.3097 -0.1098
  142loPI   C4B 2272   2.459  13.789   8.745  0.1557  0.5285  0.1296
  143loPI    C1 2273  12.307   3.326  10.451 -0.0112 -0.2368  0.1260
  143loPI    C2 2274  12.154   3.646  10.636 -0.1127 -0.1016 -0.1849
  143loPI    C3 2275  11.961   3.296  10.649 -0.0853 -0.1101  0.0178
  143loPI   PO4 2276  12.250   3.432  10.202  0.1931 -0.0045 -0.1461
  143loPI   GL1 2277  12.401   3.516   9.769 -0.0869  0.1372 -0.1597
  143loPI   GL2 2278  12.107   3.372   9.689  0.0674 -0.2174  0.0417
  143loPI   C1A 2279  12.627   3.734   9.412  0.1256 -0.2143 -0.0570
  143loPI   C2A 2280  12.932   3.933   9.130 -0.2435 -0.0319  0.3645
  143loPI   C3A 2281  13.222   4.262   8.920 -0.1178 -0.2126 -0.3375
  143loPI   C4A 2282  13.151   4.252   8.450 -0.2815  0.1616 -0.1196
  143loPI   C5A 2283  13.061   3.989   8.145 -0.1802 -0.1603 -0.1837
  143loPI   C6A 2284  12.864   3.768   7.778 -0.0073  0.0574  0.0805
  143loPI   C1B 2285  12.186   3.538   9.241  0.1693  0.0545 -0.0624
  143loPI   C2B 2286  12.042   3.463   8.822 -0.1514 -0.0267  0.2419
  143loPI   C3B 2287  12.286   3.575   8.491  0.0112  0.0456  0.0514
  143loPI   C4B 2288  12.653   3.695   8.247  0.0548 -0.1164 -0.1557
  144loPI    C1 2289   7.006  10.679  10.481 -0.0951  0.0542 -0.1876
  144loPI    C2 2290   6.877  10.641  10.857  0.2041  0.0245 -0.0848
  144loPI    C3 2291   6.627  10.770  10.572 -0.0158  0.0795  0.1285
  144loPI   PO4 2292   7.163  10.396  10.279  0.1891  0.3332 -0.1602
  144loPI   GL1 2293   7.326  10.236   9.908  0.0275 -0.0375  0.0262
  144loPI   GL2 2294   7.614  10.328   9.890 -0.1453  0.0097  0.1767
  144loPI   C1A 2295   7.146  10.117   9.587 -0.1237  0.2972 -0.2331
  144loPI   C2A 2296   7.172  10.020   9.224 -0.1114 -0.2172  0.2561
  144loPI   C3A 2297   7.147  10.105   8.835 -0.0415 -0.2523  0.1889
  144loPI   C4A 2298   7.211  10.360   8.454  0.0198  0.0519 -0.0215
  144loPI   C5A 2299   7.439  10.682   8.306 -0.1742 -0.1133 -0.2810
  144loPI   C6A 2300   7.792  10.958   8.112  0.1484  0.0742  0.2328
  144loPI   C1B 2301   7.633  10.181   9.448  0.0765 -0.0324  0.1208
  144loPI   C2B 2302   7.715  10.290   8.985  0.0460  0.0419 -0.1143
  144loPI   C3B 2303   7.716  10.322   8.545  0.2714 -0.1018 -0.1623
  144loPI   C4B 2304   7.839  10.450   8.177  0.1222  0.1522 -0.1880
  145loPI    C1 2305   9.923   7.308  10.565  0.1174  0.0193 -0.2798
  145loPI    C2 2306   9.571   7.483  10.487  0.0005 -0.0980 -0.0278
  145loPI    C3 2307   9.716   7.482  10.859  0.1905 -0.1931 -0.1003
  145loPI   PO4 2308  10.138   7.383  10.402 -0.1985 -0.3655  0.2652
  145loPI   GL1 2309  10.266   7.293   9.993  0.1997 -0.1154 -0.0271
  145loPI   GL2 2310  10.221   7.093   9.901  0.1369 -0.0105 -0.1717
  145loPI   C1A 2311  10.324   7.646   9.714  0.4356 -0.0206  0.0323
  145loPI   C2A 2312  10.350   7.663   9.298 -0.4044 -0.3241 -0.1111
  145loPI   C3A 2313  10.366   7.641   8.825  0.0717 -0.0514 -0.4883
  145loPI   C4A 2314  10.374   7.827   8.415  0.1346  0.2666  0.1755
  145loPI   C5A 2315  10.618   8.236   8.248 -0.1382 -0.0659  0.1070
  145loPI   C6A 2316  10.869   8.535   7.963  0.3041 -0.1445  0.3533
  145loPI   C1B 2317  10.102   7.189   9.496 -0.0134  0.0950 -0.1270
  145loPI   C2B 2318  10.144   7.220   9.087 -0.3295 -0.1281 -0.1127
  145loPI   C3B 2319  10.145   7.224   8.632 -0.0911  0.0411 -0.1944
  145loPI   C4B 2320  10.156   7.305   8.229 -0.2617 -0.1598  0.3021
  146loPI    C1 2321   7.632   2.870  10.806 -0.3135  0.2578 -0.1062
  146loPI    C2 2322   7.905   3.163  10.791  0.0375 -0.0446  0.1780
  146loPI    C3 2323   7.618   3.171  11.069 -0.0946  0.1448  0.0384
  146loPI   PO4 2324   7.652   2.727  10.580 -0.1443  0.3132  0.0045
  146loPI   GL1 2325   7.656   2.482  10.243 -0.3903 -0.1081  0.2658
  146loPI   GL2 2326   7.655   2.207  10.207 -0.0456  0.2458 -0.3581
  146loPI   C1A 2327   7.776   2.676   9.823 -0.0970 -0.1864 -0.4014
  146loPI   C2A 2328   7.731   2.534   9.372 -0.4447  0.2983 -0.0793
  146loPI   C3A 2329   7.570   2.477   8.954  0.0956 -0.1232 -0.1950
  146loPI   C4A 2330   7.553   2.391   8.540  0.1103  0.0184  0.1580
  146loPI   C5A 2331   7.521   2.346   8.005  0.2679  0.1792  0.1357
  146loPI   C6A 2332   7.185   2.227   7.809  0.2627  0.1061 -0.0532
  146loPI   C1B 2333   7.694   2.164   9.798  0.1561 -0.1938 -0.0489
  146loPI   C2B 2334   7.489   1.976   9.404 -0.1265 -0.0830  0.1095
  146loPI   C3B 2335   7.484   1.979   8.949 -0.0564  0.3122 -0.1605
  146loPI   C4B 2336   7.464   1.794   8.610 -0.0856  0.1429 -0.0829
  147loPI    C1 2337  16.236   0.856  10.863 -0.3766 -0.3244 -0.0340
  147loPI    C2 2338  15.885   0.955  11.027 -0.1027  0.3395  0.1862
  147loPI    C3 2339  16.208   0.908  11.259 -0.0139 -0.1555 -0.0258
  147loPI   PO4 2340  16.254   0.927  10.663  0.1444  0.1797  0.1186
  147loPI   GL1 2341  16.005   0.987  10.261 -0.1998 -0.2757 -0.2010
  147loPI   GL2 2342  15.753   0.897  10.062 -0.0822 -0.0064  0.2460
  147loPI   C1A 2343  16.246   1.027   9.917  0.2881 -0.0167  0.0653
  147loPI   C2A 2344  16.288   1.006   9.485 -0.0638  0.2342  0.0652
  147loPI   C3A 2345  16.160   0.917   8.997  0.0338  0.0078 -0.0168
  147loPI   C4A 2346  16.088   0.923   8.648 -0.2280 -0.1027 -0.1166
  147loPI   C5A 2347  16.114   0.920   8.185 -0.2853  0.0703  0.0724
  147loPI   C6A 2348  15.907   0.928   7.845 -0.2693 -0.1900 -0.0568
  147loPI   C1B 2349  15.858   0.887   9.641  0.0598 -0.0669  0.1969
  147loPI   C2B 2350  15.686   0.848   9.283 -0.0046  0.1829  0.0001
  147loPI   C3B 2351  15.596   0.801   8.804  0.2969 -0.4716  0.1984
  147loPI   C4B 2352  15.629   0.797   8.359 -0.0933  0.0081 -0.4949
  148loPI    C1 2353  14.548  14.740  10.750  0.2428  0.1576  0.1796
  148loPI    C2 2354  14.293  14.974  10.549  0.2431  0.0125  0.0086
  148loPI    C3 2355  14.191  14.827  10.907  0.0530 -0.1096 -0.0943
  148loPI   PO4 2356  14.567  14.490  10.529  0.4178 -0.0754 -0.0956
  148loPI   GL1 2357  14.888  14.200  10.282  0.0307 -0.2876 -0.0744
  148loPI   GL2 2358  14.662  13.965  10.273  0.1068 -0.0027  0.3455
  148loPI   C1A 2359  14.571  14.275   9.865 -0.1170  0.1885 -0.0388
  148loPI   C2A 2360  14.603  14.260   9.502  0.0111  0.0164  0.1679
  148loPI   C3A 2361  14.494  14.467   9.082 -0.2566  0.1964  0.0016
  148loPI   C4A 2362  14.558  14.413   8.615  0.2793  0.2878  0.0179
  148loPI   C5A 2363  14.583  14.376   8.245 -0.3541 -0.1962 -0.1064
  148loPI   C6A 2364  14.472  14.380   7.850  0.0168  0.0237 -0.1411
  148loPI   C1B 2365  14.471  13.744   9.896 -0.4421  0.1682 -0.6153
  148loPI   C2B 2366  14.452  13.732   9.499 -0.2493 -0.0772 -0.1026
  148loPI   C3B 2367  14.547  13.853   9.134  0.0792  0.0417 -0.3516
  148loPI   C4B 2368  14.559  13.916   8.683  0.2393  0.1430 -0.3586
  149loPI    C1 2369  17.677  13.975  11.176 -0.1510  0.3319 -0.0353
  149loPI    C2 2370  17.685  14.368  11.102  0.0538  0.4173  0.4059
  149loPI    C3 2371  17.554  14.233  11.455 -0.1495  0.0762  0.2066
  149loPI   PO4 2372  17.899  13.767  10.914 -0.0304  0.3675 -0.2130
  149loPI   GL1 2373  17.997  13.834  10.505 -0.0163 -0.1422  0.1493
  149loPI   GL2 2374  18.251  13.642  10.232 -0.2159  0.1038 -0.0062
  149loPI   C1A 2375  17.925  13.950  10.079 -0.2968  0.3031 -0.3120
  149loPI   C2A 2376  17.892  13.965   9.671 -0.1145 -0.2693  0.0497
  149loPI   C3A 2377  17.903  14.010   9.211 -0.1246 -0.0278 -0.0404
  149loPI   C4A 2378  17.791  14.079   8.768 -0.0017  0.0121  0.1883
  149loPI   C5A 2379  17.753  14.140   8.270  0.1001 -0.1943  0.3211
  149loPI   C6A 2380  17.759  14.092   7.808  0.0276  0.0197 -0.3156
  149loPI   C1B 2381  18.291  13.638   9.728  0.0756 -0.1879 -0.0367
  149loPI   C2B 2382  18.258  13.633   9.313 -0.0941  0.1343  0.0764
  149loPI   C3B 2383  18.267  13.718   8.837 -0.3864 -0.1460 -0.3382
  149loPI   C4B 2384  18.190  13.657   8.434 -0.1847 -0.3704 -0.0735
  150loPI    C1 2385   3.872  11.568  10.982 -0.1808  0.0560 -0.1130
  150loPI    C2 2386   4.144  11.531  10.692 -0.1563  0.1559 -0.1033
  150loPI    C3 2387   4.260  11.623  11.063 -0.1840 -0.0087 -0.0531
  150loPI   PO4 2388   3.724  11.716  10.860  0.0980 -0.1862  0.3692
  150loPI   GL1 2389   3.461  11.582  10.523  0.2202  0.4143  0.0803
  150loPI   GL2 2390   3.658  11.918  10.414 -0.1068  0.1178  0.1379
  150loPI   C1A 2391   3.316  11.681  10.114  0.0012  0.2385 -0.1977
  150loPI   C2A 2392   3.350  11.724   9.645 -0.0575  0.0725 -0.3028
  150loPI   C3A 2393   3.313  11.798   9.193 -0.0791 -0.2388 -0.1224
  150loPI   C4A 2394   3.453  11.772   8.787  0.1481 -0.5575 -0.0117
  150loPI   C5A 2395   3.391  11.705   8.345 -0.0494 -0.2263 -0.0195
  150loPI   C6A 2396   3.256  11.609   8.024 -0.4298  0.2976  0.2667
  150loPI   C1B 2397   3.807  11.890   9.929 -0.1595  0.3569  0.0551
  150loPI   C2B 2398   3.852  11.989   9.467  0.0064 -0.1201  0.0547
  150loPI   C3B 2399   3.856  11.960   9.039 -0.0156 -0.0136  0.0142
  150loPI   C4B 2400   3.960  11.913   8.642  0.1074  0.2243 -0.1463
  151loPI    C1 2401  18.043   1.481  11.324 -0.1989 -0.2619  0.1066
  151loPI    C2 2402  17.817   1.555  11.646 -0.0720  0.1684  0.1030
  151loPI    C3 2403  18.190   1.415  11.690 -0.1157  0.0608  0.1340
  151loPI   PO4 2404  17.947   1.600  11.168  0.1658 -0.4890 -0.2691
  151loPI   GL1 2405  17.972   1.661  10.770 -0.2237  0.3387 -0.3709
  151loPI   GL2 2406  18.090   1.424  10.575  0.2258  0.3088  0.0556
  151loPI   C1A 2407  17.914   1.923  10.456 -0.2139 -0.0434  0.0663
  151loPI   C2A 2408  17.949   1.933  10.084  0.0014 -0.1092 -0.1806
  151loPI   C3A 2409  17.939   1.866   9.647  0.0059 -0.4207  0.0545
  151loPI   C4A 2410  17.880   1.871   9.175  0.0001  0.1459  0.0015
  151loPI   C5A 2411  17.975   1.962   8.788  0.1066 -0.0623 -0.0402
  151loPI   C6A 2412  17.958   2.227   8.430 -0.3134 -0.0930 -0.0808
  151loPI   C1B 2413  18.292   1.563  10.188  0.2881  0.1812  0.0122
  151loPI   C2B 2414  18.245   1.525   9.829  0.0747 -0.2910  0.1447
  151loPI   C3B 2415  18.214   1.548   9.395 -0.2803  0.4479  0.0339
  151loPI   C4B 2416  18.233   1.604   9.006 -0.5510 -0.0180 -0.0133
  152loPI    C1 2417   0.284  15.338  10.857  0.1437  0.0133  0.1121
  152loPI    C2 2418   0.264  15.052  11.136  0.0801 -0.0732  0.0196
  152loPI    C3 2419   0.127  15.419  11.215 -0.0668 -0.1352  0.0549
  152loPI   PO4 2420   0.118  15.283  10.686 -0.1554  0.1181  0.0342
  152loPI   GL1 2421   0.423  15.097  10.401  0.0605 -0.0801  0.4698
  152loPI   GL2 2422   0.580  14.759  10.299  0.0902  0.0907  0.1263
  152loPI   C1A 2423   0.417  15.200   9.999 -0.4853 -0.3118  0.0290
  152loPI   C2A 2424   0.301  15.192   9.521 -0.0822  0.0363 -0.2488
  152loPI   C3A 2425   0.344  15.157   9.047  0.2560 -0.0151  0.0545
  152loPI   C4A 2426   0.339  15.295   8.643 -0.1136 -0.0790 -0.1518
  152loPI   C5A 2427   0.135  15.047   8.279 -0.2339  0.0885  0.0653
  152loPI   C6A 2428   0.288  14.636   8.173  0.1267  0.0353 -0.0912
  152loPI   C1B 2429   0.217  14.702   9.949  0.0763 -0.0683  0.1322
  152loPI   C2B 2430   0.301  14.676   9.511 -0.2838 -0.2634 -0.2955
  152loPI   C3B 2431   0.252  14.637   9.108  0.1399 -0.3223  0.0264
  152loPI   C4B 2432   0.153  14.786   8.739 -0.3736 -0.0981 -0.1596
  153loPI    C1 2433   4.528   3.570  11.238  0.1993  0.3853 -0.0831
  153loPI    C2 2434   4.189   3.689  11.414  0.0049 -0.0053 -0.1829
  153loPI    C3 2435   4.471   3.501  11.628  0.0140  0.0232 -0.1698
  153loPI   PO4 2436   4.440   3.493  10.908  0.1832  0.1487  0.1457
  153loPI   GL1 2437   4.517   3.703  10.556  0.1127 -0.4246 -0.2732
  153loPI   GL2 2438   4.686   3.429  10.437 -0.1060  0.0979  0.0381
  153loPI   C1A 2439   4.301   3.766  10.192  0.1330 -0.0105 -0.1484
  153loPI   C2A 2440   4.255   3.880   9.768 -0.1055 -0.1946 -0.0473
  153loPI   C3A 2441   4.258   3.840   9.343 -0.1018 -0.1880 -0.1109
  153loPI   C4A 2442   4.203   3.850   8.928  0.0096 -0.0972  0.4806
  153loPI   C5A 2443   4.209   4.138   8.521  0.1505  0.0594  0.0084
  153loPI   C6A 2444   4.224   4.537   8.464 -0.1093 -0.1367 -0.2024
  153loPI   C1B 2445   4.623   3.392  10.046  0.1434  0.0171 -0.2455
  153loPI   C2B 2446   4.695   3.429   9.601 -0.4023  0.0551 -0.2473
  153loPI   C3B 2447   4.606   3.557   9.142 -0.0862  0.1469 -0.3087
  153loPI   C4B 2448   4.636   3.545   8.698  0.1430 -0.2687 -0.4950
  154loPI    C1 2449   1.199   9.002  11.158  0.0937  0.0848  0.0113
  154loPI    C2 2450   1.393   9.021  11.508  0.3090  0.1865 -0.1118
  154loPI    C3 2451   1.026   9.177  11.473  0.2038 -0.0041  0.1223
  154loPI   PO4 2452   1.313   8.900  10.917 -0.0387  0.1028  0.0636
  154loPI   GL1 2453   1.356   8.940  10.464 -0.1032 -0.0099 -0.0637
  154loPI   GL2 2454   1.667   8.917  10.417  0.2687 -0.1351  0.0051
  154loPI   C1A 2455   1.256   9.122  10.095  0.1348 -0.3252  0.3280
  154loPI   C2A 2456   1.299   9.348   9.686 -0.0166 -0.2504 -0.2084
  154loPI   C3A 2457   1.385   9.264   9.218  0.0412 -0.4897  0.2957
  154loPI   C4A 2458   1.426   9.413   8.857  0.0091 -0.0627  0.2088
  154loPI   C5A 2459   1.465   9.482   8.356 -0.0582  0.1627 -0.1183
  154loPI   C6A 2460   1.092   9.359   8.136  0.1653 -0.0756 -0.3534
  154loPI   C1B 2461   1.631   8.764   9.997  0.2961 -0.2196 -0.0552
  154loPI   C2B 2462   1.687   8.776   9.528  0.1896  0.0362 -0.3312
  154loPI   C3B 2463   1.777   8.934   9.188  0.0761  0.2349  0.1634
  154loPI   C4B 2464   1.755   9.068   8.727  0.0068 -0.1898 -0.2521
  155loPI    C1 2465  11.063   0.873  10.707  0.1454 -0.0624  0.0488
  155loPI    C2 2466  11.131   0.497  10.825 -0.1710 -0.0935  0.1425
  155loPI    C3 2467  11.372   0.792  10.947 -0.0189 -0.2411  0.2035
  155loPI   PO4 2468  11.034   0.840  10.470 -0.0813 -0.1476  0.1859
  155loPI   GL1 2469  11.195   0.843   9.974 -0.1329 -0.0309 -0.0367
  155loPI   GL2 2470  11.066   0.564   9.940  0.2198  0.2771  0.2601
  155loPI   C1A 2471  11.075   0.851   9.556 -0.4859 -0.1384 -0.1151
  155loPI   C2A 2472  10.997   0.604   9.098 -0.1603  0.2802 -0.2506
  155loPI   C3A 2473  10.916   0.554   8.668 -0.1149  0.1579 -0.0603
  155loPI   C4A 2474  11.198   0.554   8.267 -0.2338 -0.0134  0.1482
  155loPI   C5A 2475  11.341   0.764   7.973  0.0651 -0.0009  0.0923
  155loPI   C6A 2476  11.788   0.902   7.772 -0.0608  0.0576  0.3355
  155loPI   C1B 2477  10.912   0.372   9.623  0.0145 -0.1838 -0.3149
  155loPI   C2B 2478  10.899   0.107   9.321  0.2428 -0.0687  0.2653
  155loPI   C3B 2479  10.820   0.131   8.982 -0.3187  0.3325  0.0186
  155loPI   C4B 2480  10.803   0.042   8.525  0.1464 -0.0870 -0.2915
  156loPI    C1 2481  15.354  13.481  10.569 -0.0805 -0.4593 -0.0879
  156loPI    C2 2482  15.137  13.253  10.816 -0.3328  0.0179  0.1439
  156loPI    C3 2483  15.267  13.612  10.936  0.0967 -0.0137 -0.1984
  156loPI   PO4 2484  15.418  13.243  10.353  0.2203 -0.2088 -0.1248
  156loPI   GL1 2485  15.635  13.241  10.012 -0.1964  0.1454 -0.1755
  156loPI   GL2 2486  15.586  13.616  10.061  0.0282 -0.1480  0.1655
  156loPI   C1A 2487  15.741  13.318   9.556  0.1253 -0.2613  0.0057
  156loPI   C2A 2488  15.746  13.308   9.129 -0.1614  0.0919  0.0617
  156loPI   C3A 2489  15.857  13.449   8.714 -0.0976 -0.0248  0.0088
  156loPI   C4A 2490  15.732  13.347   8.325  0.3875 -0.0209  0.1000
  156loPI   C5A 2491  15.551  13.392   7.792  0.1335  0.2798  0.0788
  156loPI   C6A 2492  15.456  13.246   7.418  0.0339 -0.1693  0.2280
  156loPI   C1B 2493  15.403  13.685   9.668 -0.2913  0.1478  0.2182
  156loPI   C2B 2494  15.338  13.684   9.302 -0.0323  0.1844  0.1540
  156loPI   C3B 2495  15.449  13.734   8.789 -0.1639  0.0440  0.0641
  156loPI   C4B 2496  15.414  13.776   8.359 -0.0600 -0.0125  0.0485
  157loPI    C1 2497  12.100   7.117  10.118 -0.1346 -0.1026  0.0651
  157loPI    C2 2498  12.215   6.881  10.419 -0.1104  0.1345  0.2446
  157loPI    C3 2499  11.970   6.740  10.137 -0.0011 -0.1392  0.2835
  157loPI   PO4 2500  12.389   7.216  10.032 -0.1040 -0.0016 -0.0780
  157loPI   GL1 2501  12.541   7.465   9.688 -0.3824  0.3065 -0.2573
  157loPI   GL2 2502  12.655   7.461   9.379 -0.1187  0.0070 -0.0412
  157loPI   C1A 2503  12.278   7.794   9.480  0.1411 -0.4873  0.2866
  157loPI   C2A 2504  12.140   7.870   9.028 -0.2284 -0.0107 -0.2466
  157loPI   C3A 2505  12.091   7.860   8.571  0.0792 -0.0157  0.1752
  157loPI   C4A 2506  12.184   7.810   8.200  0.0744  0.0810 -0.0842
  157loPI   C5A 2507  12.232   7.894   7.767  0.2426  0.1020  0.1247
  157loPI   C6A 2508  12.063   8.249   7.516 -0.4563  0.1533 -0.0530
  157loPI   C1B 2509  12.705   7.478   8.816  0.3157  0.1887 -0.0737
  157loPI   C2B 2510  12.539   7.468   8.394 -0.0279 -0.2921 -0.1808
  157loPI   C3B 2511  12.445   7.426   7.945  0.0140  0.3090 -0.1382
  157loPI   C4B 2512  12.234   7.177   7.671  0.2697  0.0055 -0.3246
  158loPI    C1 2513   4.052   5.042  11.034 -0.3438  0.2405 -0.2079
  158loPI    C2 2514   4.302   5.051  11.346 -0.2430 -0.1455 -0.2729
  158loPI    C3 2515   3.995   5.307  11.328 -0.0483  0.1107 -0.0300
  158loPI   PO4 2516   4.230   5.071  10.849  0.0286 -0.0726  0.0125
  158loPI   GL1 2517   4.463   4.779  10.556 -0.2608  0.0384 -0.0467
  158loPI   GL2 2518   4.122   4.750  10.482 -0.0689  0.1100  0.0424
  158loPI   C1A 2519   4.570   4.884  10.140 -0.3695 -0.1323  0.1063
  158loPI   C2A 2520   4.654   4.952   9.751 -0.1006  0.1697 -0.1370
  158loPI   C3A 2521   4.504   4.846   9.345 -0.2296  0.3072 -0.1653
  158loPI   C4A 2522   4.484   4.827   8.875  0.0434  0.0528  0.2087
  158loPI   C5A 2523   4.443   5.004   8.441 -0.1712 -0.2700  0.0102
  158loPI   C6A 2524   4.636   5.190   8.064  0.1154 -0.1127  0.1325
  158loPI   C1B 2525   4.121   4.735  10.001 -0.0660 -0.2151  0.3460
  158loPI   C2B 2526   4.043   4.810   9.674 -0.1319 -0.2244  0.3032
  158loPI   C3B 2527   4.025   4.748   9.237  0.1926  0.0522 -0.2058
  158loPI   C4B 2528   3.974   4.769   8.826  0.1868  0.1934  0.0101
  159loPI    C1 2529   2.878   7.596  10.902 -0.0059  0.1992  0.0205
  159loPI    C2 2530   2.993   7.934  11.081  0.3113  0.1976 -0.1722
  159loPI    C3 2531   3.189   7.593  11.154  0.0100  0.0584  0.0000
  159loPI   PO4 2532   2.695   7.749  10.739  0.0923 -0.1593 -0.0040
  159loPI   GL1 2533   2.677   7.814  10.361  0.0048  0.1369 -0.0481
  159loPI   GL2 2534   3.049   7.780  10.351 -0.2855  0.0344  0.0237
  159loPI   C1A 2535   2.778   7.711   9.960  0.0585  0.0636  0.0813
  159loPI   C2A 2536   2.828   7.794   9.584  0.2133  0.2068  0.1175
  159loPI   C3A 2537   2.872   7.846   9.156  0.2275 -0.0562  0.0964
  159loPI   C4A 2538   2.740   7.793   8.689 -0.0730  0.1640  0.0193
  159loPI   C5A 2539   2.683   7.714   8.251  0.1783  0.2361 -0.1190
  159loPI   C6A 2540   2.322   7.517   8.024  0.0705 -0.0428 -0.0670
  159loPI   C1B 2541   3.332   7.885   9.964 -0.0126 -0.0492  0.0059
  159loPI   C2B 2542   3.325   7.919   9.579 -0.1854 -0.3449  0.1638
  159loPI   C3B 2543   3.394   7.989   9.194 -0.1820 -0.0499  0.1721
  159loPI   C4B 2544   3.208   7.907   8.776  0.0670 -0.1636 -0.0312
  160loPI    C1 2545   3.939   1.637  11.158 -0.0523 -0.0198  0.2021
  160loPI    C2 2546   3.838   1.250  11.143 -0.0462 -0.0206  0.1820
  160loPI    C3 2547   3.668   1.490  11.414 -0.2261  0.0145  0.0403
  160loPI   PO4 2548   3.879   1.805  10.941 -0.0686 -0.1170  0.2823
  160loPI   GL1 2549   3.846   1.664  10.624  0.0371  0.0377  0.2080
  160loPI   GL2 2550   3.579   1.506  10.395 -0.2724 -0.1062 -0.0024
  160loPI   C1A 2551   3.863   1.798  10.186  0.2371 -0.2080 -0.2020
  160loPI   C2A 2552   3.842   1.709   9.820  0.2073  0.0769  0.0570
  160loPI   C3A 2553   3.814   1.795   9.359  0.0802  0.0474  0.2843
  160loPI   C4A 2554   3.884   1.856   8.981  0.2037  0.2795 -0.0525
  160loPI   C5A 2555   4.014   2.014   8.576 -0.3878 -0.2754 -0.3410
  160loPI   C6A 2556   4.264   2.357   8.479 -0.0906 -0.1175 -0.2373
  160loPI   C1B 2557   3.396   1.661  10.040  0.1165 -0.1932  0.0707
  160loPI   C2B 2558   3.358   1.650   9.595 -0.0528  0.0862  0.0034
  160loPI   C3B 2559   3.332   1.603   9.155  0.1377 -0.2082 -0.0156
  160loPI   C4B 2560   3.412   1.668   8.734  0.1899 -0.2584  0.0363
  161loPI    C1 2561  15.376   3.436  10.636 -0.1546 -0.0196 -0.0498
  161loPI    C2 2562  15.131   3.159  10.788 -0.1676  0.1100  0.1712
  161loPI    C3 2563  15.071   3.546  10.871 -0.2503  0.1977 -0.2708
  161loPI   PO4 2564  15.352   3.365  10.382  0.0342 -0.0191  0.1193
  161loPI   GL1 2565  15.077   3.330   9.985  0.2105  0.0457 -0.0221
  161loPI   GL2 2566  14.824   3.424   9.734  0.0087  0.1675  0.2455
  161loPI   C1A 2567  15.287   3.290   9.602  0.0866 -0.2931  0.0549
  161loPI   C2A 2568  15.335   3.226   9.223 -0.3967  0.1505  0.1801
  161loPI   C3A 2569  15.343   3.059   8.771 -0.0408  0.0810 -0.0832
  161loPI   C4A 2570  15.348   2.992   8.261 -0.2423 -0.0132 -0.0738
  161loPI   C5A 2571  15.320   3.312   7.902 -0.1867 -0.0283 -0.2989
  161loPI   C6A 2572  15.438   3.668   7.530  0.0749  0.2404 -0.1956
  161loPI   C1B 2573  14.871   3.318   9.297  0.2379 -0.2079 -0.0437
  161loPI   C2B 2574  14.961   3.357   8.852  0.0450  0.2267  0.0908
  161loPI   C3B 2575  14.990   3.253   8.422  0.4775  0.1967 -0.3389
  161loPI   C4B 2576  14.854   3.110   8.097  0.0255  0.3225 -0.0747
  162loPI    C1 2577   8.379   7.866  10.669  0.0705 -0.0668 -0.2311
  162loPI    C2 2578   8.502   7.585  10.925  0.0634 -0.0088 -0.1639
  162loPI    C3 2579   8.189   7.817  11.017  0.1095  0.0646 -0.1905
  162loPI   PO4 2580   8.518   7.723  10.366  0.0351  0.1679 -0.2323
  162loPI   GL1 2581   9.034   7.668  10.258  0.1889  0.0922 -0.0658
  162loPI   GL2 2582   9.251   7.822  10.292  0.0266 -0.0092  0.1709
  162loPI   C1A 2583   8.928   7.694   9.854 -0.1814  0.1202  0.0479
  162loPI   C2A 2584   8.910   7.749   9.345  0.3809  0.1026  0.1436
  162loPI   C3A 2585   8.829   7.747   8.854  0.4675 -0.0895 -0.0625
  162loPI   C4A 2586   8.891   7.829   8.443 -0.0469  0.0873 -0.1677
  162loPI   C5A 2587   8.940   7.762   7.919 -0.1990  0.2742  0.0635
  162loPI   C6A 2588   8.800   7.477   7.653 -0.0411  0.0538  0.0366
  162loPI   C1B 2589   9.441   7.907   9.840  0.3663  0.1237  0.0072
  162loPI   C2B 2590   9.442   7.898   9.443  0.4306 -0.1964  0.4525
  162loPI   C3B 2591   9.423   7.879   9.032  0.0733 -0.1653 -0.0412
  162loPI   C4B 2592   9.510   7.925   8.597 -0.3175 -0.1565  0.1330
  163loPI    C1 2593   6.007   0.402  11.135 -0.0097  0.0348  0.2014
  163loPI    C2 2594   6.136   0.051  11.277  0.0919  0.0450  0.1353
  163loPI    C3 2595   6.220   0.389  11.473  0.1082  0.0453  0.1278
  163loPI   PO4 2596   6.026   0.392  10.901  0.1414 -0.1743 -0.1498
  163loPI   GL1 2597   6.003   0.019  10.641 -0.0228 -0.0046 -0.0012
  163loPI   GL2 2598   6.283   0.124  10.511 -0.0648  0.3548  0.2918
  163loPI   C1A 2599   5.867  -0.047  10.204 -0.0519 -0.0316  0.3341
  163loPI   C2A 2600   5.700   0.088   9.688  0.1900 -0.0216 -0.2531
  163loPI   C3A 2601   5.634   0.018   9.293  0.1089 -0.1472  0.1803
  163loPI   C4A 2602   5.654  -0.029   8.875 -0.0482  0.2122 -0.2658
  163loPI   C5A 2603   5.520   0.264   8.533 -0.0351  0.0972  0.1490
  163loPI   C6A 2604   5.201   0.261   8.378  0.3863 -0.2809 -0.0770
  163loPI   C1B 2605   6.314   0.239  10.055 -0.1327  0.0193  0.1961
  163loPI   C2B 2606   6.290   0.196   9.597  0.0290  0.0727 -0.0235
  163loPI   C3B 2607   6.145   0.077   9.193 -0.4627  0.1266  0.2642
  163loPI   C4B 2608   6.122   0.020   8.764 -0.1090  0.0881  0.1363
  164loPI    C1 2609  17.324   3.842  11.008  0.3329 -0.0714  0.1529
  164loPI    C2 2610  17.266   3.698  11.377 -0.0556  0.0866  0.1589
  164loPI    C3 2611  17.590   3.918  11.297  0.1157 -0.0875  0.3610
  164loPI   PO4 2612  17.325   3.656  10.726  0.0052 -0.2592  0.0676
  164loPI   GL1 2613  16.999   3.489  10.454  0.1526  0.0886 -0.0063
  164loPI   GL2 2614  16.711   3.244  10.421  0.1153  0.1269 -0.1902
  164loPI   C1A 2615  17.334   3.676  10.070  0.2038  0.1054  0.1535
  164loPI   C2A 2616  17.398   3.717   9.621  0.0100 -0.0740 -0.2020
  164loPI   C3A 2617  17.453   3.687   9.215  0.0717 -0.0247 -0.1511
  164loPI   C4A 2618  17.372   3.603   8.827  0.0594 -0.1877  0.0365
  164loPI   C5A 2619  17.618   3.621   8.497 -0.0104 -0.0809  0.2689
  164loPI   C6A 2620  17.589   3.713   8.065  0.0177 -0.0228 -0.1967
  164loPI   C1B 2621  16.711   3.491  10.037  0.1743 -0.1853  0.0436
  164loPI   C2B 2622  16.934   3.512   9.724  0.0968 -0.1454  0.0340
  164loPI   C3B 2623  16.994   3.565   9.240  0.0502 -0.0860 -0.0521
  164loPI   C4B 2624  16.870   3.533   8.799  0.4373  0.0969 -0.1325
  165loPI    C1 2625  17.410   6.415  11.116 -0.1960  0.0258  0.1071
  165loPI    C2 2626  17.331   6.751  11.318  0.0524  0.1471  0.0065
  165loPI    C3 2627  17.404   6.411  11.516 -0.1176  0.1700  0.1103
  165loPI   PO4 2628  17.537   6.535  10.884 -0.1596 -0.1079 -0.3021
  165loPI   GL1 2629  17.669   6.400  10.499  0.0559 -0.0661  0.2048
  165loPI   GL2 2630  17.417   6.215  10.184 -0.0416 -0.5983 -0.0530
  165loPI   C1A 2631  17.832   6.716  10.261 -0.3844 -0.1213 -0.1108
  165loPI   C2A 2632  18.086   6.729   9.926 -0.0272 -0.1182 -0.0135
  165loPI   C3A 2633  18.164   6.773   9.485  0.3914  0.3533 -0.2184
  165loPI   C4A 2634  18.091   6.801   8.948 -0.0418  0.0633  0.2489
  165loPI   C5A 2635  18.065   6.974   8.626 -0.1272  0.0637  0.0835
  165loPI   C6A 2636  17.877   6.940   8.150  0.1355  0.0076 -0.1248
  165loPI   C1B 2637  17.432   6.168   9.735 -0.1653  0.0403  0.2302
  165loPI   C2B 2638  17.350   6.087   9.370 -0.0338  0.0368  0.3258
  165loPI   C3B 2639  17.499   6.228   9.108  0.0342 -0.2001 -0.3292
  165loPI   C4B 2640  17.491   6.228   8.597  0.2630  0.2494  0.1017
  166loPI    C1 2641  11.589  14.522  11.357  0.1187  0.1847  0.0396
  166loPI    C2 2642  11.904  14.277  11.384 -0.0996 -0.1144 -0.0743
  166loPI    C3 2643  11.614  14.261  11.659  0.0394  0.2449  0.0988
  166loPI   PO4 2644  11.443  14.524  11.198  0.1512 -0.1671 -0.1253
  166loPI   GL1 2645  11.548  14.645  10.766  0.1579  0.1375 -0.1222
  166loPI   GL2 2646  11.906  14.524  10.561 -0.0351  0.1261 -0.3294
  166loPI   C1A 2647  11.514  14.842  10.367  0.0006 -0.2532  0.0248
  166loPI   C2A 2648  11.373  14.911   9.970 -0.0241  0.0443 -0.0971
  166loPI   C3A 2649  11.441  14.802   9.477 -0.0881  0.1592  0.0065
  166loPI   C4A 2650  11.451  14.858   9.091  0.3023 -0.0413  0.0995
  166loPI   C5A 2651  11.522  14.822   8.601  0.1831  0.4699  0.2704
  166loPI   C6A 2652  11.826  14.657   8.420 -0.0026 -0.2376 -0.0262
  166loPI   C1B 2653  11.826  14.575  10.056  0.1008  0.0829 -0.2376
  166loPI   C2B 2654  11.753  14.458   9.688  0.1642 -0.0391 -0.1743
  166loPI   C3B 2655  11.874  14.357   9.344  0.0238  0.0184  0.2072
  166loPI   C4B 2656  11.823  14.385   8.921  0.2605  0.1595 -0.1228
  167loPI    C1 2657   1.448  12.213  10.980 -0.0133 -0.0910  0.2317
  167loPI    C2 2658   1.689  12.526  10.916 -0.2413  0.0506  0.0500
  167loPI    C3 2659   1.360  12.569  11.140 -0.2342 -0.0782  0.0857
  167loPI   PO4 2660   1.307  12.114  10.764  0.0388  0.3642  0.1367
  167loPI   GL1 2661   1.067  11.919  10.358  0.3356  0.0376  0.0358
  167loPI   GL2 2662   1.282  12.182  10.295  0.4273 -0.0994 -0.0620
  167loPI   C1A 2663   0.921  11.940   9.983  0.0781  0.4847 -0.2679
  167loPI   C2A 2664   1.059  11.975   9.594  0.2489  0.0515  0.0528
  167loPI   C3A 2665   1.036  12.075   9.142 -0.1891  0.2071  0.0363
  167loPI   C4A 2666   1.103  12.126   8.700 -0.1525 -0.0902  0.1325
  167loPI   C5A 2667   1.136  12.019   8.284  0.0787 -0.2196 -0.1367
  167loPI   C6A 2668   1.024  11.835   7.888  0.1915 -0.3012 -0.2995
  167loPI   C1B 2669   1.569  12.197   9.969 -0.0088  0.0369 -0.2652
  167loPI   C2B 2670   1.593  12.311   9.494  0.0875  0.0094 -0.0078
  167loPI   C3B 2671   1.499  12.185   9.005  0.0814  0.0434 -0.0964
  167loPI   C4B 2672   1.563  12.261   8.513  0.1444 -0.0161  0.0227
  168loPI    C1 2673   1.903   3.820  11.415  0.1872  0.0887  0.1987
  168loPI    C2 2674   1.703   4.156  11.499 -0.1326  0.0122 -0.2270
  168loPI    C3 2675   2.071   4.176  11.345 -0.0534  0.1622 -0.0212
  168loPI   PO4 2676   1.761   3.653  11.214  0.3187 -0.1772  0.0994
  168loPI   GL1 2677   1.609   3.767  10.837 -0.2216 -0.1348 -0.2401
  168loPI   GL2 2678   1.393   3.746  10.731  0.2196 -0.0337  0.0156
  168loPI   C1A 2679   1.894   3.700  10.494  0.0491  0.1673 -0.0409
  168loPI   C2A 2680   1.935   3.648  10.010  0.2803 -0.1818  0.0023
  168loPI   C3A 2681   1.968   3.592   9.565 -0.0569  0.0559 -0.0091
  168loPI   C4A 2682   1.880   3.611   9.151 -0.0317  0.0139 -0.1251
  168loPI   C5A 2683   1.922   3.575   8.732  0.3433 -0.3268 -0.1541
  168loPI   C6A 2684   1.884   3.788   8.294 -0.0437  0.3953  0.0461
  168loPI   C1B 2685   1.422   3.541  10.372 -0.0211  0.0156 -0.0266
  168loPI   C2B 2686   1.505   3.473   9.829 -0.0726 -0.0474 -0.3054
  168loPI   C3B 2687   1.456   3.432   9.429  0.2138 -0.2380 -0.2183
  168loPI   C4B 2688   1.491   3.420   8.923 -0.1752 -0.2921 -0.0045
  169loPI    C1 2689  15.817   6.407  10.839 -0.0035 -0.2366 -0.3433
  169loPI    C2 2690  16.009   6.077  10.721  0.5155 -0.0226 -0.1304
  169loPI    C3 2691  16.178   6.321  10.989  0.0530  0.3175 -0.1361
  169loPI   PO4 2692  15.720   6.550  10.616  0.0562  0.2412  0.0043
  169loPI   GL1 2693  15.663   6.351  10.227  0.1777  0.0110  0.0224
  169loPI   GL2 2694  15.698   6.704  10.124 -0.2912  0.1587  0.1555
  169loPI   C1A 2695  15.984   6.176   9.928  0.1018 -0.0839 -0.2009
  169loPI   C2A 2696  16.004   6.165   9.471 -0.1666  0.1826 -0.0296
  169loPI   C3A 2697  16.094   6.197   8.989  0.0468  0.2016 -0.0920
  169loPI   C4A 2698  16.093   6.182   8.521  0.6503  0.0783 -0.1529
  169loPI   C5A 2699  15.983   6.125   8.119 -0.1215  0.0747  0.2260
  169loPI   C6A 2700  15.839   5.795   7.974  0.3474 -0.0032 -0.1344
  169loPI   C1B 2701  15.663   6.547   9.643 -0.2525  0.3050 -0.1215
  169loPI   C2B 2702  15.746   6.486   9.174 -0.1374 -0.1032 -0.1317
  169loPI   C3B 2703  15.810   6.559   8.721  0.3075 -0.2369 -0.0441
  169loPI   C4B 2704  15.803   6.714   8.334 -0.1375  0.1228  0.0867
  170loPI    C1 2705   3.068   0.535  11.236 -0.1490 -0.2764  0.3210
  170loPI    C2 2706   2.986   0.809  11.516  0.0718 -0.0711  0.1894
  170loPI    C3 2707   3.275   0.539  11.579  0.2433  0.0870  0.0911
  170loPI   PO4 2708   2.889   0.537  11.116 -0.3923 -0.0030  0.1519
  170loPI   GL1 2709   2.873   0.621  10.650  0.0645 -0.2646 -0.1632
  170loPI   GL2 2710   2.977   0.304  10.475 -0.1372 -0.1508  0.1445
  170loPI   C1A 2711   2.759   0.937  10.311 -0.4300  0.1345 -0.3768
  170loPI   C2A 2712   2.794   0.983   9.925 -0.0405  0.0465  0.0233
  170loPI   C3A 2713   2.727   1.077   9.570  0.0738  0.1750  0.0740
  170loPI   C4A 2714   2.771   1.048   9.106  0.0904 -0.1714 -0.1150
  170loPI   C5A 2715   2.690   1.020   8.726  0.0410  0.0324 -0.1150
  170loPI   C6A 2716   2.910   0.965   8.342  0.0168 -0.0153  0.2257
  170loPI   C1B 2717   3.057   0.588  10.144 -0.0423 -0.0011 -0.0628
  170loPI   C2B 2718   3.179   0.649   9.753 -0.1356  0.1684  0.1882
  170loPI   C3B 2719   3.092   0.640   9.346  0.1249 -0.2233 -0.1809
  170loPI   C4B 2720   3.074   0.690   8.959  0.0600 -0.1084  0.1143
  171loPI    C1 2721  14.653  12.811  10.926 -0.1273  0.0711  0.1133
  171loPI    C2 2722  14.946  12.960  11.153 -0.0974 -0.1299  0.2092
  171loPI    C3 2723  14.569  12.967  11.284 -0.0892 -0.1839  0.2360
  171loPI   PO4 2724  14.703  12.917  10.710 -0.4731  0.1146  0.0472
  171loPI   GL1 2725  14.942  13.097  10.302  0.0749 -0.0607  0.0832
  171loPI   GL2 2726  14.999  13.459  10.132 -0.0987 -0.2239 -0.0351
  171loPI   C1A 2727  14.762  12.959   9.906  0.2048  0.0314  0.0326
  171loPI   C2A 2728  14.813  12.901   9.413 -0.0260 -0.0766 -0.0039
  171loPI   C3A 2729  14.789  12.942   8.991 -0.2143 -0.4446 -0.0976
  171loPI   C4A 2730  14.802  13.056   8.573 -0.3115  0.0358  0.1177
  171loPI   C5A 2731  14.616  13.275   8.193  0.1752 -0.1313 -0.0949
  171loPI   C6A 2732  14.462  13.473   7.813  0.2457 -0.1103 -0.0650
  171loPI   C1B 2733  14.938  13.458   9.764 -0.1083  0.1427 -0.0864
  171loPI   C2B 2734  14.888  13.408   9.370  0.2302  0.2083 -0.3436
  171loPI   C3B 2735  14.945  13.474   8.975  0.2279 -0.1879  0.2030
  171loPI   C4B 2736  14.875  13.584   8.566 -0.0968  0.4754  0.3466
  172loPI    C1 2737   1.558   1.271  11.351  0.1242  0.0565 -0.1170
  172loPI    C2 2738   1.363   1.602  11.462  0.1160  0.0391 -0.0791
  172loPI    C3 2739   1.689   1.486  11.662  0.1527  0.0562 -0.1289
  172loPI   PO4 2740   1.579   1.316  11.067  0.1155  0.0436 -0.2859
  172loPI   GL1 2741   1.817   1.297  10.825  0.3511  0.1555  0.3153
  172loPI   GL2 2742   1.921   1.560  10.724  0.2987 -0.3196 -0.3251
  172loPI   C1A 2743   1.869   1.208  10.409  0.0920 -0.0813  0.0377
  172loPI   C2A 2744   1.904   1.153   9.919 -0.1184  0.0900 -0.0546
  172loPI   C3A 2745   1.840   1.135   9.508 -0.1232 -0.0265 -0.0019
  172loPI   C4A 2746   1.715   1.245   9.101  0.0155  0.1336 -0.1573
  172loPI   C5A 2747   1.803   1.116   8.673 -0.3136  0.0297  0.2181
  172loPI   C6A 2748   2.039   0.862   8.452  0.0487 -0.0440  0.1320
  172loPI   C1B 2749   2.102   1.694  10.406  0.0057 -0.0642  0.2068
  172loPI   C2B 2750   1.846   1.757   9.982  0.1988  0.1574  0.0477
  172loPI   C3B 2751   1.956   1.733   9.646  0.0908  0.2152 -0.2483
  172loPI   C4B 2752   1.929   1.667   9.182 -0.0550  0.0335 -0.4603
  173loPI    C1 2753  10.930  15.851  10.995 -0.2420  0.0713 -0.0327
  173loPI    C2 2754  10.994  15.500  10.813 -0.0832  0.0128  0.1334
  173loPI    C3 2755  10.883  15.509  11.197  0.1286  0.1490  0.1933
  173loPI   PO4 2756  10.869  15.997  10.712  0.0445 -0.0721 -0.3473
  173loPI   GL1 2757  10.678  15.870  10.320 -0.2751 -0.2078 -0.2252
  173loPI   GL2 2758  10.410  15.769  10.316  0.2248  0.1533  0.0652
  173loPI   C1A 2759  10.934  16.014   9.977  0.1321 -0.2464  0.1769
  173loPI   C2A 2760  10.773  16.025   9.484  0.3448  0.1285  0.0390
  173loPI   C3A 2761  10.805  16.011   9.007 -0.1112  0.2438  0.0241
  173loPI   C4A 2762  10.649  16.043   8.669 -0.1973  0.1553 -0.0058
  173loPI   C5A 2763  10.462  15.956   8.240  0.0776  0.0710 -0.0535
  173loPI   C6A 2764  10.183  16.094   7.871  0.4230 -0.1228  0.2146
  173loPI   C1B 2765  10.285  15.815   9.914 -0.1364  0.4096 -0.0778
  173loPI   C2B 2766  10.327  15.850   9.509 -0.0055  0.1091  0.1389
  173loPI   C3B 2767  10.277  15.870   9.063 -0.0174 -0.0662 -0.1097
  173loPI   C4B 2768  10.196  15.823   8.690  0.6681 -0.2026  0.0391
  174loPI    C1 2769  10.085   2.386  10.245 -0.1252  0.1141 -0.0858
  174loPI    C2 2770   9.986   2.199  10.584  0.2417  0.1956  0.0711
  174loPI    C3 2771   9.742   2.182  10.268  0.0136 -0.0893  0.2572
  174loPI   PO4 2772  10.342   2.288  10.160 -0.0612  0.3049  0.0177
  174loPI   GL1 2773  10.574   2.545   9.934 -0.0092  0.0948  0.0344
  174loPI   GL2 2774  10.235   2.656   9.844 -0.0649 -0.0117 -0.0839
  174loPI   C1A 2775  10.563   2.443   9.451  0.0402 -0.0774  0.0404
  174loPI   C2A 2776  10.489   2.469   9.031  0.3061  0.1197 -0.0411
  174loPI   C3A 2777  10.366   2.467   8.613  0.2485  0.0278  0.0470
  174loPI   C4A 2778  10.447   2.347   8.184 -0.1918  0.1591 -0.0134
  174loPI   C5A 2779  10.228   2.158   7.854  0.1165  0.0669  0.3282
  174loPI   C6A 2780  10.337   1.820   7.608 -0.0550 -0.0211 -0.1610
  174loPI   C1B 2781  10.214   2.857   9.501  0.0217  0.3569 -0.1431
  174loPI   C2B 2782  10.115   2.897   9.052 -0.0256  0.2286 -0.0473
  174loPI   C3B 2783  10.041   2.910   8.662  0.1090  0.1029 -0.4711
  174loPI   C4B 2784   9.962   2.758   8.281 -0.2484  0.2142 -0.1386
  175loPI    C1 2785  14.786  16.782  10.472 -0.1499 -0.0054  0.0411
  175loPI    C2 2786  14.698  16.536  10.774 -0.1661 -0.1153 -0.0524
  175loPI    C3 2787  14.827  16.907  10.850 -0.0958 -0.1677  0.0894
  175loPI   PO4 2788  14.884  16.563  10.279 -0.1317  0.0056  0.0347
  175loPI   GL1 2789  14.708  16.442   9.977  0.4460  0.1353  0.0277
  175loPI   GL2 2790  14.666  16.209   9.924  0.0250 -0.2470  0.3054
  175loPI   C1A 2791  14.739  16.591   9.567  0.1674  0.0936 -0.2070
  175loPI   C2A 2792  14.686  16.694   9.201 -0.0074 -0.0219 -0.0624
  175loPI   C3A 2793  14.666  16.739   8.753  0.3511 -0.0854  0.1307
  175loPI   C4A 2794  14.564  16.949   8.261  0.1412  0.5078 -0.1641
  175loPI   C5A 2795  14.350  17.272   8.104  0.3751  0.1596  0.2904
  175loPI   C6A 2796  14.319  17.517   7.779  0.2348  0.0409  0.3380
  175loPI   C1B 2797  14.581  16.167   9.421 -0.3064 -0.0614 -0.0823
  175loPI   C2B 2798  14.556  16.246   8.930  0.2072  0.1463 -0.0489
  175loPI   C3B 2799  14.505  16.244   8.467  0.0296 -0.2094 -0.0562
  175loPI   C4B 2800  14.741  16.367   8.014 -0.0150 -0.0263 -0.1008
  176loPI    C1 2801  10.759   1.764  10.293  0.1462 -0.2137  0.0588
  176loPI    C2 2802  10.515   1.965  10.538  0.0400 -0.1898 -0.0651
  176loPI    C3 2803  10.894   1.896  10.645  0.0836  0.0938 -0.0288
  176loPI   PO4 2804  10.524   1.620  10.119  0.0737  0.2972  0.0426
  176loPI   GL1 2805  10.320   1.638   9.766  0.0011  0.0134  0.0883
  176loPI   GL2 2806  10.506   2.028   9.782  0.0133 -0.2870 -0.1066
  176loPI   C1A 2807  10.222   1.420   9.363  0.0937 -0.0447  0.2031
  176loPI   C2A 2808  10.145   1.462   8.940  0.0281 -0.0732 -0.0684
  176loPI   C3A 2809  10.116   1.298   8.602  0.2289 -0.0672 -0.0279
  176loPI   C4A 2810  10.068   1.060   8.118  0.0349  0.0827  0.0059
  176loPI   C5A 2811  10.393   1.196   7.817 -0.1833  0.1187 -0.2171
  176loPI   C6A 2812  10.709   1.444   7.709 -0.3091  0.0613 -0.2316
  176loPI   C1B 2813  10.348   1.935   9.381 -0.0693 -0.2797 -0.1305
  176loPI   C2B 2814  10.266   1.992   8.866 -0.2399  0.1264  0.0959
  176loPI   C3B 2815  10.183   1.884   8.455 -0.0653  0.0367 -0.1000
  176loPI   C4B 2816  10.226   1.525   8.119  0.0403 -0.3549 -0.0005
  177loPI    C1 2817   3.654   2.945  11.132  0.0272  0.1109  0.1563
  177loPI    C2 2818   3.394   2.653  11.219 -0.0195  0.1083  0.0104
  177loPI    C3 2819   3.561   2.866  11.513  0.1954 -0.2207  0.1320
  177loPI   PO4 2820   3.764   2.908  10.976 -0.0587  0.4931 -0.1131
  177loPI   GL1 2821   3.796   2.711  10.712 -0.3620  0.4953 -0.1337
  177loPI   GL2 2822   3.436   2.614  10.722  0.0690 -0.1179  0.4084
  177loPI   C1A 2823   4.098   2.724  10.298  0.2802  0.0891 -0.3116
  177loPI   C2A 2824   4.000   2.744   9.896  0.1207 -0.0306  0.2647
  177loPI   C3A 2825   4.156   2.874   9.429 -0.1057 -0.1780 -0.1022
  177loPI   C4A 2826   4.093   2.866   9.050 -0.1793 -0.0685  0.1393
  177loPI   C5A 2827   4.116   2.883   8.482  0.1850  0.0352 -0.0029
  177loPI   C6A 2828   4.323   3.131   8.179 -0.0797 -0.4545  0.1430
  177loPI   C1B 2829   3.590   2.657  10.258 -0.1511  0.2250  0.1184
  177loPI   C2B 2830   3.522   2.657   9.810  0.2299  0.1771 -0.0232
  177loPI   C3B 2831   3.694   2.698   9.342 -0.0715  0.0712 -0.3928
  177loPI   C4B 2832   3.548   2.711   8.998  0.1337 -0.2081 -0.2685
  178loPI    C1 2833  16.180   4.995  10.929  0.0577 -0.3047  0.1912
  178loPI    C2 2834  15.925   5.273  11.061  0.1741 -0.1815  0.1596
  178loPI    C3 2835  15.874   4.889  11.164 -0.2429 -0.2171 -0.1522
  178loPI   PO4 2836  16.416   5.167  10.849 -0.2666 -0.1230 -0.0971
  178loPI   GL1 2837  16.523   5.226  10.444  0.2178 -0.3658  0.2991
  178loPI   GL2 2838  16.605   5.529  10.336 -0.0639  0.0127  0.5176
  178loPI   C1A 2839  16.648   4.960  10.096  0.2289  0.3027 -0.0863
  178loPI   C2A 2840  16.559   4.900   9.742 -0.3044  0.0224  0.1186
  178loPI   C3A 2841  16.745   4.895   9.333  0.1932  0.2849  0.1312
  178loPI   C4A 2842  16.686   4.971   8.884 -0.4557 -0.1266  0.3233
  178loPI   C5A 2843  16.830   5.007   8.496  0.3236  0.1331  0.0199
  178loPI   C6A 2844  17.182   4.902   8.360  0.2845 -0.0833  0.0138
  178loPI   C1B 2845  16.689   5.379   9.909 -0.0469 -0.0887  0.1913
  178loPI   C2B 2846  16.789   5.475   9.522  0.1101  0.0988  0.2704
  178loPI   C3B 2847  16.781   5.388   9.080  0.1106  0.1910  0.0008
  178loPI   C4B 2848  16.866   5.630   8.708  0.1274  0.1746  0.1518
  179loPI    C1 2849   4.337   1.932  11.154  0.0131  0.1332 -0.0471
  179loPI    C2 2850   4.114   1.981  11.482  0.1768  0.1249  0.0670
  179loPI    C3 2851   4.485   1.836  11.513  0.1917  0.1200 -0.1231
  179loPI   PO4 2852   4.247   2.203  11.016 -0.0629  0.0600 -0.1304
  179loPI   GL1 2853   4.248   2.399  10.757 -0.0159 -0.0860  0.0159
  179loPI   GL2 2854   3.935   2.266  10.563 -0.3267  0.0094  0.0308
  179loPI   C1A 2855   4.457   2.325  10.406 -0.0523 -0.2951  0.1640
  179loPI   C2A 2856   4.421   2.410  10.030 -0.0829  0.0117  0.1494
  179loPI   C3A 2857   4.438   2.486   9.568  0.2362 -0.1451  0.1768
  179loPI   C4A 2858   4.435   2.485   9.148 -0.1871 -0.0683 -0.0362
  179loPI   C5A 2859   4.673   2.402   8.812  0.0500 -0.0418 -0.0845
  179loPI   C6A 2860   4.592   2.720   8.341  0.4143 -0.0910 -0.2159
  179loPI   C1B 2861   3.931   2.302  10.105  0.1015 -0.1089  0.2153
  179loPI   C2B 2862   3.939   2.256   9.645  0.1686 -0.2492  0.0305
  179loPI   C3B 2863   3.972   2.338   9.243 -0.1116  0.0390  0.2847
  179loPI   C4B 2864   3.929   2.457   8.806  0.0857 -0.1364  0.2139
  180loPI    C1 2865  17.172   9.980  10.715  0.0966 -0.1273  0.1207
  180loPI    C2 2866  17.104  10.174  11.058  0.2135  0.0049  0.0702
  180loPI    C3 2867  17.270   9.810  11.064  0.0670 -0.0618  0.1610
  180loPI   PO4 2868  16.922  10.028  10.524  0.0414  0.4235 -0.1528
  180loPI   GL1 2869  16.795  10.019  10.180  0.1674  0.0734  0.3065
  180loPI   GL2 2870  16.935  10.323  10.112 -0.0594  0.0495 -0.1622
  180loPI   C1A 2871  16.859   9.786   9.809  0.1345  0.1416 -0.2194
  180loPI   C2A 2872  16.963   9.863   9.391  0.2522  0.3252  0.1717
  180loPI   C3A 2873  16.953   9.945   8.980 -0.0496 -0.1278 -0.0984
  180loPI   C4A 2874  17.101   9.820   8.506  0.0110 -0.0934 -0.2496
  180loPI   C5A 2875  17.162   9.987   8.163  0.0136 -0.1282  0.1375
  180loPI   C6A 2876  16.951   9.804   7.724  0.0072 -0.1039  0.2187
  180loPI   C1B 2877  16.918  10.388   9.627  0.1331 -0.3985 -0.0413
  180loPI   C2B 2878  17.036  10.395   9.235 -0.4446  0.0548 -0.0921
  180loPI   C3B 2879  17.038  10.394   8.736 -0.4438  0.1421 -0.2238
  180loPI   C4B 2880  16.970  10.523   8.329 -0.3026 -0.0040  0.1740
  181loPI    C1 2881  11.165   5.734  10.437  0.1736 -0.1615  0.1373
  181loPI    C2 2882  10.845   5.950  10.540  0.2386  0.0500 -0.0960
  181loPI    C3 2883  11.185   5.988  10.745  0.0603 -0.3288  0.2849
  181loPI   PO4 2884  11.096   5.792  10.087  0.3314  0.0278  0.2621
  181loPI   GL1 2885  10.822   5.896   9.622 -0.0748  0.1526 -0.4546
  181loPI   GL2 2886  10.534   5.686   9.745  0.0572  0.3481 -0.0557
  181loPI   C1A 2887  10.745   5.899   9.129 -0.0543  0.0693 -0.1577
  181loPI   C2A 2888  10.658   5.912   8.693 -0.1133  0.4260  0.1824
  181loPI   C3A 2889  10.891   5.899   8.343  0.1502  0.2471 -0.0384
  181loPI   C4A 2890  10.787   5.959   7.947 -0.2413  0.1065  0.0781
  181loPI   C5A 2891  10.408   5.953   7.766 -0.1497  0.2844  0.1891
  181loPI   C6A 2892   9.998   5.816   7.901 -0.1811 -0.0302  0.0108
  181loPI   C1B 2893  10.313   5.748   9.468  0.2125  0.4287 -0.3499
  181loPI   C2B 2894  10.250   5.832   9.090  0.0747 -0.0860 -0.0456
  181loPI   C3B 2895  10.186   5.796   8.677  0.0128 -0.0941  0.1024
  181loPI   C4B 2896  10.287   5.693   8.276  0.0353 -0.1743 -0.0742
  182loPI    C1 2897  10.086  13.571  10.966  0.2963  0.0759  0.0390
  182loPI    C2 2898  10.094  13.698  11.345  0.1619  0.0420  0.0538
  182loPI    C3 2899   9.989  13.949  11.051  0.1717  0.0420  0.0503
  182loPI   PO4 2900   9.956  13.343  10.845 -0.0076 -0.0456  0.2604
  182loPI   GL1 2901  10.104  13.312  10.427  0.2959  0.0672 -0.1604
  182loPI   GL2 2902   9.728  13.241  10.385 -0.0695 -0.2147  0.2170
  182loPI   C1A 2903  10.226  13.463  10.004  0.0215  0.1075  0.0032
  182loPI   C2A 2904  10.199  13.580   9.519 -0.0614 -0.1782 -0.4043
  182loPI   C3A 2905  10.213  13.330   9.099 -0.1755 -0.3935  0.0619
  182loPI   C4A 2906  10.294  13.526   8.600  0.0057  0.0709 -0.0505
  182loPI   C5A 2907  10.214  13.826   8.263 -0.2299  0.1153  0.1911
  182loPI   C6A 2908  10.414  13.791   7.811  0.3249  0.1246 -0.0754
  182loPI   C1B 2909   9.737  13.334   9.895 -0.0581 -0.2016 -0.2445
  182loPI   C2B 2910   9.652  13.338   9.371 -0.0335  0.2631  0.0318
  182loPI   C3B 2911   9.662  13.178   8.962 -0.0910  0.1873  0.1317
  182loPI   C4B 2912   9.843  13.230   8.486 -0.0514 -0.1523 -0.2078
  183loPI    C1 2913   7.425   2.401  11.113  0.0370  0.1507  0.0663
  183loPI    C2 2914   7.265   2.100  11.321  0.0905  0.0531 -0.0326
  183loPI    C3 2915   7.065   2.445  11.282 -0.1188 -0.0837 -0.1959
  183loPI   PO4 2916   7.433   2.368  10.850 -0.4215 -0.1612  0.1784
  183loPI   GL1 2917   7.295   2.117  10.508  0.0145  0.0560 -0.1136
  183loPI   GL2 2918   7.218   2.425  10.414 -0.2177  0.1411 -0.0338
  183loPI   C1A 2919   7.138   1.872  10.124 -0.3965  0.0439  0.1646
  183loPI   C2A 2920   7.060   1.783   9.601  0.0265 -0.2089 -0.0140
  183loPI   C3A 2921   7.026   1.778   9.161  0.1269  0.2230  0.1429
  183loPI   C4A 2922   7.002   1.763   8.748  0.2298 -0.1822 -0.1902
  183loPI   C5A 2923   6.967   1.823   8.241  0.2046 -0.2046 -0.2744
  183loPI   C6A 2924   6.970   1.764   7.804  0.0591  0.1186 -0.0226
  183loPI   C1B 2925   7.215   2.485  10.011 -0.1326 -0.0249 -0.0090
  183loPI   C2B 2926   7.196   2.302   9.643 -0.0283 -0.2300 -0.2483
  183loPI   C3B 2927   7.191   2.382   9.194 -0.2674 -0.0311  0.0215
  183loPI   C4B 2928   7.130   2.332   8.736  0.1451  0.1728 -0.2021
  184loPI    C1 2929   3.059   8.905  10.928 -0.0021 -0.0605 -0.0072
  184loPI    C2 2930   2.810   9.028  11.216 -0.1177 -0.1001 -0.0895
  184loPI    C3 2931   3.200   9.111  11.240 -0.1274 -0.1003  0.0768
  184loPI   PO4 2932   2.988   8.959  10.725  0.1044 -0.0124 -0.2598
  184loPI   GL1 2933   2.947   8.835  10.432 -0.0816 -0.2027  0.1723
  184loPI   GL2 2934   2.612   8.909  10.359  0.1996 -0.1047 -0.1253
  184loPI   C1A 2935   2.963   8.713  10.069  0.0932 -0.0718  0.0472
  184loPI   C2A 2936   3.044   8.706   9.745 -0.1749  0.3617  0.0691
  184loPI   C3A 2937   3.071   8.759   9.299  0.0758 -0.0522 -0.3930
  184loPI   C4A 2938   3.094   8.819   8.839 -0.2507 -0.0871  0.2069
  184loPI   C5A 2939   3.139   8.885   8.444 -0.0636 -0.1438  0.3196
  184loPI   C6A 2940   3.185   8.921   8.158  0.0269  0.2408 -0.0588
  184loPI   C1B 2941   2.662   9.027   9.858 -0.2084 -0.3502  0.2404
  184loPI   C2B 2942   2.721   9.181   9.444  0.0814 -0.0626 -0.0130
  184loPI   C3B 2943   2.821   9.191   9.010  0.1925  0.1844  0.3566
  184loPI   C4B 2944   2.676   9.173   8.507  0.0929 -0.1560 -0.0522
  185loPI    C1 2945  17.065   1.202  11.163  0.1110 -0.0525  0.2714
  185loPI    C2 2946  16.937   1.506  11.389 -0.2420  0.0366 -0.0372
  185loPI    C3 2947  16.698   1.193  11.321 -0.0495 -0.1000 -0.0930
  185loPI   PO4 2948  17.160   1.284  10.986  0.0472  0.0873  0.0368
  185loPI   GL1 2949  17.035   1.394  10.626  0.0180  0.0764 -0.3646
  185loPI   GL2 2950  17.202   1.086  10.356 -0.2070  0.0509 -0.1173
  185loPI   C1A 2951  16.897   1.588  10.277 -0.1717  0.1740  0.1493
  185loPI   C2A 2952  16.989   1.728   9.965  0.0162 -0.0690  0.0485
  185loPI   C3A 2953  16.994   1.647   9.554  0.0862 -0.0409 -0.2278
  185loPI   C4A 2954  16.845   1.631   9.055 -0.0476 -0.0215  0.1146
  185loPI   C5A 2955  16.792   1.531   8.711  0.2481  0.0210 -0.0049
  185loPI   C6A 2956  17.041   1.348   8.452  0.0037 -0.0931  0.1577
  185loPI   C1B 2957  17.260   1.335  10.065 -0.2686  0.1867  0.0340
  185loPI   C2B 2958  17.318   1.285   9.681  0.0656  0.1932 -0.0183
  185loPI   C3B 2959  17.272   1.220   9.340 -0.0599  0.0138  0.2554
  185loPI   C4B 2960  17.249   1.313   8.926  0.0097  0.0129 -0.0421
  186loPI    C1 2961   9.163   0.521  10.798  0.3575 -0.1300  0.3687
  186loPI    C2 2962   9.368   0.864  10.784 -0.0426  0.1037 -0.0601
  186loPI    C3 2963   9.075   0.817  11.053  0.0269  0.0885  0.0133
  186loPI   PO4 2964   9.041   0.505  10.577  0.0434  0.0852 -0.0785
  186loPI   GL1 2965   9.142   0.368  10.221 -0.0470  0.4763  0.1438
  186loPI   GL2 2966   9.045   0.069  10.191  0.3584  0.1772 -0.2023
  186loPI   C1A 2967   9.179   0.628   9.785 -0.1549 -0.3613  0.1253
  186loPI   C2A 2968   9.126   0.512   9.381  0.2061 -0.1194  0.2777
  186loPI   C3A 2969   9.095   0.603   8.972 -0.3020 -0.4214  0.0032
  186loPI   C4A 2970   9.077   0.596   8.484  0.1251 -0.1173  0.0047
  186loPI   C5A 2971   9.150   0.883   8.105  0.0453  0.1327 -0.4264
  186loPI   C6A 2972   9.240   1.293   7.822  0.2990 -0.0603  0.1535
  186loPI   C1B 2973   9.044   0.063   9.735 -0.4212  0.0545  0.0866
  186loPI   C2B 2974   9.033   0.019   9.348  0.0410 -0.1417  0.0661
  186loPI   C3B 2975   8.931  -0.025   8.882 -0.2043  0.0814  0.0520
  186loPI   C4B 2976   8.813  -0.019   8.402  0.1146  0.1345 -0.1236
  187loPI    C1 2977   1.935  11.315  11.022 -0.1938 -0.1518  0.1427
  187loPI    C2 2978   1.984  11.639  11.251 -0.0430 -0.0780  0.0076
  187loPI    C3 2979   1.643  11.431  11.270  0.0154 -0.1467  0.3905
  187loPI   PO4 2980   2.141  11.359  10.811 -0.1246 -0.0797  0.0779
  187loPI   GL1 2981   2.001  11.598  10.497  0.2528 -0.0312 -0.1541
  187loPI   GL2 2982   2.343  11.552  10.323 -0.1915  0.0282 -0.0583
  187loPI   C1A 2983   1.966  11.761  10.068 -0.2279  0.0069  0.2584
  187loPI   C2A 2984   1.969  11.718   9.542  0.2585  0.0613  0.0457
  187loPI   C3A 2985   1.944  11.883   9.061 -0.2515  0.4963 -0.1439
  187loPI   C4A 2986   2.030  12.001   8.545  0.0989  0.0755  0.3539
  187loPI   C5A 2987   1.972  12.060   8.206 -0.1502  0.6533  0.1306
  187loPI   C6A 2988   1.698  12.369   7.849  0.1504  0.4078 -0.1124
  187loPI   C1B 2989   2.292  11.414   9.859 -0.3343  0.0099 -0.1079
  187loPI   C2B 2990   2.366  11.358   9.341 -0.0251  0.1568 -0.2644
  187loPI   C3B 2991   2.336  11.558   8.978  0.2104  0.0933 -0.0880
  187loPI   C4B 2992   2.476  11.514   8.645  0.3047  0.1637  0.2548
  188loPI    C1 2993   9.479   4.882  10.404 -0.0716 -0.1038 -0.1152
  188loPI    C2 2994   9.242   4.734  10.690  0.0016  0.0094  0.0049
  188loPI    C3 2995   9.626   4.812  10.769  0.1044 -0.2591 -0.2145
  188loPI   PO4 2996   9.378   4.699  10.168 -0.0656  0.3385 -0.2522
  188loPI   GL1 2997   9.184   4.525   9.739 -0.1388  0.0870 -0.0722
  188loPI   GL2 2998   9.463   4.663   9.634  0.2615  0.3004 -0.2221
  188loPI   C1A 2999   9.047   4.422   9.338 -0.1796  0.0726  0.0601
  188loPI   C2A 3000   8.991   4.332   8.918 -0.2839 -0.3405 -0.0657
  188loPI   C3A 3001   8.875   4.365   8.459  0.0966  0.0575  0.1903
  188loPI   C4A 3002   8.872   4.373   8.059  0.4456 -0.1448 -0.0028
  188loPI   C5A 3003   8.601   4.268   7.742 -0.2416  0.0327 -0.1591
  188loPI   C6A 3004   8.212   3.976   7.824  0.0282  0.2051 -0.3697
  188loPI   C1B 3005   9.536   4.580   9.151  0.1528 -0.1249  0.5424
  188loPI   C2B 3006   9.440   4.541   8.684 -0.0551 -0.1747 -0.0250
  188loPI   C3B 3007   9.353   4.608   8.225  0.1785 -0.1704  0.1774
  188loPI   C4B 3008   9.286   4.872   7.873 -0.1037  0.1962  0.5012
  189loPI    C1 3009   3.909   8.702  10.977  0.0112  0.0351 -0.1200
  189loPI    C2 3010   4.231   8.855  11.158 -0.0001 -0.1009  0.0164
  189loPI    C3 3011   3.870   9.012  11.227  0.0690  0.2371 -0.3568
  189loPI   PO4 3012   3.894   8.703  10.761 -0.1458  0.0763  0.1881
  189loPI   GL1 3013   3.795   8.519  10.290  0.1469  0.0257  0.2274
  189loPI   GL2 3014   3.904   8.889  10.277  0.3603  0.0158 -0.0189
  189loPI   C1A 3015   3.914   8.522   9.844 -0.0395 -0.1861 -0.0682
  189loPI   C2A 3016   3.968   8.599   9.361 -0.0137  0.1127  0.4875
  189loPI   C3A 3017   3.987   8.712   8.873  0.1991 -0.1111 -0.0205
  189loPI   C4A 3018   4.067   8.629   8.448  0.5748  0.0853  0.1246
  189loPI   C5A 3019   4.433   8.538   8.202 -0.0043  0.1265 -0.1629
  189loPI   C6A 3020   4.751   8.274   8.068  0.0057  0.3999 -0.0152
  189loPI   C1B 3021   4.043   9.029   9.867 -0.1292 -0.3812  0.3397
  189loPI   C2B 3022   4.058   9.111   9.390  0.3308  0.2450  0.2454
  189loPI   C3B 3023   4.141   9.172   8.955  0.1084 -0.0859  0.0975
  189loPI   C4B 3024   4.214   9.188   8.470 -0.1904 -0.0590  0.1338
  190loPI    C1 3025  15.993   8.156  10.814 -0.2169  0.2115  0.2637
  190loPI    C2 3026  16.343   8.066  10.987  0.2247  0.2875 -0.5394
  190loPI    C3 3027  16.214   8.445  10.981  0.1568  0.2696 -0.3018
  190loPI   PO4 3028  16.029   8.119  10.552  0.2363 -0.0255  0.1237
  190loPI   GL1 3029  16.289   8.000  10.294  0.3345  0.1705 -0.1269
  190loPI   GL2 3030  16.482   8.191  10.101  0.1719 -0.0294  0.0613
  190loPI   C1A 3031  16.293   7.765   9.904 -0.0246 -0.1359  0.0671
  190loPI   C2A 3032  16.525   7.807   9.485 -0.1471  0.0858  0.0934
  190loPI   C3A 3033  16.447   7.822   9.009 -0.1120  0.1069  0.0927
  190loPI   C4A 3034  16.481   7.811   8.669 -0.1025 -0.0358 -0.0522
  190loPI   C5A 3035  16.744   7.491   8.419  0.0271 -0.3430  0.3481
  190loPI   C6A 3036  16.700   7.192   8.021  0.1591 -0.1711  0.1825
  190loPI   C1B 3037  16.614   8.285   9.723  0.1788  0.0794  0.1278
  190loPI   C2B 3038  16.653   8.279   9.228  0.0244 -0.0127 -0.0739
  190loPI   C3B 3039  16.645   8.308   8.841  0.1297  0.0241 -0.2939
  190loPI   C4B 3040  16.559   8.279   8.412  0.1050  0.2869 -0.0426
  191loPI    C1 3041   1.399   7.206  11.205 -0.0296  0.2465 -0.0241
  191loPI    C2 3042   1.168   6.989  11.449  0.0466  0.2422  0.0446
  191loPI    C3 3043   1.471   7.203  11.599  0.2088  0.0936 -0.0667
  191loPI   PO4 3044   1.209   7.274  11.040  0.1160  0.2069  0.0733
  191loPI   GL1 3045   1.223   7.491  10.576  0.2984 -0.1585 -0.3245
  191loPI   GL2 3046   1.473   7.177  10.480 -0.1721  0.0944 -0.0116
  191loPI   C1A 3047   0.968   7.627  10.211 -0.2163 -0.2466 -0.0340
  191loPI   C2A 3048   0.934   7.576   9.894 -0.0410  0.0267 -0.0781
  191loPI   C3A 3049   0.933   7.622   9.465 -0.2866 -0.1285  0.0293
  191loPI   C4A 3050   0.937   7.662   9.029  0.1445 -0.3794 -0.1435
  191loPI   C5A 3051   0.985   7.748   8.633 -0.0614 -0.0617 -0.0520
  191loPI   C6A 3052   1.195   7.841   8.273  0.0912 -0.2451  0.0349
  191loPI   C1B 3053   1.366   7.214  10.132 -0.0614  0.2572  0.2827
  191loPI   C2B 3054   1.308   7.277   9.729  0.0162  0.0612  0.0406
  191loPI   C3B 3055   1.423   7.293   9.231 -0.0869 -0.2457 -0.0508
  191loPI   C4B 3056   1.306   7.409   8.765 -0.3523 -0.2670 -0.0063
  192loPI    C1 3057   8.557  13.065  11.103 -0.1719  0.0191 -0.1594
  192loPI    C2 3058   8.170  13.164  11.123 -0.1878 -0.0555 -0.0909
  192loPI    C3 3059   8.418  13.268  11.419 -0.1623 -0.0370 -0.1188
  192loPI   PO4 3060   8.616  13.072  10.805 -0.0223 -0.1448  0.1912
  192loPI   GL1 3061   8.521  13.082  10.385  0.0994  0.1484 -0.0546
  192loPI   GL2 3062   8.329  13.305  10.181 -0.2454  0.0621  0.1069
  192loPI   C1A 3063   8.778  13.022   9.939  0.0212 -0.0393  0.1098
  192loPI   C2A 3064   8.764  13.057   9.493  0.1031  0.1982 -0.2396
  192loPI   C3A 3065   8.630  13.032   9.064 -0.2609 -0.0160 -0.3877
  192loPI   C4A 3066   8.604  13.061   8.753  0.1112  0.3105 -0.1184
  192loPI   C5A 3067   8.491  13.042   8.215 -0.2016  0.1164  0.0029
  192loPI   C6A 3068   8.360  13.052   7.756  0.3402  0.0105  0.0764
  192loPI   C1B 3069   8.333  13.330   9.757 -0.1534  0.1214 -0.1400
  192loPI   C2B 3070   8.244  13.336   9.321  0.0231  0.0626  0.2414
  192loPI   C3B 3071   8.205  13.339   8.893 -0.6433  0.0406  0.0729
  192loPI   C4B 3072   8.502  13.522   8.571 -0.0021 -0.2714 -0.1385
  193loPI    C1 3073   2.021  10.278  11.291 -0.1856 -0.0784 -0.1272
  193loPI    C2 3074   1.631  10.305  11.375 -0.1545  0.0860 -0.0306
  193loPI    C3 3075   1.893  10.221  11.666 -0.1066  0.0848 -0.0742
  193loPI   PO4 3076   1.919  10.476  11.007  0.1144  0.4885 -0.1567
  193loPI   GL1 3077   2.311  10.596  10.573 -0.0853 -0.0186 -0.0398
  193loPI   GL2 3078   2.040  10.426  10.553 -0.1007  0.2231  0.1210
  193loPI   C1A 3079   2.539  10.572  10.197 -0.2529 -0.2518  0.2782
  193loPI   C2A 3080   2.619  10.583   9.686  0.1069  0.3788  0.2231
  193loPI   C3A 3081   2.636  10.484   9.289 -0.4785  0.2173 -0.1583
  193loPI   C4A 3082   2.588  10.588   8.859 -0.0460  0.0142 -0.1439
  193loPI   C5A 3083   2.554  10.640   8.320  0.3528  0.1703  0.0734
  193loPI   C6A 3084   2.614  10.999   7.987  0.1175 -0.0769 -0.0978
  193loPI   C1B 3085   2.048  10.493  10.067  0.2505 -0.2245 -0.0440
  193loPI   C2B 3086   2.099  10.418   9.689  0.0633  0.0586  0.2818
  193loPI   C3B 3087   2.137  10.408   9.287 -0.1416 -0.1474 -0.2412
  193loPI   C4B 3088   2.134  10.529   8.914 -0.0516 -0.1073  0.1186
  194loPI    C1 3089  13.873   6.160  10.337 -0.0991  0.0720  0.2110
  194loPI    C2 3090  14.049   6.211  10.692  0.1555 -0.1874  0.1258
  194loPI    C3 3091  13.845   5.875  10.616  0.2416 -0.2052 -0.0296
  194loPI   PO4 3092  14.057   6.142  10.160  0.5465 -0.1074  0.0077
  194loPI   GL1 3093  14.140   6.134   9.773  0.1714 -0.2896 -0.0132
  194loPI   GL2 3094  14.423   5.951   9.963 -0.0008  0.0246 -0.2537
  194loPI   C1A 3095  14.201   6.111   9.385  0.0697 -0.0577  0.1810
  194loPI   C2A 3096  14.196   6.161   8.878 -0.2185 -0.1011  0.1237
  194loPI   C3A 3097  14.106   6.082   8.371 -0.1506 -0.2088 -0.1594
  194loPI   C4A 3098  13.929   5.980   8.092 -0.0398 -0.0129 -0.0977
  194loPI   C5A 3099  13.648   6.127   7.821  0.2104  0.4897 -0.0066
  194loPI   C6A 3100  13.383   6.479   7.924 -0.2096 -0.1993 -0.4057
  194loPI   C1B 3101  14.480   5.823   9.643  0.1474  0.1495  0.2189
  194loPI   C2B 3102  14.586   5.789   9.168  0.0724 -0.2707 -0.0334
  194loPI   C3B 3103  14.563   5.777   8.873  0.2265 -0.0489  0.3266
  194loPI   C4B 3104  14.590   5.943   8.574 -0.1338  0.0511  0.1615
  195loPI    C1 3105   1.743  15.411  11.192 -0.1288  0.0346 -0.1611
  195loPI    C2 3106   1.538  15.692  11.391 -0.3311 -0.2380  0.0223
  195loPI    C3 3107   1.701  15.385  11.589 -0.2223 -0.3204 -0.1914
  195loPI   PO4 3108   1.774  15.567  10.944 -0.1307 -0.0086 -0.1697
  195loPI   GL1 3109   1.982  15.463  10.579  0.0932  0.1882 -0.3716
  195loPI   GL2 3110   1.782  15.204  10.468 -0.1557  0.1692 -0.0399
  195loPI   C1A 3111   1.928  15.621  10.183 -0.0045 -0.1306  0.5062
  195loPI   C2A 3112   1.874  15.576   9.627 -0.0912 -0.0356  0.0317
  195loPI   C3A 3113   1.899  15.608   9.209  0.0357 -0.3145  0.0339
  195loPI   C4A 3114   1.991  15.665   8.733  0.2146 -0.2641 -0.1604
  195loPI   C5A 3115   1.854  15.754   8.297 -0.2644 -0.3019  0.3441
  195loPI   C6A 3116   1.737  16.014   7.906  0.0756  0.0929 -0.2999
  195loPI   C1B 3117   1.719  15.007  10.061  0.0091 -0.2772  0.0826
  195loPI   C2B 3118   1.735  15.093   9.600 -0.0438  0.2277  0.3982
  195loPI   C3B 3119   1.760  15.121   9.159 -0.3069  0.1353  0.1794
  195loPI   C4B 3120   1.815  15.174   8.659  0.0295 -0.2759 -0.2184
  196loPI    C1 3121   4.557  12.485  10.792 -0.5165 -0.1269  0.0897
  196loPI    C2 3122   4.627  12.590  11.172  0.1161 -0.0327 -0.0410
  196loPI    C3 3123   4.392  12.817  10.942 -0.1505 -0.0102  0.2470
  196loPI   PO4 3124   4.771  12.353  10.755 -0.0964  0.1693  0.1447
  196loPI   GL1 3125   4.943  12.370  10.345  0.0301 -0.1306 -0.1801
  196loPI   GL2 3126   4.953  12.104  10.237  0.3623  0.0126  0.1214
  196loPI   C1A 3127   5.015  12.636   9.972  0.0109 -0.0851 -0.1451
  196loPI   C2A 3128   4.945  12.681   9.497 -0.1000 -0.1601 -0.0064
  196loPI   C3A 3129   4.831  12.787   9.199  0.0234 -0.0005  0.2890
  196loPI   C4A 3130   4.929  12.820   8.768  0.1374  0.1304  0.2203
  196loPI   C5A 3131   5.068  12.722   8.351  0.0361 -0.0691 -0.4435
  196loPI   C6A 3132   5.123  12.852   7.939 -0.0421 -0.0700  0.4042
  196loPI   C1B 3133   4.861  12.169   9.789 -0.2405  0.0345 -0.1180
  196loPI   C2B 3134   4.818  12.232   9.380 -0.1043 -0.1775  0.1283
  196loPI   C3B 3135   4.773  12.378   8.946  0.1308 -0.3710  0.0029
  196loPI   C4B 3136   4.771  12.330   8.513  0.2306  0.1889  0.0131
  197loPI    C1 3137   4.347   8.422  10.887  0.0280 -0.0180 -0.0532
  197loPI    C2 3138   4.466   8.442  11.269 -0.0506  0.1229 -0.0353
  197loPI    C3 3139   4.105   8.294  11.179 -0.0522  0.1363 -0.0510
  197loPI   PO4 3140   4.559   8.252  10.691  0.4375  0.0742 -0.0990
  197loPI   GL1 3141   4.499   8.194  10.263 -0.0326 -0.0847  0.2467
  197loPI   GL2 3142   4.807   8.262  10.221  0.1133 -0.1480  0.3705
  197loPI   C1A 3143   4.441   8.194   9.835 -0.2084 -0.2790 -0.0035
  197loPI   C2A 3144   4.362   8.306   9.402 -0.4702  0.2330  0.2127
  197loPI   C3A 3145   4.359   8.405   9.070  0.2824  0.0098 -0.1865
  197loPI   C4A 3146   4.492   8.248   8.619  0.1295  0.3723 -0.1443
  197loPI   C5A 3147   4.444   7.993   8.354 -0.1811  0.0591  0.1906
  197loPI   C6A 3148   4.464   7.580   8.056  0.4168 -0.0138  0.1336
  197loPI   C1B 3149   4.890   8.459   9.797 -0.0297 -0.1737 -0.3458
  197loPI   C2B 3150   4.833   8.537   9.387 -0.0879  0.0297 -0.0600
  197loPI   C3B 3151   4.871   8.414   9.031  0.1021  0.0665  0.2602
  197loPI   C4B 3152   5.006   8.467   8.608 -0.1876 -0.1134  0.0473
  198loPI    C1 3153   8.107  14.364  10.988  0.1128  0.3976 -0.2125
  198loPI    C2 3154   7.899  14.509  11.298  0.1372  0.1663 -0.0856
  198loPI    C3 3155   8.285  14.604  11.254  0.1452  0.1642 -0.0203
  198loPI   PO4 3156   7.971  14.363  10.770  0.0887 -0.1425  0.3366
  198loPI   GL1 3157   7.631  14.462  10.510  0.2526 -0.0024  0.2168
  198loPI   GL2 3158   7.282  14.367  10.520 -0.0251  0.2666  0.2905
  198loPI   C1A 3159   7.686  14.527  10.134 -0.0515  0.3876 -0.2336
  198loPI   C2A 3160   7.648  14.596   9.683  0.3283 -0.0075 -0.1801
  198loPI   C3A 3161   7.715  14.549   9.236  0.1756  0.0323  0.1853
  198loPI   C4A 3162   7.495  14.414   8.790  0.0346 -0.1055  0.0084
  198loPI   C5A 3163   7.212  14.473   8.398  0.2435 -0.1074 -0.2112
  198loPI   C6A 3164   6.918  14.314   8.311  0.1304  0.0159 -0.0483
  198loPI   C1B 3165   7.222  14.424  10.121  0.1114  0.1166  0.2751
  198loPI   C2B 3166   7.142  14.490   9.656 -0.1296  0.0953 -0.0701
  198loPI   C3B 3167   7.164  14.449   9.230  0.0939 -0.3048  0.2646
  198loPI   C4B 3168   6.969  14.296   8.779 -0.3469 -0.1717  0.1745
  199loPI    C1 3169  13.739   5.374  10.667 -0.0755 -0.1493 -0.0851
  199loPI    C2 3170  13.484   5.230  10.940  0.2833 -0.0838  0.2948
  199loPI    C3 3171  13.530   5.626  10.897  0.0924 -0.0899  0.0046
  199loPI   PO4 3172  13.699   5.276  10.391 -0.1588  0.2106  0.0845
  199loPI   GL1 3173  13.811   5.276   9.953 -0.1102  0.0998 -0.1916
  199loPI   GL2 3174  13.576   5.374   9.847  0.2277 -0.0414  0.1421
  199loPI   C1A 3175  14.233   5.237   9.701  0.0168  0.0669 -0.0278
  199loPI   C2A 3176  14.283   5.141   9.339  0.0677 -0.2648  0.2681
  199loPI   C3A 3177  14.456   5.251   8.923 -0.1509 -0.1334  0.1903
  199loPI   C4A 3178  14.397   5.392   8.516  0.1538 -0.2182 -0.0640
  199loPI   C5A 3179  14.413   5.709   8.157 -0.1806  0.2323  0.0801
  199loPI   C6A 3180  14.565   6.182   8.013  0.1723  0.1828 -0.4217
  199loPI   C1B 3181  13.512   5.489   9.488  0.3517 -0.3054  0.4607
  199loPI   C2B 3182  13.527   5.440   9.086  0.3169 -0.0304  0.3447
  199loPI   C3B 3183  13.572   5.445   8.682 -0.0451  0.3270  0.0149
  199loPI   C4B 3184  13.487   5.251   8.330 -0.0165 -0.1518  0.2610
  200loPI    C1 3185   0.449  17.719  11.048  0.3346 -0.1144  0.0153
  200loPI    C2 3186   0.761  17.766  11.294  0.1820 -0.1150  0.2111
  200loPI    C3 3187   0.528  17.442  11.326  0.0297 -0.0061  0.2150
  200loPI   PO4 3188   0.456  17.787  10.786 -0.1954  0.1265 -0.2206
  200loPI   GL1 3189   0.361  17.763  10.320  0.1170 -0.1539 -0.1020
  200loPI   GL2 3190   0.642  17.990  10.373 -0.0946  0.0201 -0.0743
  200loPI   C1A 3191   0.574  17.498   9.873 -0.1233  0.1894 -0.1139
  200loPI   C2A 3192   0.409  17.542   9.493  0.1771  0.0713 -0.1542
  200loPI   C3A 3193   0.427  17.592   9.055  0.3099 -0.3477  0.0495
  200loPI   C4A 3194   0.321  17.637   8.580  0.0597 -0.2321  0.1861
  200loPI   C5A 3195   0.046  17.912   8.338 -0.2339 -0.1521 -0.0366
  200loPI   C6A 3196  -0.254  17.918   8.036 -0.1720 -0.1054  0.0781
  200loPI   C1B 3197   0.542  17.990   9.932  0.0485 -0.2977  0.3707
  200loPI   C2B 3198   0.506  18.075   9.543 -0.1697 -0.1898  0.0758
  200loPI   C3B 3199   0.565  18.114   9.093  0.2730 -0.2496  0.2108
  200loPI   C4B 3200   0.360  18.123   8.659  0.1685  0.0533 -0.2337
  201loPI    C1 3201   5.064  11.023  10.979 -0.1949 -0.1350  0.2168
  201loPI    C2 3202   5.407  10.829  11.048 -0.1800 -0.1590  0.0782
  201loPI    C3 3203   5.198  10.980  11.354 -0.0894 -0.2183  0.1702
  201loPI   PO4 3204   5.088  11.019  10.709 -0.1941  0.1583 -0.0202
  201loPI   GL1 3205   4.794  10.962  10.417  0.0987 -0.0310 -0.1709
  201loPI   GL2 3206   5.082  10.866  10.232  0.0244 -0.0119  0.1787
  201loPI   C1A 3207   4.667  11.104  10.068  0.1511 -0.0254 -0.1404
  201loPI   C2A 3208   4.585  11.201   9.668 -0.0306  0.0853  0.0881
  201loPI   C3A 3209   4.515  11.225   9.261 -0.3623  0.0799 -0.1602
  201loPI   C4A 3210   4.581  11.207   8.819 -0.0487 -0.0610 -0.1974
  201loPI   C5A 3211   4.355  11.364   8.415  0.3996 -0.1086  0.1086
  201loPI   C6A 3212   4.214  11.653   8.281  0.0203 -0.3272  0.0945
  201loPI   C1B 3213   4.948  10.792   9.808  0.0426  0.1546  0.4989
  201loPI   C2B 3214   4.882  10.844   9.375 -0.0577  0.2211  0.4258
  201loPI   C3B 3215   4.917  10.909   8.964  0.0277  0.0266  0.0049
  201loPI   C4B 3216   5.031  10.828   8.499  0.1550 -0.3682  0.1520
  202loPI    C1 3217  17.207  13.726  10.880 -0.1917 -0.0375 -0.0324
  202loPI    C2 3218  17.074  13.367  10.997 -0.1214  0.0400  0.2961
  202loPI    C3 3219  17.084  13.671  11.257  0.3099  0.1432  0.1671
  202loPI   PO4 3220  17.052  13.801  10.643  0.2345 -0.2720  0.2343
  202loPI   GL1 3221  17.288  13.892  10.269  0.2074 -0.0121  0.0746
  202loPI   GL2 3222  17.058  14.083  10.255  0.1455  0.1170 -0.0014
  202loPI   C1A 3223  17.417  13.847   9.799  0.1501 -0.1107 -0.1335
  202loPI   C2A 3224  17.407  13.974   9.393 -0.0357  0.3186  0.1808
  202loPI   C3A 3225  17.360  13.903   8.975 -0.1528  0.2159 -0.1108
  202loPI   C4A 3226  17.353  13.909   8.558  0.1418  0.0010  0.1232
  202loPI   C5A 3227  17.209  14.036   8.258  0.1492 -0.0927 -0.4391
  202loPI   C6A 3228  16.964  13.969   7.952  0.3567  0.0708  0.1976
  202loPI   C1B 3229  17.052  14.146   9.831  0.3421  0.0913 -0.3596
  202loPI   C2B 3230  16.928  14.097   9.460  0.0867 -0.4393 -0.0363
  202loPI   C3B 3231  16.987  14.232   8.999 -0.1080  0.2643  0.2484
  202loPI   C4B 3232  16.915  14.291   8.556 -0.0604 -0.1129  0.0466
  203loPI    C1 3233   0.524  11.551  10.646 -0.0781  0.0338  0.0712
  203loPI    C2 3234   0.408  11.272  10.907  0.0058  0.0277  0.1026
  203loPI    C3 3235   0.361  11.660  10.994 -0.0112  0.0251  0.1055
  203loPI   PO4 3236   0.716  11.476  10.528 -0.0522 -0.4406 -0.0562
  203loPI   GL1 3237   0.824  11.261  10.162 -0.1201 -0.1021  0.1145
  203loPI   GL2 3238   1.067  11.481  10.112  0.2277 -0.0667 -0.0773
  203loPI   C1A 3239   0.848  10.938   9.814 -0.0560 -0.3765  0.0989
  203loPI   C2A 3240   0.824  10.912   9.439  0.0463  0.0120  0.1906
  203loPI   C3A 3241   0.885  11.111   9.006  0.1484 -0.2388  0.0175
  203loPI   C4A 3242   1.013  11.106   8.540 -0.1123  0.1072 -0.0378
  203loPI   C5A 3243   1.162  10.875   8.232  0.0355 -0.2061  0.3881
  203loPI   C6A 3244   1.454  10.934   7.791 -0.1866  0.0357 -0.4272
  203loPI   C1B 3245   1.003  11.410   9.639  0.3699 -0.1035 -0.1982
  203loPI   C2B 3246   0.978  11.576   9.261  0.1174 -0.0991  0.0462
  203loPI   C3B 3247   1.017  11.602   8.811 -0.2540 -0.0057 -0.0913
  203loPI   C4B 3248   1.016  11.529   8.299 -0.2934 -0.0043 -0.3867
  204loPI    C1 3249  12.442   0.268  11.019  0.0423  0.2480  0.1039
  204loPI    C2 3250  12.046   0.311  11.060  0.0275  0.0375  0.1922
  204loPI    C3 3251  12.245   0.054  11.293  0.1601 -0.1291 -0.0994
  204loPI   PO4 3252  12.498   0.288  10.734  0.3517  0.1589 -0.2187
  204loPI   GL1 3253  12.446   0.215  10.285 -0.1803  0.1201  0.1305
  204loPI   GL2 3254  12.705   0.353  10.257  0.3208  0.0374 -0.1550
  204loPI   C1A 3255  12.361   0.161   9.714  0.0497 -0.3463 -0.0004
  204loPI   C2A 3256  12.325   0.140   9.269  0.0864 -0.0068 -0.0018
  204loPI   C3A 3257  12.357   0.160   8.890  0.1197  0.0260  0.1424
  204loPI   C4A 3258  12.090   0.054   8.468 -0.0150 -0.1798 -0.1390
  204loPI   C5A 3259  12.451   0.098   8.172 -0.0930 -0.0899  0.0291
  204loPI   C6A 3260  12.820   0.328   8.074  0.0285  0.0548  0.4655
  204loPI   C1B 3261  12.897   0.370   9.894 -0.0877  0.3509  0.0652
  204loPI   C2B 3262  12.900   0.311   9.479  0.0499  0.0380  0.3978
  204loPI   C3B 3263  12.903   0.361   9.079 -0.3606  0.0963 -0.0186
  204loPI   C4B 3264  12.716   0.349   8.651  0.0876 -0.0691  0.4711
  205loPI    C1 3265  10.435   9.513  11.031 -0.0998  0.0821  0.0490
  205loPI    C2 3266  10.344   9.418  11.408  0.0263 -0.1370  0.0262
  205loPI    C3 3267  10.724   9.492  11.307 -0.0654  0.3866  0.0388
  205loPI   PO4 3268  10.236   9.363  10.862 -0.0357  0.1234  0.0231
  205loPI   GL1 3269  10.259   9.463  10.472  0.3589  0.0230 -0.2967
  205loPI   GL2 3270   9.952   9.157  10.454 -0.4143 -0.0870  0.0371
  205loPI   C1A 3271  10.266   9.622  10.064  0.4090 -0.0276  0.2078
  205loPI   C2A 3272  10.253   9.658   9.740 -0.2923 -0.2374 -0.2245
  205loPI   C3A 3273  10.219   9.624   9.223 -0.0895 -0.2362 -0.1977
  205loPI   C4A 3274  10.331   9.655   8.802  0.3922  0.4380  0.2488
  205loPI   C5A 3275  10.232   9.630   8.345  0.2176 -0.0082 -0.3715
  205loPI   C6A 3276  10.079   9.670   7.971  0.1524  0.0118  0.2424
  205loPI   C1B 3277  10.110   9.153  10.047 -0.2818  0.0182 -0.1760
  205loPI   C2B 3278  10.246   9.140   9.670  0.0790 -0.0691  0.2336
  205loPI   C3B 3279  10.242   9.016   9.229  0.2723  0.1908  0.2807
  205loPI   C4B 3280  10.252   9.156   8.678 -0.0475 -0.1741  0.0568
  206loPI    C1 3281  17.147  11.196  10.838 -0.1125  0.2428  0.0477
  206loPI    C2 3282  17.342  11.091  11.172  0.0853 -0.0779 -0.1631
  206loPI    C3 3283  16.943  11.117  11.173  0.0899  0.0164  0.1204
  206loPI   PO4 3284  17.286  11.100  10.646 -0.0883 -0.0206  0.0745
  206loPI   GL1 3285  17.100  10.991  10.312  0.0850  0.0193 -0.1365
  206loPI   GL2 3286  17.264  11.325  10.190  0.3735 -0.1168  0.1511
  206loPI   C1A 3287  17.069  10.824   9.865  0.3447 -0.2215 -0.0471
  206loPI   C2A 3288  17.195  10.885   9.525  0.1026  0.0058 -0.0478
  206loPI   C3A 3289  17.245  10.836   9.032 -0.4141  0.0934  0.1351
  206loPI   C4A 3290  17.152  10.898   8.603 -0.1751  0.1672 -0.1954
  206loPI   C5A 3291  17.164  11.027   8.188  0.1945  0.0616 -0.0403
  206loPI   C6A 3292  16.973  11.376   7.963  0.0595 -0.1915 -0.0719
  206loPI   C1B 3293  17.289  11.311   9.785 -0.2137  0.2163 -0.1081
  206loPI   C2B 3294  17.243  11.354   9.346 -0.0518  0.1735 -0.0105
  206loPI   C3B 3295  17.269  11.368   8.879  0.1104  0.0909 -0.2431
  206loPI   C4B 3296  17.319  11.376   8.514 -0.1029 -0.0394 -0.1368
  207loPI    C1 3297   2.228   6.501  11.275 -0.2954  0.1914 -0.0643
  207loPI    C2 3298   2.003   6.515  11.605 -0.0569 -0.0780  0.1141
  207loPI    C3 3299   2.345   6.721  11.587 -0.1146  0.0087 -0.0009
  207loPI   PO4 3300   2.002   6.494  10.981  0.1720 -0.0285  0.0733
  207loPI   GL1 3301   1.875   6.207  10.634  0.1713 -0.1699 -0.2216
  207loPI   GL2 3302   1.868   6.556  10.502 -0.3177 -0.1453  0.0104
  207loPI   C1A 3303   2.067   6.087  10.110 -0.0008  0.2713 -0.2823
  207loPI   C2A 3304   2.041   6.012   9.730  0.0193  0.1564 -0.1264
  207loPI   C3A 3305   1.916   6.025   9.276  0.1766  0.1540  0.1444
  207loPI   C4A 3306   2.009   6.083   8.881 -0.0378  0.1567 -0.1357
  207loPI   C5A 3307   1.957   6.091   8.452  0.2161 -0.0226 -0.0728
  207loPI   C6A 3308   1.978   6.243   8.099  0.3327 -0.1806  0.0815
  207loPI   C1B 3309   1.739   6.851  10.174 -0.3468 -0.1378 -0.2979
  207loPI   C2B 3310   1.668   6.790   9.750  0.1988  0.1552 -0.2670
  207loPI   C3B 3311   1.825   6.948   9.368  0.2385  0.1000  0.0356
  207loPI   C4B 3312   1.684   6.987   8.913 -0.2810 -0.0081  0.1668
  208loPI    C1 3313  12.236  14.136  11.043  0.0356 -0.0105  0.0193
  208loPI    C2 3314  12.635  14.127  11.067  0.0590  0.3137 -0.1884
  208loPI    C3 3315  12.430  14.413  11.257 -0.0863  0.0758  0.0191
  208loPI   PO4 3316  12.233  14.016  10.838  0.0369  0.1759  0.4277
  208loPI   GL1 3317  11.898  14.003  10.536  0.0669  0.3464  0.2136
  208loPI   GL2 3318  12.196  14.108  10.322 -0.1238 -0.0292 -0.0655
  208loPI   C1A 3319  11.818  14.008  10.027  0.0625 -0.2406  0.1779
  208loPI   C2A 3320  11.689  13.897   9.653  0.2903 -0.0607  0.3426
  208loPI   C3A 3321  11.769  13.824   9.314  0.1949 -0.1431 -0.0819
  208loPI   C4A 3322  11.783  13.883   8.859  0.0855 -0.1256 -0.1713
  208loPI   C5A 3323  11.693  14.129   8.517 -0.2040 -0.0881 -0.1559
  208loPI   C6A 3324  11.789  13.871   8.129 -0.0823  0.0541 -0.1383
  208loPI   C1B 3325  12.346  13.970   9.935 -0.2847 -0.0857 -0.2720
  208loPI   C2B 3326  12.292  14.041   9.498 -0.3305  0.0407 -0.0494
  208loPI   C3B 3327  12.259  14.079   8.967 -0.2111  0.3195  0.0322
  208loPI   C4B 3328  12.164  13.971   8.545 -0.3715 -0.2747 -0.2480
  209loPI    C1 3329   2.186   4.603  10.854 -0.0340 -0.2204 -0.1937
  209loPI    C2 3330   1.794   4.662  10.905  0.0516  0.2681 -0.0493
  209loPI    C3 3331   1.955   4.699  10.541  0.0007  0.2970 -0.0690
  209loPI   PO4 3332   2.201   4.353  10.917 -0.1909  0.2090 -0.1899
  209loPI   GL1 3333   2.431   4.118  10.590 -0.0490  0.1872 -0.0646
  209loPI   GL2 3334   2.638   4.306  10.458 -0.3248  0.1094  0.0169
  209loPI   C1A 3335   2.371   3.772  10.385  0.0464 -0.1397  0.3108
  209loPI   C2A 3336   2.452   3.642   9.924  0.3321 -0.0379 -0.0714
  209loPI   C3A 3337   2.527   3.844   9.491  0.1334 -0.0829  0.3752
  209loPI   C4A 3338   2.387   3.748   9.117 -0.2243  0.0592 -0.1045
  209loPI   C5A 3339   2.405   3.874   8.771  0.0554  0.0217 -0.0674
  209loPI   C6A 3340   2.356   3.872   8.434 -0.0081 -0.1577 -0.0516
  209loPI   C1B 3341   2.622   4.278  10.021 -0.0024 -0.0541  0.1994
  209loPI   C2B 3342   2.588   4.414   9.529 -0.4224 -0.0154  0.1138
  209loPI   C3B 3343   2.555   4.332   8.988  0.3379  0.0169 -0.0766
  209loPI   C4B 3344   2.581   4.402   8.486  0.1067  0.1016  0.1268
  210loPI    C1 3345  12.768  11.719  11.111 -0.1757 -0.1617 -0.0991
  210loPI    C2 3346  12.498  11.669  11.401 -0.0408  0.1660  0.0879
  210loPI    C3 3347  12.785  11.946  11.440  0.2174 -0.0568 -0.1855
  210loPI   PO4 3348  12.689  11.782  10.896 -0.2023  0.0742 -0.1681
  210loPI   GL1 3349  12.907  11.751  10.511  0.2762  0.1381  0.1458
  210loPI   GL2 3350  12.752  11.803  10.369  0.0091 -0.0828 -0.2056
  210loPI   C1A 3351  13.080  11.947  10.013 -0.0301 -0.3500  0.0949
  210loPI   C2A 3352  13.142  11.952   9.526  0.2516 -0.0387 -0.1852
  210loPI   C3A 3353  13.215  12.038   9.210  0.1642 -0.0833  0.1334
  210loPI   C4A 3354  13.222  11.945   8.799 -0.2328  0.0120  0.1251
  210loPI   C5A 3355  13.268  11.976   8.340 -0.1519  0.1516  0.1617
  210loPI   C6A 3356  13.022  11.973   7.872 -0.0330  0.2727 -0.1778
  210loPI   C1B 3357  12.596  11.803   9.941  0.1851 -0.2777 -0.3086
  210loPI   C2B 3358  12.626  11.868   9.502 -0.0034 -0.2705 -0.0647
  210loPI   C3B 3359  12.767  11.852   9.031 -0.2293  0.0798 -0.3791
  210loPI   C4B 3360  12.781  11.739   8.550  0.0532  0.1112 -0.1265
  211loPI    C1 3361  14.033  13.524  10.897 -0.0329  0.1947  0.1700
  211loPI    C2 3362  14.193  13.277  11.168  0.0798  0.1561  0.0692
  211loPI    C3 3363  14.188  13.671  11.235  0.3435  0.1706  0.0128
  211loPI   PO4 3364  14.190  13.578  10.671 -0.1766  0.2046 -0.3823
  211loPI   GL1 3365  14.030  13.490  10.229 -0.4434  0.0527  0.3126
  211loPI   GL2 3366  14.023  13.762  10.227 -0.0836  0.3637  0.5093
  211loPI   C1A 3367  14.250  13.271   9.963 -0.0040  0.1335 -0.1354
  211loPI   C2A 3368  14.418  13.219   9.524  0.1145 -0.1554 -0.1166
  211loPI   C3A 3369  14.386  13.339   9.096 -0.3444  0.1954 -0.2231
  211loPI   C4A 3370  14.420  13.308   8.705 -0.1790 -0.2176 -0.0329
  211loPI   C5A 3371  14.308  13.635   8.337 -0.2588  0.2223  0.1219
  211loPI   C6A 3372  14.402  13.929   8.055  0.2937 -0.1616  0.3248
  211loPI   C1B 3373  14.006  13.593   9.749 -0.1800 -0.1150  0.0044
  211loPI   C2B 3374  13.985  13.665   9.308 -0.1264 -0.4096 -0.0048
  211loPI   C3B 3375  13.953  13.668   8.774  0.1499  0.0118 -0.0277
  211loPI   C4B 3376  13.831  13.859   8.262 -0.0171 -0.0068 -0.1313
  212loPI    C1 3377   4.289   0.397  11.140 -0.0714  0.0692 -0.2412
  212loPI    C2 3378   4.553   0.117  11.252 -0.3021  0.0016  0.1511
  212loPI    C3 3379   4.583   0.489  11.396 -0.1611  0.1112 -0.1530
  212loPI   PO4 3380   4.338   0.367  10.883 -0.1190  0.0406  0.4500
  212loPI   GL1 3381   4.208   0.313  10.546 -0.1298 -0.2730  0.0019
  212loPI   GL2 3382   4.216   0.047  10.465  0.0595  0.1352  0.1018
  212loPI   C1A 3383   4.038   0.421  10.137 -0.1548 -0.3015  0.1012
  212loPI   C2A 3384   4.004   0.360   9.709  0.1699  0.1475  0.0419
  212loPI   C3A 3385   3.953   0.463   9.245  0.0544 -0.0393  0.1995
  212loPI   C4A 3386   3.888   0.445   8.846 -0.3329  0.0831  0.1772
  212loPI   C5A 3387   3.762   0.455   8.429  0.0924  0.2531  0.0374
  212loPI   C6A 3388   3.792   0.479   7.902  0.2806  0.0278 -0.1659
  212loPI   C1B 3389   4.432   0.086  10.095  0.0185 -0.0871 -0.0418
  212loPI   C2B 3390   4.424   0.094   9.697  0.0872 -0.3381  0.0107
  212loPI   C3B 3391   4.393  -0.027   9.292  0.3045  0.2590  0.1189
  212loPI   C4B 3392   4.362  -0.052   8.881  0.1682  0.0880 -0.1257
  213loPI    C1 3393   1.806  14.723  11.104 -0.1485  0.1189 -0.2203
  213loPI    C2 3394   1.415  14.687  11.178 -0.0953 -0.2054 -0.0783
  213loPI    C3 3395   1.635  14.947  11.388 -0.2374 -0.0011 -0.1785
  213loPI   PO4 3396   1.852  14.799  10.803  0.3529  0.2068  0.0936
  213loPI   GL1 3397   2.181  14.819  10.554 -0.0252 -0.1493  0.2104
  213loPI   GL2 3398   2.294  15.098  10.563  0.0843 -0.1722 -0.0728
  213loPI   C1A 3399   2.158  14.748  10.178 -0.3766 -0.2599 -0.3527
  213loPI   C2A 3400   2.044  14.757   9.817  0.2192  0.0140  0.2577
  213loPI   C3A 3401   2.001  14.698   9.437  0.2569  0.1928 -0.0270
  213loPI   C4A 3402   2.100  14.652   9.069  0.0090  0.1272  0.0830
  213loPI   C5A 3403   2.272  14.854   8.667 -0.1789 -0.1336  0.0476
  213loPI   C6A 3404   2.421  15.298   8.615 -0.1499 -0.2243 -0.1017
  213loPI   C1B 3405   2.309  15.249  10.174  0.3676 -0.2129 -0.1930
  213loPI   C2B 3406   2.167  15.325   9.866 -0.2867  0.0975  0.0585
  213loPI   C3B 3407   2.224  15.155   9.481 -0.1028 -0.2299  0.3867
  213loPI   C4B 3408   2.218  15.226   9.018  0.0487  0.1419  0.0047
  214loPI    C1 3409   1.224   0.140  11.269  0.2194  0.2003  0.1849
  214loPI    C2 3410   0.832   0.221  11.271  0.1994  0.1170 -0.0325
  214loPI    C3 3411   0.982  -0.047  11.527  0.0734 -0.0319 -0.1130
  214loPI   PO4 3412   1.261   0.139  10.984 -0.3706  0.1184  0.1068
  214loPI   GL1 3413   1.320   0.181  10.568 -0.0426  0.1344 -0.1484
  214loPI   GL2 3414   1.046   0.026  10.466 -0.0738  0.2964  0.0482
  214loPI   C1A 3415   1.628   0.194  10.207 -0.0158 -0.1207  0.0638
  214loPI   C2A 3416   1.565   0.223   9.767 -0.0697  0.1173 -0.1431
  214loPI   C3A 3417   1.613   0.265   9.473 -0.1260 -0.3869 -0.1018
  214loPI   C4A 3418   1.573   0.264   9.026 -0.3651 -0.3017  0.5036
  214loPI   C5A 3419   1.502   0.292   8.585 -0.0771  0.0367 -0.2554
  214loPI   C6A 3420   1.282   0.255   8.145 -0.2626  0.4479  0.0156
  214loPI   C1B 3421   1.168   0.038  10.049 -0.0686  0.1377 -0.3302
  214loPI   C2B 3422   1.103   0.110   9.628 -0.1429  0.3712  0.1466
  214loPI   C3B 3423   1.086   0.048   9.209 -0.0648  0.1110  0.1797
  214loPI   C4B 3424   1.056   0.045   8.781  0.3316 -0.1568 -0.1445
  215loPI    C1 3425   2.318  10.910  11.010  0.0190 -0.0199 -0.0524
  215loPI    C2 3426   2.421  10.547  11.144  0.0122  0.0335  0.0998
  215loPI    C3 3427   2.176  10.778  11.360 -0.1237  0.0596 -0.0798
  215loPI   PO4 3428   2.554  10.994  10.964 -0.1009 -0.1571  0.1724
  215loPI   GL1 3429   2.528  11.145  10.540 -0.0548 -0.0770  0.0530
  215loPI   GL2 3430   2.808  11.010  10.375 -0.2940 -0.1465 -0.0269
  215loPI   C1A 3431   2.296  10.985  10.163  0.2509  0.0711  0.1026
  215loPI   C2A 3432   2.139  10.919   9.736 -0.0145 -0.2611  0.0608
  215loPI   C3A 3433   2.304  10.832   9.324  0.0575 -0.3011 -0.4546
  215loPI   C4A 3434   2.272  11.058   8.911 -0.1579 -0.2097  0.3081
  215loPI   C5A 3435   2.316  11.172   8.383 -0.0923 -0.0209  0.0274
  215loPI   C6A 3436   2.080  11.528   8.154 -0.0215 -0.1886 -0.0139
  215loPI   C1B 3437   2.797  11.010   9.935  0.1659 -0.1716  0.2978
  215loPI   C2B 3438   2.713  11.046   9.481 -0.1947  0.1516 -0.3868
  215loPI   C3B 3439   2.785  11.093   9.072  0.3101 -0.0370  0.0066
  215loPI   C4B 3440   2.783  11.092   8.584  0.4414  0.0485 -0.2320
  216loPI    C1 3441  12.378  16.022  10.818  0.0844  0.0889 -0.1390
  216loPI    C2 3442  12.186  16.367  10.755 -0.0323  0.0403 -0.0535
  216loPI    C3 3443  12.263  16.246  11.129  0.2820  0.1231 -0.0891
  216loPI   PO4 3444  12.548  16.037  10.580  0.2050 -0.1070 -0.0907
  216loPI   GL1 3445  12.716  15.829  10.329  0.2719  0.0112 -0.5553
  216loPI   GL2 3446  12.777  16.100  10.092 -0.2566  0.0853  0.2383
  216loPI   C1A 3447  12.611  15.605   9.901  0.0363 -0.0608 -0.0274
  216loPI   C2A 3448  12.668  15.566   9.494 -0.2545  0.0186 -0.0181
  216loPI   C3A 3449  12.653  15.617   9.053 -0.1566  0.1781 -0.4194
  216loPI   C4A 3450  12.537  15.382   8.730  0.2596 -0.1543 -0.5140
  216loPI   C5A 3451  12.440  15.120   8.326  0.0744 -0.0080  0.2667
  216loPI   C6A 3452  12.176  14.811   8.098  0.1692 -0.1446 -0.1567
  216loPI   C1B 3453  12.720  16.079   9.640 -0.3443 -0.2226 -0.0494
  216loPI   C2B 3454  12.730  16.091   9.251 -0.2659 -0.0476  0.0538
  216loPI   C3B 3455  12.619  16.178   8.872  0.1281 -0.1824  0.1335
  216loPI   C4B 3456  12.521  16.188   8.411  0.0304 -0.5826  0.2064
  217loPI    C1 3457  11.463   9.250  10.930  0.2055  0.1038 -0.3481
  217loPI    C2 3458  11.366   9.577  10.722 -0.0119  0.1195 -0.2251
  217loPI    C3 3459  11.210   9.518  11.086  0.1096 -0.0686 -0.2024
  217loPI   PO4 3460  11.458   9.073  10.785 -0.1890  0.4397  0.1612
  217loPI   GL1 3461  11.072   9.054  10.582  0.4014 -0.1322 -0.1446
  217loPI   GL2 3462  11.210   9.233  10.292  0.0230 -0.2532  0.3608
  217loPI   C1A 3463  10.987   8.873  10.149 -0.2502  0.3104  0.2595
  217loPI   C2A 3464  11.044   8.812   9.598 -0.1504  0.4708  0.1331
  217loPI   C3A 3465  10.976   9.014   9.247  0.2042  0.1740 -0.1161
  217loPI   C4A 3466  11.085   9.019   8.807  0.2776  0.3884  0.0248
  217loPI   C5A 3467  11.273   9.046   8.387 -0.1072 -0.0665 -0.2607
  217loPI   C6A 3468  11.252   8.805   8.001  0.1634 -0.2950 -0.1762
  217loPI   C1B 3469  11.132   9.316   9.825 -0.0039  0.2837  0.2779
  217loPI   C2B 3470  11.135   9.470   9.455  0.3440  0.2232 -0.0204
  217loPI   C3B 3471  11.166   9.522   9.062  0.3493  0.1124 -0.0267
  217loPI   C4B 3472  11.344   9.443   8.680  0.1197  0.0774  0.1043
  218loPI    C1 3473   2.035   1.122  11.238  0.2562 -0.1933 -0.1869
  218loPI    C2 3474   2.214   1.301  11.547  0.1228  0.1980 -0.3299
  218loPI    C3 3475   1.951   1.007  11.612  0.1841  0.1962 -0.0784
  218loPI   PO4 3476   2.264   1.224  11.034 -0.2355  0.1111  0.0827
  218loPI   GL1 3477   2.340   1.284  10.567 -0.1668 -0.1920  0.0139
  218loPI   GL2 3478   2.369   0.969  10.567 -0.2761  0.3309  0.0817
  218loPI   C1A 3479   2.385   1.326  10.079 -0.0231  0.0218  0.2015
  218loPI   C2A 3480   2.366   1.458   9.660 -0.0890  0.2462  0.0837
  218loPI   C3A 3481   2.358   1.314   9.276  0.0115  0.1264  0.0950
  218loPI   C4A 3482   2.274   1.412   8.866 -0.1223  0.2239  0.2170
  218loPI   C5A 3483   2.098   1.773   8.717 -0.3218 -0.1885  0.2830
  218loPI   C6A 3484   1.824   1.989   8.421 -0.0972  0.0355 -0.3154
  218loPI   C1B 3485   2.161   0.819  10.187 -0.1249 -0.2430 -0.1473
  218loPI   C2B 3486   2.265   0.872   9.701  0.0732  0.1405 -0.0575
  218loPI   C3B 3487   2.189   0.846   9.357 -0.1447  0.0999 -0.1829
  218loPI   C4B 3488   2.230   0.902   8.946  0.3311 -0.4673  0.0649
  219loPI    C1 3489  10.640  16.866  10.741 -0.1359 -0.0037  0.2326
  219loPI    C2 3490  10.766  16.503  10.853 -0.1250 -0.0793 -0.0211
  219loPI    C3 3491  10.432  16.656  11.011 -0.0937 -0.1715  0.1359
  219loPI   PO4 3492  10.659  16.916  10.420 -0.0878  0.0964 -0.0773
  219loPI   GL1 3493  10.642  16.858   9.979  0.3389  0.1359  0.1761
  219loPI   GL2 3494  10.364  16.901   9.948 -0.0792  0.0513 -0.0837
  219loPI   C1A 3495  10.958  17.023   9.707 -0.0702  0.0522  0.3182
  219loPI   C2A 3496  11.077  17.061   9.287 -0.0975  0.0132 -0.0064
  219loPI   C3A 3497  10.946  16.978   8.866  0.0441 -0.1207 -0.0403
  219loPI   C4A 3498  10.913  16.908   8.497  0.3167 -0.1548  0.3497
  219loPI   C5A 3499  11.073  16.819   8.181 -0.2068  0.2251 -0.0106
  219loPI   C6A 3500  11.176  16.367   8.112  0.0222 -0.0014  0.2462
  219loPI   C1B 3501  10.534  16.907   9.504 -0.1053 -0.1212  0.0917
  219loPI   C2B 3502  10.515  16.863   9.123  0.0171 -0.0914 -0.3443
  219loPI   C3B 3503  10.435  16.837   8.711 -0.0666 -0.0396  0.0380
  219loPI   C4B 3504  10.354  16.769   8.324 -0.0097  0.1518  0.0236
  220loPI    C1 3505  15.457  16.868  10.878  0.0457  0.0631  0.1060
  220loPI    C2 3506  15.219  17.041  11.149 -0.0994 -0.2190  0.1632
  220loPI    C3 3507  15.583  16.913  11.254 -0.0003  0.0257  0.1259
  220loPI   PO4 3508  15.330  16.994  10.627 -0.0849 -0.4592  0.0823
  220loPI   GL1 3509  15.520  17.078  10.190  0.2655 -0.5918  0.1281
  220loPI   GL2 3510  15.136  17.026  10.128 -0.0446  0.1134 -0.0898
  220loPI   C1A 3511  15.466  16.838   9.876  0.0771  0.2563  0.2192
  220loPI   C2A 3512  15.631  16.729   9.547 -0.2526  0.0824  0.2911
  220loPI   C3A 3513  15.670  16.620   9.041 -0.0064  0.3039 -0.0931
  220loPI   C4A 3514  15.555  16.647   8.592 -0.2136 -0.0821  0.0892
  220loPI   C5A 3515  15.420  16.716   8.260 -0.1661 -0.3914 -0.1053
  220loPI   C6A 3516  15.026  16.957   8.142 -0.1397 -0.0963 -0.2084
  220loPI   C1B 3517  14.992  16.932   9.721 -0.1005 -0.1748  0.0968
  220loPI   C2B 3518  15.180  16.817   9.392  0.1359  0.0556 -0.0683
  220loPI   C3B 3519  15.277  16.989   9.026  0.0222  0.0646  0.1900
  220loPI   C4B 3520  15.173  16.982   8.642  0.0672  0.0390 -0.2475
  221loPI    C1 3521   7.380  12.534  10.752  0.1146  0.2672  0.0982
  221loPI    C2 3522   7.501  12.504  11.132  0.0904  0.0830  0.0923
  221loPI    C3 3523   7.763  12.452  10.834  0.0580 -0.0256  0.0823
  221loPI   PO4 3524   7.260  12.740  10.714  0.1334  0.2422 -0.1124
  221loPI   GL1 3525   7.124  12.618  10.309 -0.0505  0.1291  0.4551
  221loPI   GL2 3526   6.911  12.904  10.301  0.0607  0.3317  0.2022
  221loPI   C1A 3527   7.151  12.484   9.899 -0.0585  0.0591 -0.1200
  221loPI   C2A 3528   7.111  12.580   9.483 -0.0845  0.4603 -0.3349
  221loPI   C3A 3529   7.046  12.437   9.067 -0.2758  0.1269 -0.0332
  221loPI   C4A 3530   7.141  12.550   8.682 -0.2881  0.1711  0.0108
  221loPI   C5A 3531   7.048  12.587   8.289  0.1037 -0.1781  0.3692
  221loPI   C6A 3532   6.694  12.873   7.971  0.2061  0.0710 -0.1849
  221loPI   C1B 3533   6.784  12.855   9.864  0.1597 -0.0763  0.0352
  221loPI   C2B 3534   6.712  12.924   9.373 -0.1124 -0.0575  0.3900
  221loPI   C3B 3535   6.755  12.870   8.908 -0.1386  0.5049  0.0522
  221loPI   C4B 3536   6.747  13.022   8.505 -0.0713 -0.0399  0.3573
  222loPI    C1 3537   2.580  13.111  10.953  0.0058  0.0934  0.1641
  222loPI    C2 3538   2.302  13.324  11.146 -0.2433 -0.0377 -0.0439
  222loPI    C3 3539   2.420  12.970  11.291 -0.0045  0.1278  0.1735
  222loPI   PO4 3540   2.523  13.157  10.713 -0.2548 -0.0056  0.1213
  222loPI   GL1 3541   2.684  13.228  10.393  0.1428  0.2627  0.3244
  222loPI   GL2 3542   2.401  13.476  10.282 -0.0570  0.5417 -0.2012
  222loPI   C1A 3543   2.649  13.089  10.036 -0.0952  0.1089  0.3752
  222loPI   C2A 3544   2.678  13.067   9.594  0.0058 -0.2870 -0.2457
  222loPI   C3A 3545   2.579  13.018   9.134  0.1488 -0.0893 -0.1140
  222loPI   C4A 3546   2.656  12.921   8.742  0.4422 -0.0012  0.0694
  222loPI   C5A 3547   2.903  12.861   8.322  0.1962  0.2881 -0.0651
  222loPI   C6A 3548   3.122  12.966   7.962  0.1576  0.0428  0.1722
  222loPI   C1B 3549   2.281  13.439   9.835  0.1411  0.1636 -0.0854
  222loPI   C2B 3550   2.283  13.301   9.433  0.0759 -0.0048 -0.0641
  222loPI   C3B 3551   2.210  13.361   8.968  0.0643  0.0003 -0.1007
  222loPI   C4B 3552   2.375  13.287   8.523  0.1396  0.0549  0.0777
  223loPI    C1 3553   0.151  16.616  10.726  0.0309 -0.0720 -0.0550
  223loPI    C2 3554  -0.202  16.610  10.913 -0.0662 -0.0862 -0.2368
  223loPI    C3 3555  -0.015  16.267  10.829  0.0752 -0.0729  0.0141
  223loPI   PO4 3556   0.229  16.838  10.586 -0.0023  0.2485  0.1322
  223loPI   GL1 3557   0.043  16.704  10.170  0.0414  0.1216  0.1281
  223loPI   GL2 3558  -0.112  16.892  10.023 -0.1445 -0.1123 -0.0846
  223loPI   C1A 3559   0.177  16.574   9.765 -0.3112 -0.2996  0.0761
  223loPI   C2A 3560   0.112  16.609   9.381 -0.0043 -0.0092  0.1168
  223loPI   C3A 3561   0.157  16.533   9.083 -0.1307 -0.1239  0.2653
  223loPI   C4A 3562   0.203  16.627   8.656  0.0691  0.1735  0.0514
  223loPI   C5A 3563   0.113  16.288   8.352  0.0747 -0.2963  0.1659
  223loPI   C6A 3564   0.010  15.970   8.138  0.2081  0.2227 -0.1373
  223loPI   C1B 3565  -0.226  16.888   9.726  0.2373 -0.1745 -0.1042
  223loPI   C2B 3566  -0.199  16.944   9.283 -0.1041 -0.0248  0.3328
  223loPI   C3B 3567  -0.286  16.950   8.872 -0.1229  0.0393  0.2771
  223loPI   C4B 3568  -0.352  16.894   8.460 -0.2179  0.0198  0.2762
  224loPI    C1 3569  16.267   8.869  10.699 -0.1150 -0.1767 -0.0887
  224loPI    C2 3570  16.063   8.935  11.037 -0.0752 -0.1270 -0.0742
  224loPI    C3 3571  16.451   8.838  11.053 -0.0415  0.0006 -0.1100
  224loPI   PO4 3572  16.150   8.732  10.574 -0.1191 -0.1572  0.3657
  224loPI   GL1 3573  15.985   8.530  10.165  0.1216  0.1093 -0.0400
  224loPI   GL2 3574  15.938   8.332  10.123  0.1885 -0.1394 -0.0254
  224loPI   C1A 3575  16.217   8.691   9.796 -0.0653 -0.1639  0.0838
  224loPI   C2A 3576  16.219   8.593   9.453  0.3588 -0.2433  0.1728
  224loPI   C3A 3577  16.265   8.611   9.083 -0.0684 -0.4474 -0.0580
  224loPI   C4A 3578  16.252   8.634   8.661  0.0662  0.1728 -0.2805
  224loPI   C5A 3579  16.151   8.547   8.231  0.2642  0.1420  0.0106
  224loPI   C6A 3580  15.876   8.788   7.938  0.0362 -0.2610  0.0396
  224loPI   C1B 3581  16.055   8.207   9.709  0.1405  0.2989 -0.0409
  224loPI   C2B 3582  16.121   8.138   9.306  0.0896  0.0754  0.1062
  224loPI   C3B 3583  16.137   8.184   8.819  0.1524 -0.1717  0.2416
  224loPI   C4B 3584  16.110   8.093   8.365 -0.0439 -0.2310  0.2248
  225loPI    C1 3585   1.905  13.733  10.842  0.1657 -0.1172  0.1390
  225loPI    C2 3586   1.762  13.922  11.164 -0.4515  0.0620 -0.2253
  225loPI    C3 3587   1.706  13.528  11.122 -0.1206 -0.0144  0.0141
  225loPI   PO4 3588   1.745  13.926  10.647 -0.2123 -0.0666  0.1740
  225loPI   GL1 3589   1.334  13.794  10.349  0.1575 -0.1935 -0.1722
  225loPI   GL2 3590   1.498  14.080  10.261  0.0925 -0.1868  0.1994
  225loPI   C1A 3591   1.374  13.567  10.098 -0.1147 -0.1392 -0.0210
  225loPI   C2A 3592   1.436  13.574   9.709  0.1126  0.1529 -0.0815
  225loPI   C3A 3593   1.365  13.561   9.255  0.2579 -0.1282  0.1950
  225loPI   C4A 3594   1.439  13.578   8.806 -0.0702  0.2370 -0.3221
  225loPI   C5A 3595   1.536  13.605   8.315  0.2045  0.2072 -0.0869
  225loPI   C6A 3596   1.735  13.429   7.986  0.0018  0.1486  0.1285
  225loPI   C1B 3597   1.485  14.046   9.880 -0.2763 -0.0358 -0.2042
  225loPI   C2B 3598   1.472  14.079   9.520 -0.0291  0.2406 -0.0301
  225loPI   C3B 3599   1.505  14.047   9.072 -0.0537 -0.0896 -0.0234
  225loPI   C4B 3600   1.606  14.045   8.652  0.0953 -0.3111 -0.3543
  226loPI    C1 3601  16.530  12.892  10.641 -0.0731 -0.0361 -0.1589
  226loPI    C2 3602  16.893  12.811  10.494  0.0996  0.0653  0.2008
  226loPI    C3 3603  16.853  12.933  10.873 -0.3119  0.0567  0.1647
  226loPI   PO4 3604  16.391  12.975  10.489 -0.3321  0.2354 -0.1347
  226loPI   GL1 3605  16.397  13.295  10.129  0.0913 -0.1550  0.0369
  226loPI   GL2 3606  16.633  13.024  10.085 -0.3089  0.1563 -0.0423
  226loPI   C1A 3607  16.356  13.516   9.666 -0.0080  0.0328  0.0186
  226loPI   C2A 3608  16.335  13.512   9.202  0.0256 -0.1092 -0.3537
  226loPI   C3A 3609  16.330  13.550   8.773 -0.1509 -0.0275  0.1851
  226loPI   C4A 3610  16.318  13.554   8.267 -0.1467 -0.0824  0.1449
  226loPI   C5A 3611  16.068  13.543   7.962 -0.1067 -0.0838 -0.1341
  226loPI   C6A 3612  15.776  13.829   7.842  0.1398  0.0737  0.0331
  226loPI   C1B 3613  16.760  13.222   9.772  0.0198 -0.0139 -0.4185
  226loPI   C2B 3614  16.799  13.144   9.344 -0.3061  0.0766  0.1482
  226loPI   C3B 3615  16.757  13.182   8.981 -0.2872  0.0007 -0.1738
  226loPI   C4B 3616  16.636  13.246   8.516 -0.0403  0.2191 -0.2360
  227loPI    C1 3617   9.924  18.176  10.720 -0.1586 -0.0886  0.2535
  227loPI    C2 3618  10.250  18.096  10.937  0.0119  0.1838  0.1045
  227loPI    C3 3619  10.055  18.441  10.990  0.0164  0.2231 -0.1272
  227loPI   PO4 3620   9.964  18.088  10.383  0.1638 -0.2531 -0.2997
  227loPI   GL1 3621   9.800  18.122  10.005 -0.0304  0.2800  0.0820
  227loPI   GL2 3622   9.604  18.329  10.083 -0.0799 -0.0150  0.0939
  227loPI   C1A 3623   9.817  18.085   9.630  0.1148  0.1530  0.3423
  227loPI   C2A 3624   9.763  18.086   9.121  0.2566  0.1675  0.0307
  227loPI   C3A 3625   9.787  18.047   8.713  0.4642  0.1615 -0.0831
  227loPI   C4A 3626   9.723  18.144   8.297  0.1038  0.2099 -0.0307
  227loPI   C5A 3627   9.394  18.202   7.963 -0.4187 -0.0841 -0.2380
  227loPI   C6A 3628   9.317  18.095   7.554  0.2746 -0.1478  0.1285
  227loPI   C1B 3629   9.503  18.450   9.756  0.0805  0.0435 -0.2460
  227loPI   C2B 3630   9.524  18.423   9.363 -0.2959 -0.0930 -0.1197
  227loPI   C3B 3631   9.397  18.415   8.978  0.0783 -0.1977  0.2597
  227loPI   C4B 3632   9.341  18.342   8.611  0.1562  0.1842  0.3224
  228loPI    C1 3633   7.142  17.469  11.212 -0.0296  0.1767  0.0678
  228loPI    C2 3634   7.128  17.151  11.456 -0.1042  0.0769 -0.0656
  228loPI    C3 3635   7.053  17.517  11.599 -0.0505  0.0304  0.0819
  228loPI   PO4 3636   6.966  17.442  10.972  0.1340 -0.2145  0.1331
  228loPI   GL1 3637   7.041  17.339  10.503  0.1455  0.1706  0.0589
  228loPI   GL2 3638   7.320  17.260  10.409  0.3592  0.0903  0.3498
  228loPI   C1A 3639   7.025  17.637  10.201 -0.2066 -0.2199  0.3693
  228loPI   C2A 3640   6.969  17.565   9.816  0.0015  0.0616 -0.0831
  228loPI   C3A 3641   6.955  17.585   9.456 -0.0634 -0.0480  0.1515
  228loPI   C4A 3642   7.023  17.633   8.964  0.1937  0.1131  0.0459
  228loPI   C5A 3643   6.754  17.576   8.562 -0.0911 -0.2251  0.0311
  228loPI   C6A 3644   6.928  17.273   8.219 -0.2730  0.0174 -0.0346
  228loPI   C1B 3645   7.333  17.246   9.920  0.2501 -0.2159  0.1101
  228loPI   C2B 3646   7.320  17.304   9.506  0.0122 -0.0169 -0.0451
  228loPI   C3B 3647   7.311  17.261   9.070  0.0472  0.2449  0.0222
  228loPI   C4B 3648   7.205  17.238   8.585 -0.0892 -0.0964  0.0632
  229loPI    C1 3649   7.783  17.846  10.902  0.2117 -0.1897 -0.2743
  229loPI    C2 3650   7.830  18.168  11.134  0.0013 -0.2057 -0.2072
  229loPI    C3 3651   8.101  17.873  11.143  0.0163 -0.1878 -0.0120
  229loPI   PO4 3652   7.687  17.925  10.656 -0.2177 -0.0725 -0.1451
  229loPI   GL1 3653   7.486  17.879  10.279 -0.3729 -0.0282 -0.0627
  229loPI   GL2 3654   7.241  18.113  10.230 -0.1701 -0.5556 -0.2107
  229loPI   C1A 3655   7.409  17.787   9.826  0.1139 -0.0472 -0.0495
  229loPI   C2A 3656   7.376  17.805   9.337 -0.3831  0.3825 -0.1702
  229loPI   C3A 3657   7.539  17.728   8.899  0.0804 -0.0504  0.0662
  229loPI   C4A 3658   7.337  17.773   8.464 -0.1525 -0.1107 -0.1338
  229loPI   C5A 3659   6.980  17.817   8.096 -0.2256 -0.0522  0.0312
  229loPI   C6A 3660   6.820  17.546   7.803  0.1628  0.1054 -0.2424
  229loPI   C1B 3661   7.116  18.201   9.769 -0.2396 -0.3421 -0.0720
  229loPI   C2B 3662   7.061  18.152   9.366  0.0876 -0.3218  0.0007
  229loPI   C3B 3663   6.990  18.116   8.972 -0.1096  0.1669  0.0614
  229loPI   C4B 3664   6.947  18.064   8.583  0.1243  0.4174 -0.4032
  230loPI    C1 3665   0.691   0.424  10.879 -0.0818 -0.0318  0.2065
  230loPI    C2 3666   0.718   0.783  11.052 -0.2034  0.0561  0.0460
  230loPI    C3 3667   0.458   0.724  10.754 -0.0876 -0.1288 -0.0199
  230loPI   PO4 3668   0.897   0.383  10.765 -0.0455 -0.3412  0.2024
  230loPI   GL1 3669   1.155   0.688  10.687  0.2726  0.1011  0.1367
  230loPI   GL2 3670   0.920   0.758  10.459  0.0242 -0.1397  0.2973
  230loPI   C1A 3671   1.257   0.494  10.214 -0.1861 -0.1646  0.3752
  230loPI   C2A 3672   1.232   0.623   9.745 -0.5679  0.1988 -0.0802
  230loPI   C3A 3673   1.102   0.522   9.382 -0.2813 -0.0157  0.0211
  230loPI   C4A 3674   1.109   0.490   8.995 -0.0841  0.1879 -0.1729
  230loPI   C5A 3675   1.083   0.634   8.521 -0.1961  0.0236 -0.0626
  230loPI   C6A 3676   1.294   0.756   8.168 -0.0644  0.1504  0.0425
  230loPI   C1B 3677   0.879   0.825  10.022  0.1942  0.0791 -0.0501
  230loPI   C2B 3678   0.833   0.974   9.703 -0.0137  0.0137 -0.1494
  230loPI   C3B 3679   0.762   0.854   9.260  0.2841  0.2619  0.1821
  230loPI   C4B 3680   0.711   0.813   8.826  0.1080  0.2712 -0.0608
  231loPI    C1 3681  11.728   7.087  10.467  0.3465 -0.0047 -0.2720
  231loPI    C2 3682  11.991   7.251  10.719  0.0990  0.0679 -0.0574
  231loPI    C3 3683  11.894   6.865  10.755 -0.1083  0.1332  0.1089
  231loPI   PO4 3684  11.684   7.288  10.307 -0.0966  0.0088 -0.1170
  231loPI   GL1 3685  11.498   7.280   9.961  0.2566 -0.0439  0.0738
  231loPI   GL2 3686  11.676   7.069   9.859  0.2227  0.1082 -0.2097
  231loPI   C1A 3687  11.554   7.521   9.601 -0.1070  0.2184  0.0310
  231loPI   C2A 3688  11.650   7.639   9.169 -0.1164 -0.1040  0.0092
  231loPI   C3A 3689  11.655   7.670   8.777 -0.2490  0.0642  0.3953
  231loPI   C4A 3690  11.663   7.724   8.328 -0.3118 -0.1620 -0.1466
  231loPI   C5A 3691  11.737   7.657   7.951  0.0819  0.0460 -0.0029
  231loPI   C6A 3692  11.884   7.462   7.546  0.2101  0.1757 -0.3788
  231loPI   C1B 3693  11.581   6.959   9.450 -0.0419 -0.0016  0.4013
  231loPI   C2B 3694  11.636   7.130   9.132  0.2133  0.0835  0.0723
  231loPI   C3B 3695  11.635   7.158   8.653  0.0888  0.2517 -0.3574
  231loPI   C4B 3696  11.518   7.180   8.219 -0.1922 -0.1399  0.2044
  232loPI    C1 3697  15.987   1.463  10.829 -0.1029 -0.0385 -0.0960
  232loPI    C2 3698  16.304   1.317  11.025 -0.2860 -0.2515  0.0466
  232loPI    C3 3699  16.240   1.712  11.012 -0.0550 -0.2120  0.0769
  232loPI   PO4 3700  16.011   1.412  10.583  0.0766  0.1780  0.1915
  232loPI   GL1 3701  15.716   1.393  10.237  0.1457  0.2250 -0.0497
  232loPI   GL2 3702  15.837   1.668  10.150  0.1828 -0.0703  0.1289
  232loPI   C1A 3703  15.846   1.378   9.797 -0.3204 -0.1144 -0.1666
  232loPI   C2A 3704  15.932   1.356   9.287 -0.2676 -0.1640  0.1659
  232loPI   C3A 3705  15.724   1.282   8.907 -0.2064  0.1138 -0.0879
  232loPI   C4A 3706  15.759   1.251   8.504  0.0913  0.3708  0.0385
  232loPI   C5A 3707  15.707   1.374   7.960  0.3103  0.2129 -0.2466
  232loPI   C6A 3708  15.856   1.651   7.638 -0.1861  0.1631 -0.0016
  232loPI   C1B 3709  16.006   1.813   9.654 -0.0770  0.1192 -0.3461
  232loPI   C2B 3710  15.990   1.856   9.217 -0.1178 -0.0572 -0.1823
  232loPI   C3B 3711  15.947   1.745   8.811  0.3039  0.3864 -0.2075
  232loPI   C4B 3712  15.862   1.747   8.390  0.2222 -0.0997  0.0990
  233loPI    C1 3713  15.870   7.600  10.558  0.0772  0.3033 -0.1696
  233loPI    C2 3714  15.563   7.810  10.704  0.0521  0.1725 -0.0315
  233loPI    C3 3715  15.873   7.718  10.940  0.0979  0.1197 -0.1119
  233loPI   PO4 3716  15.678   7.408  10.427  0.1165 -0.2374  0.0170
  233loPI   GL1 3717  15.609   7.257  10.012 -0.1955  0.0674  0.1747
  233loPI   GL2 3718  15.434   7.483   9.937 -0.0130 -0.1370  0.2198
  233loPI   C1A 3719  15.781   7.061   9.687 -0.0425 -0.1919  0.0610
  233loPI   C2A 3720  15.902   6.951   9.173  0.0085 -0.0483 -0.2012
  233loPI   C3A 3721  15.847   7.138   8.696  0.3145  0.1987 -0.2877
  233loPI   C4A 3722  15.838   7.287   8.246  0.0542 -0.2099  0.2123
  233loPI   C5A 3723  15.712   7.641   7.994  0.0534 -0.0572 -0.2993
  233loPI   C6A 3724  15.450   7.759   7.681  0.1417 -0.1259  0.1315
  233loPI   C1B 3725  15.423   7.306   9.476 -0.0217  0.2025  0.0494
  233loPI   C2B 3726  15.499   7.463   9.002 -0.0098  0.3070  0.1374
  233loPI   C3B 3727  15.460   7.485   8.534 -0.0862 -0.1440 -0.0740
  233loPI   C4B 3728  15.367   7.333   8.114 -0.0055 -0.1489  0.0352
  234loPI    C1 3729   5.664  11.728  10.985 -0.0618  0.2380 -0.0912
  234loPI    C2 3730   5.902  11.980  11.184  0.1302 -0.0273  0.0216
  234loPI    C3 3731   5.753  11.659  11.369  0.2376 -0.2295 -0.2359
  234loPI   PO4 3732   5.515  11.799  10.856 -0.0801  0.2019 -0.1188
  234loPI   GL1 3733   5.513  11.725  10.464  0.1872 -0.1508  0.2019
  234loPI   GL2 3734   5.512  11.433  10.377 -0.1169 -0.0282  0.0986
  234loPI   C1A 3735   5.281  11.762  10.095  0.0533 -0.1623 -0.4726
  234loPI   C2A 3736   5.221  11.771   9.686  0.1467 -0.1669 -0.0932
  234loPI   C3A 3737   5.243  11.800   9.306  0.3569 -0.1238 -0.0667
  234loPI   C4A 3738   5.031  11.925   8.847  0.2897  0.1692 -0.2489
  234loPI   C5A 3739   5.080  11.978   8.474  0.0535 -0.2018  0.3435
  234loPI   C6A 3740   5.273  12.299   8.186 -0.2114 -0.0701 -0.3173
  234loPI   C1B 3741   5.625  11.470   9.966  0.0707  0.2027 -0.6818
  234loPI   C2B 3742   5.511  11.399   9.545  0.1291  0.0832  0.1619
  234loPI   C3B 3743   5.526  11.437   9.130 -0.0677  0.1248 -0.0005
  234loPI   C4B 3744   5.442  11.547   8.716  0.2086  0.1527 -0.1162
  235loPI    C1 3745   2.645  15.333  11.176  0.1265 -0.2718 -0.0045
  235loPI    C2 3746   2.671  15.007  10.946 -0.1464 -0.3784  0.1127
  235loPI    C3 3747   2.578  14.972  11.334 -0.0985 -0.1672  0.1443
  235loPI   PO4 3748   2.453  15.483  10.995  0.0199 -0.0172 -0.1203
  235loPI   GL1 3749   2.482  15.632  10.703 -0.0776  0.0855  0.3776
  235loPI   GL2 3750   2.806  15.400  10.544  0.0883 -0.0416  0.0679
  235loPI   C1A 3751   2.407  15.688  10.321  0.0956 -0.0333  0.1061
  235loPI   C2A 3752   2.350  15.767   9.889 -0.0455  0.2000 -0.3123
  235loPI   C3A 3753   2.324  15.731   9.509 -0.3949 -0.1173  0.0905
  235loPI   C4A 3754   2.405  15.678   9.073 -0.0705 -0.0171  0.0877
  235loPI   C5A 3755   2.474  15.827   8.628 -0.0663  0.0013  0.0411
  235loPI   C6A 3756   2.316  16.073   8.181 -0.2056  0.1496 -0.0583
  235loPI   C1B 3757   2.751  15.404  10.039  0.2558 -0.3620  0.0229
  235loPI   C2B 3758   2.694  15.434   9.657  0.2693  0.2350 -0.0697
  235loPI   C3B 3759   2.775  15.335   9.266  0.0700 -0.1493  0.1480
  235loPI   C4B 3760   2.837  15.457   8.924 -0.0337  0.1771 -0.1498
  236loPI    C1 3761   3.686   9.289  10.870 -0.1546 -0.0754  0.1561
  236loPI    C2 3762   3.467   9.612  10.783 -0.0099 -0.0496 -0.1228
  236loPI    C3 3763   3.615   9.564  11.151 -0.3563  0.0058  0.0275
  236loPI   PO4 3764   3.525   9.071  10.834 -0.1722  0.0462  0.0933
  236loPI   GL1 3765   3.455   8.937  10.450  0.0768  0.4105  0.1020
  236loPI   GL2 3766   3.291   9.245  10.442  0.0303 -0.1661  0.1992
  236loPI   C1A 3767   3.480   8.826  10.065 -0.4671  0.1957  0.2172
  236loPI   C2A 3768   3.565   8.906   9.555  0.2102  0.0986 -0.1028
  236loPI   C3A 3769   3.670   8.972   9.116  0.2403 -0.2524  0.1882
  236loPI   C4A 3770   3.628   9.045   8.619 -0.1623  0.0319 -0.1881
  236loPI   C5A 3771   3.760   9.289   8.359  0.1247 -0.0869 -0.2813
  236loPI   C6A 3772   3.824   9.611   8.253  0.2589  0.1536  0.1406
  236loPI   C1B 3773   3.136   9.226  10.025 -0.1071 -0.1479  0.0113
  236loPI   C2B 3774   3.200   9.291   9.603  0.0544 -0.1401 -0.0163
  236loPI   C3B 3775   3.268   9.214   9.248  0.0707 -0.2784 -0.1435
  236loPI   C4B 3776   3.213   9.315   8.775  0.0256 -0.0971  0.0568
  237loPI    C1 3777   9.053  11.179  10.769 -0.0274 -0.1738  0.2380
  237loPI    C2 3778   9.443  11.181  10.857  0.0383  0.1107 -0.0408
  237loPI    C3 3779   9.175  11.285  11.135  0.1469 -0.2127  0.1921
  237loPI   PO4 3780   9.015  11.127  10.557  0.3189 -0.0009 -0.2531
  237loPI   GL1 3781   9.036  11.157  10.120  0.3169 -0.0604 -0.0268
  237loPI   GL2 3782   8.871  10.958  10.089 -0.1037 -0.1247 -0.0322
  237loPI   C1A 3783   9.151  11.309   9.763 -0.0941 -0.1472 -0.2166
  237loPI   C2A 3784   9.228  11.337   9.368  0.0309 -0.0701 -0.2834
  237loPI   C3A 3785   9.367  11.134   9.071  0.2168 -0.1127 -0.0240
  237loPI   C4A 3786   9.381  11.283   8.648 -0.0808  0.0577 -0.0331
  237loPI   C5A 3787   9.554  11.300   8.206  0.0406 -0.0984 -0.0615
  237loPI   C6A 3788   9.733  11.578   7.944 -0.2203  0.2038  0.2784
  237loPI   C1B 3789   9.123  10.765   9.679  0.3697  0.0217 -0.0719
  237loPI   C2B 3790   9.178  10.595   9.239  0.0786 -0.0242 -0.2433
  237loPI   C3B 3791   9.246  10.689   8.820 -0.2523 -0.1915  0.2302
  237loPI   C4B 3792   9.257  10.579   8.397 -0.3703  0.2131  0.0540
  238loPI    C1 3793  10.385   7.979  11.080 -0.1877 -0.0483  0.1501
  238loPI    C2 3794  10.590   7.689  11.263 -0.0076 -0.0589 -0.0639
  238loPI    C3 3795  10.378   7.950  11.479  0.1649 -0.0975  0.1565
  238loPI   PO4 3796  10.567   7.999  10.814  0.1215 -0.1018  0.2060
  238loPI   GL1 3797  10.618   8.113  10.415  0.1398 -0.1432  0.1801
  238loPI   GL2 3798  10.249   8.174  10.309  0.1531  0.1540  0.2521
  238loPI   C1A 3799  10.769   8.444  10.170  0.0368  0.1000 -0.1675
  238loPI   C2A 3800  10.919   8.382   9.807  0.1125  0.0216 -0.1070
  238loPI   C3A 3801  10.923   8.394   9.362 -0.0533 -0.0044  0.1032
  238loPI   C4A 3802  10.938   8.450   8.959  0.1592 -0.2970 -0.2735
  238loPI   C5A 3803  10.828   8.618   8.490  0.1686  0.0791 -0.0588
  238loPI   C6A 3804  10.792   8.933   8.262 -0.1848  0.1341  0.0019
  238loPI   C1B 3805  10.347   8.302   9.933  0.0237 -0.0862 -0.2443
  238loPI   C2B 3806  10.399   8.192   9.552 -0.1560 -0.3087 -0.2096
  238loPI   C3B 3807  10.512   8.079   9.124  0.2513 -0.2409 -0.1643
  238loPI   C4B 3808  10.491   8.154   8.769 -0.1366 -0.0070 -0.1224
  239loPI    C1 3809   4.238  18.075  10.931 -0.1254  0.1380  0.1433
  239loPI    C2 3810   4.243  17.782  11.203 -0.3218  0.0932  0.0999
  239loPI    C3 3811   4.110  18.146  11.303 -0.0037  0.1919  0.1754
  239loPI   PO4 3812   4.329  17.913  10.770 -0.0887 -0.1992  0.2605
  239loPI   GL1 3813   4.386  17.607  10.386 -0.1610  0.0579  0.1160
  239loPI   GL2 3814   4.021  17.638  10.239  0.0470 -0.1198 -0.1479
  239loPI   C1A 3815   4.370  17.765   9.915  0.0101 -0.1961  0.0089
  239loPI   C2A 3816   4.344  17.672   9.447  0.1468 -0.0045  0.1854
  239loPI   C3A 3817   4.186  17.718   9.090 -0.1068  0.1676  0.2068
  239loPI   C4A 3818   4.275  17.646   8.680 -0.0546  0.1735 -0.2000
  239loPI   C5A 3819   4.011  17.744   8.360  0.0964  0.0617 -0.1435
  239loPI   C6A 3820   3.935  17.857   7.935 -0.2107 -0.0535  0.3164
  239loPI   C1B 3821   3.760  17.580   9.855 -0.1475  0.0379 -0.1048
  239loPI   C2B 3822   3.808  17.611   9.490 -0.0815  0.1708 -0.2826
  239loPI   C3B 3823   3.726  17.572   9.129 -0.1295  0.0669  0.0044
  239loPI   C4B 3824   3.701  17.452   8.650  0.0092  0.1499 -0.1933
  240loPI    C1 3825  13.018   4.536  10.377  0.2841  0.1119 -0.0418
  240loPI    C2 3826  13.284   4.285  10.539  0.0367  0.0326  0.2515
  240loPI    C3 3827  12.894   4.202  10.557 -0.0094  0.1082 -0.2445
  240loPI   PO4 3828  13.081   4.609  10.161 -0.0484  0.0081 -0.0810
  240loPI   GL1 3829  13.212   4.337   9.728  0.1938  0.2400  0.0654
  240loPI   GL2 3830  13.072   4.609   9.681  0.0251  0.0938  0.3958
  240loPI   C1A 3831  13.258   3.996   9.504 -0.1010 -0.0678 -0.0515
  240loPI   C2A 3832  13.407   3.785   9.164 -0.0112 -0.0971  0.0453
  240loPI   C3A 3833  13.712   4.084   8.894  0.1713  0.0857 -0.0130
  240loPI   C4A 3834  13.624   4.250   8.528  0.1038 -0.0556 -0.2904
  240loPI   C5A 3835  13.691   3.974   8.107 -0.2819 -0.3232  0.4428
  240loPI   C6A 3836  13.991   3.878   7.923 -0.0981 -0.0726  0.1898
  240loPI   C1B 3837  13.201   4.766   9.214  0.0671 -0.1169  0.2275
  240loPI   C2B 3838  13.377   4.739   8.769 -0.0141 -0.1690 -0.0695
  240loPI   C3B 3839  13.353   4.700   8.319  0.1396 -0.1949  0.2586
  240loPI   C4B 3840  13.492   4.529   7.932 -0.0885 -0.0350  0.0861
  241loPI    C1 3841   1.872   3.100  11.334  0.0588  0.1581 -0.1427
  241loPI    C2 3842   1.799   2.786  11.571  0.3251  0.0834 -0.1569
  241loPI    C3 3843   1.547   3.096  11.567  0.2182  0.0017  0.0815
  241loPI   PO4 3844   1.898   3.029  11.131  0.0932 -0.2780 -0.0561
  241loPI   GL1 3845   1.893   3.303  10.839 -0.1587 -0.0941  0.3706
  241loPI   GL2 3846   1.791   3.029  10.656  0.0657  0.2235 -0.2610
  241loPI   C1A 3847   2.270   3.275  10.503 -0.2420  0.1620 -0.1558
  241loPI   C2A 3848   2.297   3.224  10.076 -0.3013  0.1732 -0.0797
  241loPI   C3A 3849   2.347   3.316   9.608 -0.0090 -0.2067  0.0017
  241loPI   C4A 3850   2.277   3.316   9.125 -0.0492 -0.3561 -0.1451
  241loPI   C5A 3851   2.301   3.248   8.775 -0.1292 -0.0760 -0.0419
  241loPI   C6A 3852   2.666   3.046   8.593 -0.1001 -0.1257  0.1722
  241loPI   C1B 3853   1.836   3.154  10.251 -0.0694  0.0594  0.2530
  241loPI   C2B 3854   1.862   3.133   9.804  0.1316  0.1521 -0.1366
  241loPI   C3B 3855   1.812   3.127   9.335  0.0399  0.0815 -0.2792
  241loPI   C4B 3856   1.833   2.996   8.950  0.0516  0.4676  0.0604
  242loPI    C1 3857   4.479  16.851  11.207 -0.0504 -0.2849 -0.0660
  242loPI    C2 3858   4.600  16.807  11.586  0.1767  0.3426 -0.0551
  242loPI    C3 3859   4.210  16.841  11.504  0.1038 -0.0957  0.0825
  242loPI   PO4 3860   4.636  17.043  11.077 -0.0956 -0.0186 -0.1714
  242loPI   GL1 3861   4.679  16.969  10.621  0.0536 -0.1251 -0.0548
  242loPI   GL2 3862   4.738  17.229  10.518  0.0383  0.2037 -0.0700
  242loPI   C1A 3863   4.522  16.773  10.245 -0.0076 -0.3516 -0.2478
  242loPI   C2A 3864   4.578  16.934   9.839 -0.0103 -0.1187  0.3566
  242loPI   C3A 3865   4.569  16.886   9.385 -0.0793  0.1959  0.1995
  242loPI   C4A 3866   4.502  16.827   8.881  0.1885 -0.1231 -0.1557
  242loPI   C5A 3867   4.608  17.043   8.433  0.0877 -0.0456  0.2054
  242loPI   C6A 3868   4.530  17.449   8.287 -0.1978 -0.1587  0.0311
  242loPI   C1B 3869   4.707  17.426  10.138 -0.0273 -0.2951  0.3016
  242loPI   C2B 3870   4.755  17.489   9.728 -0.0804 -0.0641  0.1230
  242loPI   C3B 3871   4.675  17.386   9.257  0.2935  0.0834 -0.0047
  242loPI   C4B 3872   4.681  17.346   8.766  0.0995  0.0228  0.0599
  243loPI    C1 3873  16.779  10.383  10.779  0.0900  0.0780 -0.0356
  243loPI    C2 3874  17.085  10.547  10.580 -0.1326  0.3206 -0.1840
  243loPI    C3 3875  17.002  10.667  10.952  0.0957  0.0845 -0.0536
  243loPI   PO4 3876  16.582  10.402  10.586  0.2280 -0.3974  0.0712
  243loPI   GL1 3877  16.355  10.314  10.253 -0.1547  0.0098  0.0708
  243loPI   GL2 3878  16.051  10.386  10.202 -0.1098  0.0460  0.2428
  243loPI   C1A 3879  16.480  10.246   9.942 -0.0750  0.1373 -0.0827
  243loPI   C2A 3880  16.445  10.199   9.576  0.1498 -0.1941  0.0528
  243loPI   C3A 3881  16.563  10.235   9.123 -0.1354  0.3674  0.0740
  243loPI   C4A 3882  16.605  10.180   8.670 -0.2354 -0.2259 -0.1903
  243loPI   C5A 3883  16.661  10.026   8.338  0.4529 -0.3920  0.1122
  243loPI   C6A 3884  16.577  10.036   8.005  0.0126  0.0620  0.3850
  243loPI   C1B 3885  16.113  10.552   9.688 -0.0025 -0.0593 -0.1879
  243loPI   C2B 3886  16.102  10.557   9.193  0.0591  0.2152 -0.0884
  243loPI   C3B 3887  16.244  10.580   8.809  0.1428  0.0686 -0.1219
  243loPI   C4B 3888  16.310  10.402   8.358  0.0188 -0.0817 -0.1305
  244loPI    C1 3889  16.020   3.059  10.636  0.0411  0.1587 -0.0174
  244loPI    C2 3890  15.866   2.803  10.902  0.0229 -0.0086 -0.1864
  244loPI    C3 3891  15.625   3.001  10.652  0.0639 -0.0964 -0.2961
  244loPI   PO4 3892  16.212   2.933  10.560 -0.0326 -0.3162  0.1868
  244loPI   GL1 3893  16.363   2.726  10.306 -0.3583 -0.0225 -0.1956
  244loPI   GL2 3894  16.775   2.692  10.366  0.1715  0.0897 -0.0157
  244loPI   C1A 3895  16.559   3.003  10.001 -0.1652  0.0060  0.0281
  244loPI   C2A 3896  16.803   3.041   9.584 -0.1400  0.1326 -0.1564
  244loPI   C3A 3897  16.852   2.896   9.148  0.2015 -0.4003 -0.0605
  244loPI   C4A 3898  16.682   2.995   8.750  0.0853  0.0868 -0.1826
  244loPI   C5A 3899  16.847   3.230   8.394 -0.2201 -0.0263 -0.1258
  244loPI   C6A 3900  17.102   3.647   8.386  0.2707  0.1687 -0.0939
  244loPI   C1B 3901  16.990   2.665   9.938  0.1562  0.2632  0.1886
  244loPI   C2B 3902  17.181   2.636   9.479 -0.2450 -0.1034 -0.0417
  244loPI   C3B 3903  17.212   2.565   9.030 -0.0477  0.3743  0.3143
  244loPI   C4B 3904  17.177   2.544   8.673  0.0037 -0.5017 -0.1640
  245loPI    C1 3905   5.103   0.310  10.897  0.3833  0.0330 -0.0213
  245loPI    C2 3906   5.061   0.063  11.208  0.1459 -0.0311 -0.1018
  245loPI    C3 3907   5.177  -0.080  10.853 -0.0468 -0.0380 -0.1630
  245loPI   PO4 3908   4.818   0.474  10.963 -0.3563  0.3340 -0.2338
  245loPI   GL1 3909   4.718   0.651  10.716  0.0711  0.2123  0.0584
  245loPI   GL2 3910   5.024   0.678  10.520 -0.0211  0.2248 -0.1136
  245loPI   C1A 3911   4.599   0.546  10.328  0.0465 -0.0609  0.1335
  245loPI   C2A 3912   4.454   0.522   9.919 -0.1925  0.2392 -0.2181
  245loPI   C3A 3913   4.484   0.527   9.464  0.0991  0.1138 -0.2154
  245loPI   C4A 3914   4.395   0.437   9.024  0.1303  0.0174 -0.0025
  245loPI   C5A 3915   4.402   0.398   8.545 -0.3352 -0.2607  0.0427
  245loPI   C6A 3916   4.180   0.614   8.209  0.2589 -0.1161  0.0502
  245loPI   C1B 3917   4.999   0.680  10.049  0.1948 -0.2896 -0.2417
  245loPI   C2B 3918   5.054   0.791   9.547  0.2670  0.3521  0.0339
  245loPI   C3B 3919   4.888   0.604   9.158  0.1912 -0.0643 -0.2253
  245loPI   C4B 3920   4.868   0.619   8.719 -0.1649  0.0173  0.1730
  246loPI    C1 3921   2.295   2.911  11.583  0.0668  0.1220 -0.3352
  246loPI    C2 3922   2.558   2.662  11.753 -0.3594 -0.1607 -0.0729
  246loPI    C3 3923   2.482   3.017  11.921  0.1382  0.0940 -0.3657
  246loPI   PO4 3924   2.371   2.906  11.303  0.0552  0.4089  0.0966
  246loPI   GL1 3925   2.345   2.756  10.948  0.4419 -0.0020  0.2796
  246loPI   GL2 3926   2.548   2.932  10.776  0.1482  0.1168  0.1002
  246loPI   C1A 3927   2.153   2.720  10.590 -0.0816  0.2386  0.1543
  246loPI   C2A 3928   2.278   2.673  10.204 -0.1178 -0.3372 -0.0657
  246loPI   C3A 3929   2.223   2.794   9.753  0.2225  0.2683  0.1378
  246loPI   C4A 3930   2.248   2.787   9.254  0.0047  0.0254 -0.0724
  246loPI   C5A 3931   2.233   2.739   8.841 -0.2981 -0.3214 -0.1350
  246loPI   C6A 3932   2.142   2.944   8.463 -0.0109 -0.1428 -0.1308
  246loPI   C1B 3933   2.743   2.886  10.357  0.0375 -0.2163  0.0255
  246loPI   C2B 3934   2.676   2.928   9.897 -0.2718  0.1158  0.0473
  246loPI   C3B 3935   2.795   2.940   9.524  0.2209 -0.3468 -0.0426
  246loPI   C4B 3936   2.657   2.992   9.113  0.0964  0.1298 -0.0990
  247loPI    C1 3937  17.003   0.793  10.943 -0.1453 -0.0289  0.1135
  247loPI    C2 3938  16.655   0.678  11.103 -0.1185  0.0696  0.2445
  247loPI    C3 3939  16.973   0.738  11.338  0.0297 -0.1687  0.1083
  247loPI   PO4 3940  17.003   0.696  10.772 -0.3496  0.2767  0.1437
  247loPI   GL1 3941  16.788   0.780  10.402  0.2082  0.3400 -0.1060
  247loPI   GL2 3942  16.644   1.040  10.313 -0.0671  0.0972  0.1107
  247loPI   C1A 3943  16.679   0.614   9.922 -0.3333  0.1534  0.1556
  247loPI   C2A 3944  16.645   0.581   9.522 -0.2015  0.1246 -0.0621
  247loPI   C3A 3945  16.533   0.541   9.132 -0.0776  0.2010  0.0354
  247loPI   C4A 3946  16.372   0.534   8.758  0.1720  0.1913  0.1087
  247loPI   C5A 3947  16.532   0.553   8.382 -0.0124  0.0982 -0.1232
  247loPI   C6A 3948  16.796   0.606   8.013  0.0480 -0.2249 -0.2059
  247loPI   C1B 3949  16.827   1.121  10.007  0.0796  0.2889  0.1052
  247loPI   C2B 3950  16.850   1.034   9.614 -0.0003  0.0926 -0.1566
  247loPI   C3B 3951  16.777   1.062   9.155 -0.0728 -0.1295  0.0066
  247loPI   C4B 3952  16.637   0.998   8.717 -0.0087  0.0209 -0.1091
  248loPI    C1 3953   0.454   5.016  11.032 -0.3069 -0.1485  0.1420
  248loPI    C2 3954   0.411   5.357  10.827  0.1578 -0.0087  0.2638
  248loPI    C3 3955   0.198   5.295  11.160 -0.0880  0.0646  0.1229
  248loPI   PO4 3956   0.504   4.793  10.793 -0.0100  0.0888  0.0437
  248loPI   GL1 3957   0.875   4.577  10.568 -0.2759  0.1424  0.1725
  248loPI   GL2 3958   0.659   4.714  10.307  0.0319 -0.0892  0.2185
  248loPI   C1A 3959   1.083   4.503  10.140  0.1919 -0.1542  0.0055
  248loPI   C2A 3960   1.190   4.275   9.888  0.2826 -0.1451 -0.1444
  248loPI   C3A 3961   1.254   4.346   9.492 -0.1910 -0.1863  0.1589
  248loPI   C4A 3962   1.211   4.385   9.078  0.0194  0.2349  0.1009
  248loPI   C5A 3963   1.269   4.335   8.696  0.0583  0.0255  0.0395
  248loPI   C6A 3964   1.178   4.218   8.416 -0.2726  0.2334 -0.2330
  248loPI   C1B 3965   0.769   4.795   9.824 -0.2773 -0.0425  0.0767
  248loPI   C2B 3966   0.878   4.705   9.495 -0.0142 -0.1959 -0.0456
  248loPI   C3B 3967   0.764   4.685   9.082 -0.3053 -0.1634 -0.0441
  248loPI   C4B 3968   0.869   4.768   8.679 -0.0436  0.1461  0.0214
  249loPI    C1 3969  14.121   4.186  10.198  0.0541  0.0013 -0.2532
  249loPI    C2 3970  14.142   3.795  10.276 -0.0305  0.0452 -0.0017
  249loPI    C3 3971  14.469   4.022  10.309 -0.0075  0.0167 -0.0319
  249loPI   PO4 3972  13.937   4.165   9.961  0.3863  0.0870  0.0242
  249loPI   GL1 3973  13.999   4.227   9.619 -0.0220 -0.0052  0.0019
  249loPI   GL2 3974  13.707   4.238   9.500 -0.2362  0.1284 -0.1804
  249loPI   C1A 3975  14.178   4.200   9.224  0.3556 -0.2102 -0.1647
  249loPI   C2A 3976  14.269   4.225   8.869 -0.0412 -0.0283  0.0409
  249loPI   C3A 3977  14.155   4.020   8.448 -0.0858  0.0662  0.0446
  249loPI   C4A 3978  14.335   3.756   8.191 -0.1394 -0.2078 -0.3484
  249loPI   C5A 3979  14.626   3.676   7.909 -0.1240  0.0247 -0.2312
  249loPI   C6A 3980  14.929   3.571   7.466 -0.0348 -0.1432 -0.0936
  249loPI   C1B 3981  13.619   4.502   9.175 -0.1182  0.3941 -0.1134
  249loPI   C2B 3982  13.875   4.610   8.796  0.1575  0.2523  0.1578
  249loPI   C3B 3983  13.832   4.777   8.367 -0.1723  0.2375  0.2256
  249loPI   C4B 3984  13.809   4.919   7.920 -0.0312 -0.3005  0.0925
  250loPI    C1 3985   5.321   5.928  10.929  0.0784 -0.1337 -0.3494
  250loPI    C2 3986   5.419   5.708  11.248  0.0894  0.0308 -0.2383
  250loPI    C3 3987   5.083   5.925  11.250  0.0765  0.0124 -0.3489
  250loPI   PO4 3988   5.293   5.789  10.770 -0.0878  0.0403  0.4080
  250loPI   GL1 3989   5.110   5.761  10.319  0.1163 -0.0791 -0.3204
  250loPI   GL2 3990   4.847   5.781  10.327 -0.0533  0.0630  0.2081
  250loPI   C1A 3991   5.255   5.524  10.038 -0.0069  0.0095 -0.0915
  250loPI   C2A 3992   5.200   5.582   9.577 -0.3047 -0.0901 -0.3077
  250loPI   C3A 3993   5.155   5.540   9.196  0.0627  0.1642  0.0194
  250loPI   C4A 3994   5.115   5.610   8.788 -0.1062 -0.2147 -0.1017
  250loPI   C5A 3995   5.020   5.523   8.255 -0.1579 -0.2357 -0.1811
  250loPI   C6A 3996   5.308   5.337   7.915  0.2205  0.1647 -0.2533
  250loPI   C1B 3997   4.887   5.950   9.906  0.1624  0.2838 -0.1440
  250loPI   C2B 3998   4.847   5.908   9.478  0.0443  0.1080  0.1574
  250loPI   C3B 3999   4.747   5.812   9.060  0.0604 -0.1360 -0.1376
  250loPI   C4B 4000   4.721   6.026   8.619 -0.1341 -0.2501 -0.0431
  251loPI    C1 4001   9.673  12.536  10.945  0.0187  0.1552 -0.1412
  251loPI    C2 4002   9.925  12.835  11.033 -0.0458  0.1760 -0.0247
  251loPI    C3 4003   9.599  12.775  11.257  0.0766 -0.1119  0.0812
  251loPI   PO4 4004   9.615  12.579  10.692 -0.5697 -0.2213 -0.0742
  251loPI   GL1 4005   9.825  12.466  10.298 -0.4665  0.2089  0.0962
  251loPI   GL2 4006   9.559  12.323  10.186 -0.0193 -0.1473  0.0206
  251loPI   C1A 4007  10.024  12.381   9.939 -0.2905  0.0567  0.1639
  251loPI   C2A 4008  10.107  12.471   9.507  0.2081 -0.0246  0.1159
  251loPI   C3A 4009  10.078  12.359   9.162  0.1285 -0.0016  0.2515
  251loPI   C4A 4010   9.872  12.462   8.790  0.1552 -0.1665 -0.2407
  251loPI   C5A 4011   9.943  12.692   8.311 -0.1629 -0.1069  0.2539
  251loPI   C6A 4012   9.841  12.888   7.910  0.3473  0.1109 -0.1313
  251loPI   C1B 4013   9.542  12.272   9.766  0.1163  0.2033  0.0236
  251loPI   C2B 4014   9.521  12.256   9.332 -0.1481 -0.0665  0.1310
  251loPI   C3B 4015   9.376  12.266   8.903  0.1473  0.0051 -0.5083
  251loPI   C4B 4016   9.470  12.444   8.532  0.5082  0.2663 -0.1778
  252loPI    C1 4017  16.007  10.278  10.680 -0.0611 -0.1497  0.2105
  252loPI    C2 4018  15.889  10.372  11.051 -0.0331  0.0771  0.1632
  252loPI    C3 4019  16.256  10.473  10.926 -0.1155  0.1858  0.0055
  252loPI   PO4 4020  15.715  10.315  10.568 -0.0634  0.1869  0.1526
  252loPI   GL1 4021  15.458  10.352  10.138  0.2164  0.2479  0.0277
  252loPI   GL2 4022  15.256  10.539   9.923 -0.2109  0.0320 -0.1970
  252loPI   C1A 4023  15.650  10.317   9.743 -0.1164 -0.0055  0.2642
  252loPI   C2A 4024  15.629  10.367   9.393  0.0596  0.0368 -0.2807
  252loPI   C3A 4025  15.751  10.359   8.953  0.0328  0.1910 -0.2698
  252loPI   C4A 4026  15.678  10.342   8.555 -0.2727  0.1250  0.0329
  252loPI   C5A 4027  15.663  10.293   8.160 -0.1007 -0.0907  0.2059
  252loPI   C6A 4028  16.035  10.267   7.952 -0.0259 -0.0777  0.0686
  252loPI   C1B 4029  15.266  10.736   9.598 -0.1533  0.2964 -0.3209
  252loPI   C2B 4030  15.248  10.677   9.141  0.2960  0.1945  0.2786
  252loPI   C3B 4031  15.283  10.656   8.702  0.0444 -0.3241  0.1103
  252loPI   C4B 4032  15.331  10.668   8.278  0.0661 -0.3255  0.0622
  253loPI    C1 4033  16.969   6.661  10.887 -0.2046  0.0380 -0.0929
  253loPI    C2 4034  16.929   6.478  11.240 -0.0624 -0.0248 -0.1082
  253loPI    C3 4035  16.612   6.647  11.065 -0.1103  0.1105  0.1052
  253loPI   PO4 4036  17.039   6.503  10.760 -0.0002  0.2452  0.3766
  253loPI   GL1 4037  17.012   6.526  10.326 -0.1474  0.0469  0.2365
  253loPI   GL2 4038  17.318   6.670  10.320  0.1466  0.0856  0.0448
  253loPI   C1A 4039  16.991   6.434   9.912  0.2848  0.1288  0.0529
  253loPI   C2A 4040  17.062   6.511   9.520 -0.2319  0.1529 -0.1562
  253loPI   C3A 4041  17.039   6.456   9.191 -0.1126 -0.1249  0.0514
  253loPI   C4A 4042  17.113   6.625   8.799 -0.0157 -0.0263 -0.1160
  253loPI   C5A 4043  17.167   6.611   8.302  0.1955  0.0648  0.1298
  253loPI   C6A 4044  17.396   6.868   7.972  0.0363  0.2938 -0.2108
  253loPI   C1B 4045  17.503   6.641   9.906 -0.1587  0.0629 -0.0500
  253loPI   C2B 4046  17.630   6.639   9.470  0.0475  0.1091  0.1342
  253loPI   C3B 4047  17.567   6.670   8.950 -0.2306  0.1443  0.1157
  253loPI   C4B 4048  17.560   6.789   8.550 -0.3174 -0.1113  0.0680
  254loPI    C1 4049   5.602   6.330  10.936 -0.0008 -0.0102  0.2605
  254loPI    C2 4050   5.727   6.638  11.158  0.0755 -0.0530  0.2773
  254loPI    C3 4051   5.507   6.348  11.324 -0.1030  0.0551  0.2328
  254loPI   PO4 4052   5.457   6.416  10.776 -0.0194  0.0229  0.0076
  254loPI   GL1 4053   5.372   6.586  10.329  0.2019  0.3964  0.0828
  254loPI   GL2 4054   5.561   6.789  10.206 -0.2174  0.3149 -0.2816
  254loPI   C1A 4055   5.354   6.211  10.091  0.1826 -0.0233  0.0996
  254loPI   C2A 4056   5.299   6.188   9.739  0.1460 -0.0544  0.0373
  254loPI   C3A 4057   5.313   6.125   9.351 -0.0201  0.1683 -0.0262
  254loPI   C4A 4058   5.261   6.111   8.830 -0.1072  0.3450 -0.1984
  254loPI   C5A 4059   5.186   6.044   8.367 -0.0435 -0.2169  0.2099
  254loPI   C6A 4060   5.529   5.754   8.228  0.1201 -0.0564 -0.1767
  254loPI   C1B 4061   5.316   6.702   9.803 -0.1573 -0.0904 -0.2232
  254loPI   C2B 4062   5.331   6.696   9.356  0.3687  0.0765  0.0889
  254loPI   C3B 4063   5.390   6.645   8.882 -0.0631 -0.4016 -0.2473
  254loPI   C4B 4064   5.403   6.521   8.391 -0.2262 -0.0136  0.0785
  255loPI    C1 4065   3.578   5.596  11.214  0.0322  0.1932  0.0899
  255loPI    C2 4066   3.247   5.486  11.410 -0.0708  0.1293 -0.1165
  255loPI    C3 4067   3.385   5.860  11.444 -0.0970  0.1234  0.0629
  255loPI   PO4 4068   3.581   5.355  11.045  0.1794  0.0378  0.2422
  255loPI   GL1 4069   3.621   5.296  10.706  0.1651  0.1657  0.1100
  255loPI   GL2 4070   3.675   5.081  10.629 -0.1295  0.1388  0.0303
  255loPI   C1A 4071   3.365   5.439  10.351  0.3978  0.0954  0.1809
  255loPI   C2A 4072   3.446   5.434   9.901 -0.1225 -0.0939 -0.0495
  255loPI   C3A 4073   3.295   5.455   9.548  0.0829  0.0026  0.1480
  255loPI   C4A 4074   3.238   5.483   9.014 -0.1758  0.0373 -0.0600
  255loPI   C5A 4075   3.474   5.344   8.584  0.1538  0.0122 -0.0330
  255loPI   C6A 4076   3.336   5.099   8.273 -0.4546 -0.0434  0.2557
  255loPI   C1B 4077   3.736   5.042  10.200 -0.2540 -0.0763  0.3059
  255loPI   C2B 4078   3.716   5.030   9.921  0.1834 -0.1624 -0.0201
  255loPI   C3B 4079   3.709   5.099   9.489  0.0155 -0.0776 -0.1785
  255loPI   C4B 4080   3.593   5.141   9.090  0.4083  0.0621  0.4654
  256loPI    C1 4081   6.346  12.137  11.013  0.1126  0.3076  0.0758
  256loPI    C2 4082   6.608  12.345  11.233  0.2498 -0.0316  0.2401
  256loPI    C3 4083   6.253  12.244  11.386  0.1255  0.2009  0.1100
  256loPI   PO4 4084   6.433  12.224  10.757  0.4625  0.0281 -0.0286
  256loPI   GL1 4085   6.539  12.218  10.355 -0.3758 -0.3490 -0.1651
  256loPI   GL2 4086   6.218  12.248  10.264 -0.0073 -0.0345 -0.2281
  256loPI   C1A 4087   6.667  12.339   9.959  0.0218  0.0863 -0.0401
  256loPI   C2A 4088   6.646  12.461   9.440  0.2484 -0.1365  0.0235
  256loPI   C3A 4089   6.551  12.321   9.093  0.0230 -0.1522 -0.1372
  256loPI   C4A 4090   6.627  12.429   8.706 -0.1309 -0.0503  0.1498
  256loPI   C5A 4091   6.557  12.514   8.256 -0.1515  0.0056 -0.5939
  256loPI   C6A 4092   6.760  12.414   7.886  0.1648  0.1786  0.2019
  256loPI   C1B 4093   6.203  12.200   9.846 -0.0728 -0.0299  0.1001
  256loPI   C2B 4094   6.119  12.138   9.404 -0.2769 -0.0826 -0.1954
  256loPI   C3B 4095   6.063  12.165   8.912  0.2504  0.1205  0.0873
  256loPI   C4B 4096   6.131  12.265   8.527  0.0132  0.1147  0.0868
  257loPI    C1 4097  14.435  10.939  10.827  0.1307 -0.0730 -0.3255
  257loPI    C2 4098  14.281  10.570  10.803 -0.0556 -0.0272  0.0809
  257loPI    C3 4099  14.540  10.661  11.095 -0.0109  0.1649 -0.0170
  257loPI   PO4 4100  14.459  11.007  10.622 -0.2568  0.0371  0.1299
  257loPI   GL1 4101  14.337  10.724  10.223 -0.0951  0.3569 -0.0031
  257loPI   GL2 4102  14.647  10.794  10.242  0.2601  0.3094 -0.0099
  257loPI   C1A 4103  14.368  10.827   9.837  0.2506  0.1766 -0.0078
  257loPI   C2A 4104  14.364  10.809   9.406  0.0411  0.1155  0.1188
  257loPI   C3A 4105  14.370  10.809   8.956 -0.2091  0.1520 -0.0915
  257loPI   C4A 4106  14.339  10.957   8.538 -0.0083 -0.0553  0.1917
  257loPI   C5A 4107  14.289  10.730   8.174 -0.2043  0.1315  0.3641
  257loPI   C6A 4108  14.168  10.378   7.990 -0.3073 -0.0146  0.0752
  257loPI   C1B 4109  14.878  11.016   9.892  0.1525 -0.2228  0.0185
  257loPI   C2B 4110  14.915  11.041   9.470 -0.1342  0.5433  0.0553
  257loPI   C3B 4111  14.868  11.025   9.071 -0.0489 -0.1586 -0.3105
  257loPI   C4B 4112  14.907  11.111   8.614  0.0725 -0.1533 -0.1548
  258loPI    C1 4113   5.795  16.011  11.227  0.0718 -0.0815  0.0863
  258loPI    C2 4114   5.778  16.336  11.460 -0.3094  0.0939 -0.1760
  258loPI    C3 4115   6.131  16.168  11.376 -0.1197  0.3630  0.0653
  258loPI   PO4 4116   5.743  16.031  11.012  0.2506 -0.1520 -0.4145
  258loPI   GL1 4117   5.488  15.971  10.666  0.1514  0.0572 -0.0617
  258loPI   GL2 4118   5.410  15.779  10.590 -0.0599 -0.0253  0.0583
  258loPI   C1A 4119   5.702  16.235  10.384  0.0385  0.1306  0.0910
  258loPI   C2A 4120   5.738  16.307   9.933 -0.1406 -0.1006  0.4069
  258loPI   C3A 4121   5.728  16.265   9.577  0.1349  0.1402  0.1863
  258loPI   C4A 4122   5.750  16.275   9.088 -0.0103  0.0753  0.1291
  258loPI   C5A 4123   5.626  16.240   8.593 -0.0212 -0.2957  0.1235
  258loPI   C6A 4124   5.430  15.950   8.436 -0.2021  0.3761 -0.1479
  258loPI   C1B 4125   5.251  16.119  10.240  0.0563 -0.1485  0.0339
  258loPI   C2B 4126   5.240  16.165   9.860  0.0690 -0.1221 -0.0673
  258loPI   C3B 4127   5.242  16.110   9.451 -0.1874 -0.1173  0.0850
  258loPI   C4B 4128   5.255  16.075   9.056 -0.2619  0.0891  0.0122
  259loPI    C1 4129   4.680  11.866  11.035  0.0055 -0.1001 -0.0505
  259loPI    C2 4130   4.388  12.123  11.128 -0.1008 -0.2313 -0.0199
  259loPI    C3 4131   4.708  12.089  11.366  0.0368  0.0587 -0.1591
  259loPI   PO4 4132   4.608  11.820  10.742 -0.0087 -0.3808 -0.3493
  259loPI   GL1 4133   4.451  12.046  10.413 -0.1035  0.1987 -0.1727
  259loPI   GL2 4134   4.192  11.890  10.232 -0.2817  0.2988 -0.0076
  259loPI   C1A 4135   4.471  12.384  10.074  0.2170 -0.3809 -0.3600
  259loPI   C2A 4136   4.503  12.486   9.636 -0.0655  0.0048 -0.1593
  259loPI   C3A 4137   4.401  12.550   9.213  0.0791 -0.1289  0.3033
  259loPI   C4A 4138   4.399  12.735   8.824 -0.2053  0.0791  0.3650
  259loPI   C5A 4139   4.489  12.706   8.366  0.1876 -0.0343  0.1494
  259loPI   C6A 4140   4.220  12.738   8.032  0.1702  0.1054  0.1471
  259loPI   C1B 4141   4.379  12.009   9.800 -0.1085 -0.2473  0.0089
  259loPI   C2B 4142   4.330  12.077   9.347 -0.1168 -0.1467 -0.2011
  259loPI   C3B 4143   4.346  12.172   8.900  0.0118  0.1578  0.3673
  259loPI   C4B 4144   4.266  12.222   8.430 -0.0982 -0.5552  0.0082
  260loPI    C1 4145   6.327   1.191  11.161 -0.0222  0.0273 -0.0295
  260loPI    C2 4146   6.369   1.543  11.345 -0.0072  0.2149 -0.3833
  260loPI    C3 4147   6.690   1.315  11.276 -0.0128  0.1438 -0.1813
  260loPI   PO4 4148   6.172   1.221  10.839 -0.0111 -0.2711 -0.0052
  260loPI   GL1 4149   6.012   1.610  10.656  0.0123 -0.1257  0.0531
  260loPI   GL2 4150   6.182   1.535  10.408  0.2527  0.0336 -0.0634
  260loPI   C1A 4151   5.802   1.739  10.198 -0.1908 -0.0915  0.2410
  260loPI   C2A 4152   5.745   1.872   9.820  0.0995 -0.3846 -0.0848
  260loPI   C3A 4153   5.751   1.914   9.316  0.1169  0.0220 -0.0074
  260loPI   C4A 4154   5.670   1.892   8.911  0.1280 -0.0031 -0.5014
  260loPI   C5A 4155   5.458   1.955   8.482 -0.1016  0.1626  0.0174
  260loPI   C6A 4156   5.071   2.043   8.181  0.0873  0.0253 -0.2354
  260loPI   C1B 4157   6.132   1.463   9.909 -0.2668 -0.2289 -0.3230
  260loPI   C2B 4158   6.136   1.556   9.493 -0.0484  0.1968  0.2421
  260loPI   C3B 4159   6.010   1.584   8.986  0.2095 -0.0959  0.3029
  260loPI   C4B 4160   5.869   1.632   8.519 -0.1597  0.1740  0.2376
  261loPI    C1 4161   3.353   0.147  11.030 -0.1622  0.1553  0.0890
  261loPI    C2 4162   3.562   0.434  11.214  0.1518 -0.0940  0.1296
  261loPI    C3 4163   3.439   0.113  11.419  0.3087 -0.2660 -0.0413
  261loPI   PO4 4164   3.391   0.030  10.782 -0.1426  0.0038  0.1935
  261loPI   GL1 4165   3.500   0.112  10.400  0.0470  0.2532 -0.0786
  261loPI   GL2 4166   3.708   0.187  10.430 -0.1507 -0.1292 -0.0692
  261loPI   C1A 4167   3.538   0.269   9.955  0.1590 -0.0652  0.0884
  261loPI   C2A 4168   3.500   0.317   9.549  0.1461 -0.2088 -0.1466
  261loPI   C3A 4169   3.429   0.316   9.158 -0.0147 -0.1591  0.1122
  261loPI   C4A 4170   3.309   0.238   8.719  0.1870  0.0463  0.1568
  261loPI   C5A 4171   3.480   0.061   8.363 -0.2345 -0.2208 -0.1762
  261loPI   C6A 4172   3.594   0.033   8.018 -0.1584  0.0625  0.0390
  261loPI   C1B 4173   3.943  -0.089  10.043  0.1366 -0.0178  0.0623
  261loPI   C2B 4174   3.982  -0.131   9.606 -0.0201  0.1598  0.2780
  261loPI   C3B 4175   3.852   0.020   9.149 -0.1757 -0.1535 -0.2302
  261loPI   C4B 4176   3.969  -0.002   8.605  0.0516  0.2317  0.0363
  262loPI    C1 4177  15.058   0.211  10.798  0.1091  0.1321 -0.0989
  262loPI    C2 4178  15.442   0.141  10.886  0.0362  0.1338  0.2353
  262loPI    C3 4179  15.205   0.323  11.152 -0.2447 -0.0378  0.1086
  262loPI   PO4 4180  15.140   0.361  10.558  0.1814  0.2280 -0.0893
  262loPI   GL1 4181  15.049   0.484  10.159 -0.2100  0.1462 -0.0402
  262loPI   GL2 4182  15.242   0.256  10.005  0.1452 -0.0871  0.3769
  262loPI   C1A 4183  15.316   0.675   9.799  0.0875 -0.1604  0.2874
  262loPI   C2A 4184  15.228   0.670   9.344 -0.2606 -0.1231 -0.3610
  262loPI   C3A 4185  15.100   0.687   8.874 -0.0992  0.2305  0.0158
  262loPI   C4A 4186  15.125   0.647   8.423  0.3476  0.2530 -0.0334
  262loPI   C5A 4187  15.123   0.542   7.926 -0.0913 -0.0104 -0.1207
  262loPI   C6A 4188  14.846   0.206   7.705 -0.1114 -0.2286 -0.2794
  262loPI   C1B 4189  15.157   0.180   9.546  0.2502 -0.3042  0.1418
  262loPI   C2B 4190  15.007   0.175   9.072  0.0786 -0.0466  0.2856
  262loPI   C3B 4191  15.038   0.156   8.725  0.1444 -0.0562 -0.1669
  262loPI   C4B 4192  14.949   0.070   8.238 -0.0132 -0.1322 -0.2196
  263loPI    C1 4193   7.597   1.334  11.017  0.1888  0.0035 -0.0865
  263loPI    C2 4194   7.605   0.940  11.085  0.4369  0.0408  0.1127
  263loPI    C3 4195   7.605   1.196  11.393 -0.1120  0.1954 -0.0055
  263loPI   PO4 4196   7.753   1.324  10.749 -0.0485  0.3291  0.0057
  263loPI   GL1 4197   7.630   1.079  10.350 -0.2616  0.0740 -0.2015
  263loPI   GL2 4198   7.977   1.158  10.259  0.3616  0.2065  0.0941
  263loPI   C1A 4199   7.415   0.919   9.997  0.0113  0.0400 -0.1383
  263loPI   C2A 4200   7.367   0.970   9.562  0.2144 -0.1246 -0.0129
  263loPI   C3A 4201   7.316   0.941   9.206  0.3726  0.2818 -0.1115
  263loPI   C4A 4202   7.319   0.829   8.855  0.3816  0.0109 -0.2327
  263loPI   C5A 4203   7.237   0.882   8.435  0.3843 -0.1436  0.1968
  263loPI   C6A 4204   7.223   0.497   8.263  0.0736  0.3935 -0.0611
  263loPI   C1B 4205   7.865   1.119   9.845  0.3215  0.1989  0.1746
  263loPI   C2B 4206   7.877   1.113   9.467 -0.0016  0.0385  0.3238
  263loPI   C3B 4207   7.764   1.052   9.019 -0.0903 -0.1521 -0.2910
  263loPI   C4B 4208   7.898   1.031   8.700  0.1842 -0.2019 -0.0412
  264loPI    C1 4209   4.156  16.059  11.110  0.2187  0.1549  0.0517
  264loPI    C2 4210   4.344  15.749  11.280  0.1945  0.0316 -0.1432
  264loPI    C3 4211   3.949  15.793  11.324  0.1509 -0.1286 -0.3528
  264loPI   PO4 4212   4.311  16.047  10.854 -0.1059 -0.3536  0.0866
  264loPI   GL1 4213   4.277  15.957  10.476 -0.0555  0.2266  0.0503
  264loPI   GL2 4214   4.625  16.199  10.473  0.0583  0.1800 -0.0333
  264loPI   C1A 4215   4.277  15.875  10.046  0.0925  0.0907 -0.1459
  264loPI   C2A 4216   4.296  15.811   9.634  0.2174  0.2036 -0.0337
  264loPI   C3A 4217   4.286  15.855   9.218  0.1110 -0.2725  0.5004
  264loPI   C4A 4218   4.316  15.885   8.738 -0.1307 -0.0450  0.0151
  264loPI   C5A 4219   4.091  15.960   8.392  0.0533  0.2073  0.1012
  264loPI   C6A 4220   3.993  16.041   7.915  0.2178  0.1522 -0.1879
  264loPI   C1B 4221   4.339  16.351  10.111  0.0353 -0.2034 -0.0900
  264loPI   C2B 4222   4.393  16.417   9.724 -0.0416 -0.1658 -0.0372
  264loPI   C3B 4223   4.363  16.350   9.349 -0.2312 -0.0920 -0.0049
  264loPI   C4B 4224   4.439  16.343   8.893 -0.1051 -0.0395  0.1163
  265loPI    C1 4225   6.350   3.616  10.911 -0.0829 -0.2236 -0.0578
  265loPI    C2 4226   6.738   3.638  11.006 -0.0779 -0.0374 -0.1167
  265loPI    C3 4227   6.592   3.306  10.837  0.1161 -0.0028 -0.3596
  265loPI   PO4 4228   6.333   3.865  10.808 -0.2312 -0.3008 -0.3205
  265loPI   GL1 4229   6.325   4.182  10.370  0.0183  0.0026 -0.2000
  265loPI   GL2 4230   6.480   4.488  10.406  0.0240 -0.0803  0.0610
  265loPI   C1A 4231   6.419   3.997   9.947  0.2437  0.0646 -0.0156
  265loPI   C2A 4232   6.223   3.941   9.582  0.2164 -0.2517 -0.4051
  265loPI   C3A 4233   6.193   3.921   9.229  0.1332 -0.3006 -0.0465
  265loPI   C4A 4234   6.186   4.003   8.893  0.3873  0.3807  0.0697
  265loPI   C5A 4235   6.041   3.966   8.536 -0.1268 -0.0566 -0.2129
  265loPI   C6A 4236   6.309   3.864   8.177 -0.1188 -0.2810  0.0895
  265loPI   C1B 4237   6.494   4.549  10.010  0.0585  0.2345 -0.0776
  265loPI   C2B 4238   6.358   4.488   9.592  0.5243 -0.2778 -0.3058
  265loPI   C3B 4239   6.239   4.454   9.140  0.0806 -0.3280 -0.3405
  265loPI   C4B 4240   6.239   4.551   8.683 -0.0885 -0.0555 -0.0901
  266loPI    C1 4241  16.033  17.286  10.786  0.1636  0.1554  0.1987
  266loPI    C2 4242  15.698  17.320  10.570  0.1372 -0.3143  0.1550
  266loPI    C3 4243  15.676  17.276  10.967  0.1627 -0.0477  0.1880
  266loPI   PO4 4244  16.224  17.259  10.570  0.3224  0.2557 -0.0748
  266loPI   GL1 4245  16.303  17.202  10.253 -0.0596 -0.2693  0.0411
  266loPI   GL2 4246  15.963  17.330  10.133  0.1330 -0.2850 -0.2022
  266loPI   C1A 4247  16.273  17.238   9.810  0.4201  0.0473  0.0863
  266loPI   C2A 4248  16.234  17.330   9.459 -0.0595  0.3085  0.0122
  266loPI   C3A 4249  16.195  17.241   9.103  0.2867  0.1855  0.0583
  266loPI   C4A 4250  16.187  17.253   8.770 -0.0050  0.0321  0.2068
  266loPI   C5A 4251  16.120  17.236   8.219 -0.2639  0.2415  0.0848
  266loPI   C6A 4252  15.826  17.411   8.090  0.0341 -0.0383 -0.1267
  266loPI   C1B 4253  15.766  17.182   9.706 -0.0749 -0.5411  0.0802
  266loPI   C2B 4254  15.743  17.088   9.272 -0.0311 -0.2037  0.0804
  266loPI   C3B 4255  15.673  17.152   8.795 -0.0831 -0.1121 -0.1077
  266loPI   C4B 4256  15.773  17.053   8.443 -0.2506 -0.0220  0.2381
  267loPI    C1 4257   8.785  17.858  11.145  0.2310 -0.0247 -0.0456
  267loPI    C2 4258   8.739  18.147  11.418  0.1943 -0.2292  0.1683
  267loPI    C3 4259   9.078  17.935  11.406  0.1990 -0.2157  0.0485
  267loPI   PO4 4260   8.571  17.935  10.987  0.3143  0.0897 -0.1889
  267loPI   GL1 4261   8.600  17.994  10.527 -0.2903 -0.0937  0.1766
  267loPI   GL2 4262   8.578  18.330  10.405  0.1228 -0.2716  0.2842
  267loPI   C1A 4263   8.484  17.656  10.132 -0.0187 -0.0512  0.2612
  267loPI   C2A 4264   8.283  17.513   9.831 -0.3518  0.0233 -0.0207
  267loPI   C3A 4265   8.269  17.566   9.417  0.1729 -0.3275  0.3370
  267loPI   C4A 4266   8.387  17.581   9.012 -0.1389  0.1616  0.1124
  267loPI   C5A 4267   8.292  17.556   8.603 -0.3448 -0.0415  0.2382
  267loPI   C6A 4268   8.437  17.492   8.257 -0.1176  0.1615  0.0815
  267loPI   C1B 4269   8.540  18.137   9.991  0.1602  0.1470 -0.0974
  267loPI   C2B 4270   8.496  18.064   9.558  0.1065 -0.3241 -0.1188
  267loPI   C3B 4271   8.405  18.045   9.149  0.2139  0.0529 -0.0915
  267loPI   C4B 4272   8.454  17.995   8.744  0.2990 -0.2299  0.0113
  268loPI    C1 4273   6.304   6.853  10.712 -0.0190 -0.0454  0.0734
  268loPI    C2 4274   6.569   7.040  10.946 -0.0845  0.0834  0.0458
  268loPI    C3 4275   6.226   6.904  11.101 -0.0963  0.1053  0.0389
  268loPI   PO4 4276   6.389   6.664  10.559  0.1237  0.1660 -0.1481
  268loPI   GL1 4277   6.131   6.506  10.267 -0.2550 -0.0673 -0.0755
  268loPI   GL2 4278   5.863   6.398  10.131 -0.0778  0.1898  0.1053
  268loPI   C1A 4279   6.253   6.418   9.802 -0.1938  0.2550  0.3438
  268loPI   C2A 4280   6.251   6.443   9.444  0.0897 -0.3085 -0.1131
  268loPI   C3A 4281   6.292   6.472   8.965 -0.0902  0.1216  0.1989
  268loPI   C4A 4282   6.272   6.422   8.516 -0.2065 -0.0374  0.1484
  268loPI   C5A 4283   6.176   6.179   8.125  0.0280 -0.3668  0.0115
  268loPI   C6A 4284   5.996   6.023   7.861  0.1079  0.2229  0.3862
  268loPI   C1B 4285   5.711   6.382   9.685  0.0129  0.1950  0.0723
  268loPI   C2B 4286   5.825   6.273   9.234  0.0591  0.2080 -0.4147
  268loPI   C3B 4287   5.800   6.203   8.818  0.1089 -0.2616 -0.0577
  268loPI   C4B 4288   5.772   6.226   8.410 -0.2458  0.4199 -0.0831
  269loPI    C1 4289  10.837  10.451  11.029 -0.3970 -0.0188 -0.1680
  269loPI    C2 4290  10.522  10.209  11.073 -0.5204  0.1773  0.0530
  269loPI    C3 4291  10.641  10.440  11.378 -0.1917  0.1419 -0.0444
  269loPI   PO4 4292  11.069  10.449  10.824 -0.1035  0.1033 -0.2357
  269loPI   GL1 4293  11.319  10.633  10.434  0.3094  0.2308  0.0229
  269loPI   GL2 4294  11.217  10.962  10.376 -0.3175 -0.0452  0.1346
  269loPI   C1A 4295  11.438  10.545  10.015 -0.0711 -0.1263  0.0098
  269loPI   C2A 4296  11.418  10.530   9.573  0.1298  0.3858 -0.3362
  269loPI   C3A 4297  11.422  10.550   9.153  0.2986  0.0628  0.1023
  269loPI   C4A 4298  11.601  10.448   8.714  0.0588 -0.1394  0.0470
  269loPI   C5A 4299  11.563  10.261   8.301 -0.1695  0.3030  0.0848
  269loPI   C6A 4300  11.565  10.604   7.892  0.2206  0.1152 -0.1055
  269loPI   C1B 4301  11.155  11.324  10.118 -0.0782 -0.0069  0.0340
  269loPI   C2B 4302  11.109  11.371   9.636 -0.0296 -0.0948 -0.1713
  269loPI   C3B 4303  11.175  11.420   9.214  0.0764  0.2857  0.0850
  269loPI   C4B 4304  11.229  11.330   8.713 -0.3733 -0.3021  0.0486
  270loPI    C1 4305  12.845  13.404  10.968  0.0692  0.1844  0.0347
  270loPI    C2 4306  12.498  13.600  10.999  0.0855  0.1705  0.3264
  270loPI    C3 4307  12.793  13.671  11.260  0.1675 -0.0886  0.3074
  270loPI   PO4 4308  12.821  13.333  10.603  0.1387  0.1706  0.2754
  270loPI   GL1 4309  12.386  13.205  10.289 -0.1597  0.0370 -0.1272
  270loPI   GL2 4310  12.140  13.079  10.284  0.2577 -0.0979  0.4133
  270loPI   C1A 4311  12.618  13.237   9.844  0.1201 -0.1908 -0.4257
  270loPI   C2A 4312  12.533  13.201   9.392 -0.0063 -0.2035  0.0091
  270loPI   C3A 4313  12.506  13.188   8.985 -0.0150  0.2067 -0.2851
  270loPI   C4A 4314  12.476  13.235   8.530  0.0297  0.1731 -0.0436
  270loPI   C5A 4315  12.800  13.002   8.353 -0.0154 -0.0186  0.0973
  270loPI   C6A 4316  12.833  12.626   8.069 -0.0317 -0.0988  0.0537
  270loPI   C1B 4317  12.054  13.057   9.859  0.3680  0.1189  0.1746
  270loPI   C2B 4318  11.995  13.032   9.460  0.0129 -0.2524  0.0468
  270loPI   C3B 4319  11.943  13.017   9.089  0.0752 -0.0225  0.1932
  270loPI   C4B 4320  12.016  12.967   8.628 -0.4744 -0.1822 -0.1019
  271loPI    C1 4321   2.992  14.104  11.337  0.0536  0.4805  0.2164
  271loPI    C2 4322   2.952  13.761  11.539  0.1883  0.0829 -0.4044
  271loPI    C3 4323   3.286  13.978  11.577  0.0794  0.1836  0.0345
  271loPI   PO4 4324   3.082  14.051  11.050 -0.1089  0.0262 -0.2259
  271loPI   GL1 4325   2.950  13.946  10.679  0.3112 -0.1080  0.3201
  271loPI   GL2 4326   2.906  14.248  10.612 -0.4201 -0.1284 -0.2412
  271loPI   C1A 4327   2.951  13.733  10.373 -0.2428  0.1480  0.0286
  271loPI   C2A 4328   2.769  13.560   9.945 -0.0991  0.2218  0.0586
  271loPI   C3A 4329   2.881  13.536   9.514  0.1197 -0.0393  0.1788
  271loPI   C4A 4330   2.767  13.468   9.051  0.2323 -0.0663 -0.2003
  271loPI   C5A 4331   2.935  13.480   8.711  0.0071  0.1545  0.1072
  271loPI   C6A 4332   2.771  13.436   8.292 -0.1063  0.3067  0.1634
  271loPI   C1B 4333   2.809  14.122  10.082  0.0852  0.2866 -0.0990
  271loPI   C2B 4334   2.787  14.002   9.719 -0.0066 -0.2482 -0.1137
  271loPI   C3B 4335   2.957  13.997   9.319  0.1496  0.0140 -0.1334
  271loPI   C4B 4336   2.913  13.946   8.931  0.0827 -0.0715  0.2199
  272loPI    C1 4337   7.217  13.259  11.277 -0.0100 -0.0823  0.2166
  272loPI    C2 4338   6.823  13.197  11.314 -0.0587  0.0160 -0.1027
  272loPI    C3 4339   6.994  13.514  11.490 -0.1015 -0.0863  0.1266
  272loPI   PO4 4340   7.233  13.199  11.039 -0.0503 -0.1086 -0.1631
  272loPI   GL1 4341   7.247  13.397  10.692 -0.2373  0.1959  0.0352
  272loPI   GL2 4342   7.466  13.062  10.443  0.0297 -0.1660  0.1228
  272loPI   C1A 4343   6.985  13.413  10.322  0.0179  0.1178 -0.0569
  272loPI   C2A 4344   6.861  13.405   9.814  0.1193 -0.0566  0.0233
  272loPI   C3A 4345   6.888  13.410   9.392  0.2633  0.2397  0.3548
  272loPI   C4A 4346   6.871  13.326   8.968  0.1876 -0.2012  0.0414
  272loPI   C5A 4347   6.870  13.626   8.657 -0.1232 -0.1490  0.0329
  272loPI   C6A 4348   6.555  13.958   8.545  0.1215  0.0665  0.0808
  272loPI   C1B 4349   7.222  13.061  10.023 -0.1640 -0.0397 -0.2934
  272loPI   C2B 4350   7.210  13.052   9.588  0.0842  0.1862  0.1645
  272loPI   C3B 4351   7.265  12.975   9.197  0.1551 -0.0299 -0.0007
  272loPI   C4B 4352   7.206  13.020   8.762  0.0671 -0.1358 -0.0929
  273loPI    C1 4353  16.927   4.530  11.069 -0.3157  0.3399 -0.1456
  273loPI    C2 4354  17.246   4.754  10.979 -0.1285  0.1195 -0.0418
  273loPI    C3 4355  17.109   4.744  11.354  0.0632 -0.1866  0.0233
  273loPI   PO4 4356  16.931   4.461  10.750  0.1172 -0.3597  0.1424
  273loPI   GL1 4357  16.942   4.563  10.364  0.2173  0.0152 -0.0927
  273loPI   GL2 4358  17.242   4.741  10.436  0.1331 -0.0256  0.1821
  273loPI   C1A 4359  17.074   4.472   9.961  0.0731 -0.2560  0.0917
  273loPI   C2A 4360  17.150   4.579   9.521  0.2938 -0.0399  0.0377
  273loPI   C3A 4361  17.117   4.551   9.105 -0.1679  0.0419 -0.1456
  273loPI   C4A 4362  17.126   4.544   8.721  0.0016 -0.0787 -0.1852
  273loPI   C5A 4363  16.928   4.438   8.277 -0.0021  0.0053  0.0344
  273loPI   C6A 4364  16.725   4.120   7.924  0.0462  0.2542 -0.1316
  273loPI   C1B 4365  17.479   4.604  10.140 -0.1534 -0.1722 -0.1220
  273loPI   C2B 4366  17.573   4.640   9.775  0.1734 -0.0896  0.3356
  273loPI   C3B 4367  17.589   4.762   9.275  0.3647 -0.3735 -0.0373
  273loPI   C4B 4368  17.623   4.644   8.943  0.1362 -0.0178  0.2715
  274loPI    C1 4369   5.968   5.384  11.174  0.1048  0.0676 -0.0034
  274loPI    C2 4370   6.264   5.642  11.248  0.3962 -0.2501 -0.0374
  274loPI    C3 4371   5.932   5.651  11.470  0.3268  0.2638 -0.1495
  274loPI   PO4 4372   6.072   5.370  10.841  0.0661  0.3190 -0.0872
  274loPI   GL1 4373   6.081   5.143  10.554 -0.0305  0.0007  0.2144
  274loPI   GL2 4374   6.193   4.860  10.464  0.3535 -0.0511 -0.0970
  274loPI   C1A 4375   6.063   5.324  10.124  0.1693 -0.2267 -0.3340
  274loPI   C2A 4376   6.051   5.438   9.759  0.2846  0.0807 -0.0760
  274loPI   C3A 4377   5.982   5.391   9.241 -0.0945 -0.0752 -0.2108
  274loPI   C4A 4378   6.006   5.386   8.852 -0.1264 -0.1715  0.0199
  274loPI   C5A 4379   5.834   5.335   8.499 -0.1413 -0.3927  0.4840
  274loPI   C6A 4380   5.758   5.273   8.081  0.2118  0.0389  0.2010
  274loPI   C1B 4381   6.067   4.837  10.050  0.0574 -0.1947 -0.0677
  274loPI   C2B 4382   5.951   4.798   9.578 -0.0185  0.0143  0.5293
  274loPI   C3B 4383   5.860   4.889   9.219 -0.2408 -0.1511 -0.1645
  274loPI   C4B 4384   5.770   4.889   8.802  0.1622 -0.1837 -0.1153
  275loPI    C1 4385   5.672   2.325  11.117 -0.2388  0.0049  0.0375
  275loPI    C2 4386   5.816   2.685  11.218  0.0512 -0.0076 -0.3086
  275loPI    C3 4387   5.899   2.365  11.444 -0.1735  0.1307 -0.0226
  275loPI   PO4 4388   5.627   2.252  10.913  0.1451  0.0695  0.0131
  275loPI   GL1 4389   5.545   2.000  10.546 -0.1645  0.2242  0.1807
  275loPI   GL2 4390   5.800   2.164  10.407 -0.2888 -0.0695 -0.0521
  275loPI   C1A 4391   5.378   2.158  10.147 -0.1088 -0.3219 -0.0694
  275loPI   C2A 4392   5.387   2.256   9.716 -0.1343  0.0690 -0.2418
  275loPI   C3A 4393   5.279   2.348   9.272  0.1198 -0.2146 -0.4286
  275loPI   C4A 4394   5.241   2.202   8.877 -0.1156  0.1555 -0.0464
  275loPI   C5A 4395   5.069   2.420   8.500 -0.1071 -0.0070  0.1347
  275loPI   C6A 4396   4.997   2.875   8.599  0.0870  0.0792 -0.2168
  275loPI   C1B 4397   5.815   2.370   9.952  0.1460 -0.0272 -0.0228
  275loPI   C2B 4398   5.881   2.385   9.501  0.3054  0.0429 -0.0587
  275loPI   C3B 4399   5.827   2.393   9.058  0.1188 -0.2520  0.0967
  275loPI   C4B 4400   5.607   2.494   8.538 -0.0692  0.0678 -0.0099
  276loPI    C1 4401  14.183   7.056  10.766  0.1872 -0.0096 -0.0873
  276loPI    C2 4402  14.115   6.678  10.877  0.2930 -0.0522 -0.1660
  276loPI    C3 4403  14.029   6.978  11.127 -0.1167 -0.1067 -0.2338
  276loPI   PO4 4404  14.438   6.987  10.606 -0.2691 -0.1807 -0.0083
  276loPI   GL1 4405  14.509   7.161  10.233 -0.0167 -0.2018  0.3801
  276loPI   GL2 4406  14.272   7.480  10.066  0.0263 -0.0294 -0.1527
  276loPI   C1A 4407  14.539   7.131   9.782 -0.3114  0.0374  0.0148
  276loPI   C2A 4408  14.485   7.153   9.267 -0.3189 -0.0126 -0.0875
  276loPI   C3A 4409  14.361   7.114   8.857 -0.1462  0.0033 -0.0680
  276loPI   C4A 4410  14.362   7.183   8.468  0.0153  0.1203  0.2242
  276loPI   C5A 4411  14.523   7.140   8.058 -0.1512 -0.1554 -0.1005
  276loPI   C6A 4412  14.556   7.111   7.626  0.0148 -0.2167  0.0554
  276loPI   C1B 4413  14.149   7.449   9.658 -0.1502  0.2626  0.2384
  276loPI   C2B 4414  13.942   7.406   9.220 -0.1778  0.1056  0.0231
  276loPI   C3B 4415  13.955   7.469   8.791 -0.1705  0.0283  0.1059
  276loPI   C4B 4416  13.973   7.529   8.380 -0.1681 -0.1813  0.2615
  277loPI    C1 4417   9.188   3.238  10.563  0.1268 -0.0562 -0.0732
  277loPI    C2 4418   9.492   2.996  10.661  0.4091  0.3507  0.0833
  277loPI    C3 4419   9.242   3.129  10.944 -0.0314 -0.1199 -0.0683
  277loPI   PO4 4420   9.143   3.172  10.324  0.0234 -0.4457  0.2731
  277loPI   GL1 4421   9.113   3.369   9.869  0.1412  0.0335  0.1479
  277loPI   GL2 4422   9.390   3.106   9.886  0.0275 -0.0365 -0.1551
  277loPI   C1A 4423   8.881   3.461   9.476 -0.1825 -0.1356  0.0663
  277loPI   C2A 4424   8.757   3.315   9.056 -0.1606  0.0054 -0.0564
  277loPI   C3A 4425   8.705   3.339   8.706  0.0024 -0.1154  0.0271
  277loPI   C4A 4426   8.780   3.316   8.303  0.1494 -0.3503  0.2250
  277loPI   C5A 4427   8.776   3.292   7.884  0.3207  0.2434 -0.1355
  277loPI   C6A 4428   8.539   3.321   7.490 -0.1211 -0.2617  0.1905
  277loPI   C1B 4429   9.255   3.058   9.451  0.2512  0.1120 -0.2034
  277loPI   C2B 4430   9.170   3.008   9.020 -0.2165  0.2436  0.1339
  277loPI   C3B 4431   9.145   3.040   8.601  0.1435 -0.0099 -0.0374
  277loPI   C4B 4432   9.120   2.990   8.118  0.2845  0.0582  0.2865
  278loPI    C1 4433  11.528  13.453  10.944 -0.1317 -0.2205 -0.0377
  278loPI    C2 4434  11.231  13.543  11.196 -0.0951 -0.0668 -0.0483
  278loPI    C3 4435  11.565  13.372  11.334  0.0305  0.2509  0.0519
  278loPI   PO4 4436  11.528  13.700  10.803 -0.0296  0.2691 -0.2762
  278loPI   GL1 4437  11.393  13.830  10.412  0.0219 -0.2626 -0.0006
  278loPI   GL2 4438  11.438  14.132  10.505 -0.4182  0.1262  0.1204
  278loPI   C1A 4439  11.377  13.792  10.028  0.1613 -0.0015  0.0643
  278loPI   C2A 4440  11.223  13.728   9.583 -0.0338 -0.1852  0.4395
  278loPI   C3A 4441  11.230  13.736   9.104  0.1179  0.2046  0.0442
  278loPI   C4A 4442  11.259  13.807   8.657 -0.3067 -0.3647 -0.1778
  278loPI   C5A 4443  11.187  14.163   8.487 -0.1772 -0.1355  0.0079
  278loPI   C6A 4444  11.330  14.278   8.180  0.3469  0.0909  0.1582
  278loPI   C1B 4445  11.399  14.332  10.203 -0.0780  0.0595 -0.1392
  278loPI   C2B 4446  11.335  14.211   9.818  0.1815  0.2648 -0.1802
  278loPI   C3B 4447  11.319  14.265   9.432 -0.1211  0.1805  0.2175
  278loPI   C4B 4448  11.327  14.202   8.993 -0.1337 -0.0559 -0.0736
  279loPI    C1 4449   3.186   1.662  11.374  0.0682 -0.0153 -0.0633
  279loPI    C2 4450   2.999   1.997  11.487  0.1256  0.0044 -0.0264
  279loPI    C3 4451   3.221   1.793  11.750  0.1555 -0.0194 -0.0699
  279loPI   PO4 4452   3.023   1.688  11.092  0.0773  0.1549 -0.2864
  279loPI   GL1 4453   2.779   1.500  10.820 -0.1015  0.1144 -0.0752
  279loPI   GL2 4454   3.005   1.488  10.602  0.1613 -0.0705  0.0003
  279loPI   C1A 4455   2.587   1.663  10.487  0.3391 -0.1079  0.5092
  279loPI   C2A 4456   2.527   1.864  10.112  0.2939  0.0454  0.1527
  279loPI   C3A 4457   2.533   1.923   9.694  0.3894 -0.2841  0.1209
  279loPI   C4A 4458   2.473   1.887   9.245  0.3539  0.3346 -0.0094
  279loPI   C5A 4459   2.579   1.962   8.753 -0.1930  0.2521 -0.1654
  279loPI   C6A 4460   2.602   2.150   8.342 -0.1142  0.1680 -0.0899
  279loPI   C1B 4461   2.961   1.390  10.202 -0.1733  0.1329  0.3361
  279loPI   C2B 4462   2.884   1.530   9.806  0.0657  0.0147 -0.1254
  279loPI   C3B 4463   2.888   1.514   9.362 -0.0964  0.1410 -0.0835
  279loPI   C4B 4464   2.867   1.552   8.913 -0.1084 -0.1899 -0.0953
  280loPI    C1 4465   8.198   2.008  11.007  0.0641  0.1540  0.0896
  280loPI    C2 4466   7.950   1.697  11.047  0.0950  0.1263  0.0656
  280loPI    C3 4467   7.835   2.060  11.168  0.1196  0.0764  0.2423
  280loPI   PO4 4468   8.346   1.955  10.785  0.4053  0.0308 -0.3547
  280loPI   GL1 4469   8.392   1.945  10.271  0.1171  0.2853 -0.1325
  280loPI   GL2 4470   8.002   1.870  10.087 -0.3924  0.1226 -0.0991
  280loPI   C1A 4471   8.513   1.975   9.815 -0.3063  0.0751 -0.1448
  280loPI   C2A 4472   8.488   1.936   9.359  0.1348 -0.0839 -0.0490
  280loPI   C3A 4473   8.404   1.792   9.041  0.6011 -0.3500  0.0577
  280loPI   C4A 4474   8.376   1.692   8.618 -0.3817 -0.2051 -0.0980
  280loPI   C5A 4475   8.370   1.748   8.207  0.3161  0.1861 -0.0735
  280loPI   C6A 4476   8.633   1.961   7.981  0.1767 -0.2194  0.0481
  280loPI   C1B 4477   7.913   1.753   9.659  0.1553 -0.0386 -0.3409
  280loPI   C2B 4478   7.932   1.666   9.179  0.0136  0.1434 -0.3138
  280loPI   C3B 4479   7.896   1.563   8.787 -0.0959  0.3488  0.1103
  280loPI   C4B 4480   8.012   1.343   8.394 -0.0110 -0.1792  0.0126
  281loPI    C1 4481  15.984   3.810  10.785 -0.0368  0.0816 -0.2381
  281loPI    C2 4482  15.620   3.724  10.926  0.0388 -0.0767 -0.1370
  281loPI    C3 4483  15.885   3.431  10.866  0.0920  0.0180 -0.3743
  281loPI   PO4 4484  16.005   3.984  10.617 -0.1074  0.2929  0.0665
  281loPI   GL1 4485  16.228   3.997  10.250 -0.1317  0.0743  0.0675
  281loPI   GL2 4486  16.359   3.886  10.094 -0.2535 -0.2154  0.4261
  281loPI   C1A 4487  16.010   4.284   9.983  0.1131 -0.0028  0.3141
  281loPI   C2A 4488  15.944   4.376   9.539 -0.0356 -0.0391 -0.2279
  281loPI   C3A 4489  16.025   4.401   9.102 -0.1266  0.2432 -0.0343
  281loPI   C4A 4490  16.095   4.198   8.698 -0.0945  0.0220 -0.4253
  281loPI   C5A 4491  16.234   4.222   8.332 -0.0589  0.3169 -0.1690
  281loPI   C6A 4492  16.233   4.232   7.842  0.0273 -0.0630  0.0615
  281loPI   C1B 4493  16.497   3.843   9.649 -0.2476  0.0033 -0.0155
  281loPI   C2B 4494  16.599   3.892   9.174  0.0600 -0.0286  0.1709
  281loPI   C3B 4495  16.510   3.931   8.684 -0.0006 -0.0597  0.0666
  281loPI   C4B 4496  16.685   3.996   8.359  0.2531  0.0622 -0.1339
  282loPI    C1 4497  14.970  12.497  10.776 -0.0515 -0.0636 -0.1133
  282loPI    C2 4498  15.100  12.142  10.907  0.1618  0.0808  0.0737
  282loPI    C3 4499  14.883  12.376  11.147 -0.0438  0.0460 -0.0755
  282loPI   PO4 4500  14.918  12.460  10.511  0.0704  0.2433  0.1881
  282loPI   GL1 4501  15.118  12.596  10.163  0.0871  0.0760 -0.2374
  282loPI   GL2 4502  15.293  12.874  10.039 -0.2291 -0.4447 -0.0211
  282loPI   C1A 4503  15.120  12.591   9.668  0.0172  0.2307 -0.0129
  282loPI   C2A 4504  15.138  12.548   9.276  0.0891  0.0217 -0.0432
  282loPI   C3A 4505  15.239  12.606   8.907  0.3351 -0.1141 -0.3378
  282loPI   C4A 4506  15.166  12.650   8.498  0.1532 -0.1181 -0.0190
  282loPI   C5A 4507  14.892  12.712   8.109  0.5000 -0.2626  0.0529
  282loPI   C6A 4508  14.526  12.988   7.774 -0.0218 -0.1516 -0.2139
  282loPI   C1B 4509  15.256  13.066   9.614 -0.0559 -0.2299 -0.1369
  282loPI   C2B 4510  15.233  13.138   9.154  0.0942  0.2655 -0.3825
  282loPI   C3B 4511  15.398  13.185   8.775 -0.1535 -0.4795 -0.0930
  282loPI   C4B 4512  15.230  13.311   8.366  0.1615 -0.0401 -0.2228
  283loPI    C1 4513   2.977   4.651  11.267  0.0092  0.1100 -0.0903
  283loPI    C2 4514   3.030   4.257  11.225  0.0333  0.1092 -0.0533
  283loPI    C3 4515   2.944   4.410  11.584  0.0735  0.1434 -0.0581
  283loPI   PO4 4516   3.132   4.700  11.030 -0.2571  0.1201 -0.5289
  283loPI   GL1 4517   3.175   4.778  10.649 -0.3542 -0.0456 -0.1567
  283loPI   GL2 4518   2.973   4.770  10.563  0.0769  0.1151  0.1291
  283loPI   C1A 4519   3.290   4.949  10.178  0.1273 -0.1046  0.0461
  283loPI   C2A 4520   3.136   5.011   9.743  0.0462  0.2665 -0.2148
  283loPI   C3A 4521   3.167   5.047   9.297 -0.1234  0.0314 -0.4378
  283loPI   C4A 4522   3.067   5.004   8.940 -0.0911  0.3194 -0.0583
  283loPI   C5A 4523   2.933   5.247   8.556 -0.1277  0.0893 -0.0013
  283loPI   C6A 4524   2.488   5.367   8.415 -0.1559 -0.0131 -0.0083
  283loPI   C1B 4525   2.819   4.810  10.144 -0.1701 -0.1269 -0.2343
  283loPI   C2B 4526   2.698   4.860   9.741 -0.0705  0.0849  0.0864
  283loPI   C3B 4527   2.648   4.848   9.216 -0.1508  0.2450  0.1393
  283loPI   C4B 4528   2.676   4.824   8.763  0.1374  0.0130  0.0090
  284loPI    C1 4529  16.074  15.295  10.690 -0.0428 -0.0226  0.1189
  284loPI    C2 4530  15.770  15.495  10.855 -0.0168  0.0077  0.1305
  284loPI    C3 4531  16.090  15.402  11.076 -0.0170 -0.0230  0.1180
  284loPI   PO4 4532  16.001  15.363  10.429 -0.0399 -0.0137  0.0109
  284loPI   GL1 4533  15.890  15.129  10.076  0.0725  0.0652  0.1145
  284loPI   GL2 4534  16.202  15.331   9.911 -0.1066  0.0304 -0.0199
  284loPI   C1A 4535  15.777  15.206   9.658  0.0363 -0.1428 -0.0892
  284loPI   C2A 4536  15.845  15.248   9.298 -0.3193  0.0403  0.0303
  284loPI   C3A 4537  15.734  15.203   8.894 -0.2287  0.2098  0.0858
  284loPI   C4A 4538  15.717  15.247   8.536 -0.2222 -0.2172  0.0304
  284loPI   C5A 4539  15.789  15.331   8.109 -0.0629  0.1838 -0.0117
  284loPI   C6A 4540  16.021  15.728   7.867  0.0697  0.0302 -0.2251
  284loPI   C1B 4541  16.306  15.471   9.461  0.3775  0.0918 -0.1359
  284loPI   C2B 4542  16.253  15.423   8.997  0.0057 -0.2029  0.1422
  284loPI   C3B 4543  16.189  15.429   8.644 -0.1932  0.1068  0.0989
  284loPI   C4B 4544  16.317  15.466   8.205  0.1072  0.0826 -0.3768
  285loPI    C1 4545   0.445  15.987  10.910  0.1775  0.0106 -0.0232
  285loPI    C2 4546   0.570  15.696  11.155  0.2302  0.0212 -0.0376
  285loPI    C3 4547   0.512  16.065  11.297 -0.1446 -0.0682  0.0514
  285loPI   PO4 4548   0.278  15.862  10.758  0.0714 -0.1423 -0.2289
  285loPI   GL1 4549   0.227  15.726  10.323  0.0502  0.1307 -0.1141
  285loPI   GL2 4550  -0.120  15.598  10.179 -0.0957  0.1590  0.2126
  285loPI   C1A 4551   0.376  15.667   9.863 -0.2030 -0.1685 -0.1040
  285loPI   C2A 4552   0.476  15.650   9.412 -0.3723 -0.0611  0.0977
  285loPI   C3A 4553   0.315  15.756   8.957 -0.1249 -0.2073 -0.3777
  285loPI   C4A 4554   0.328  15.879   8.591 -0.4308 -0.0804 -0.0683
  285loPI   C5A 4555   0.542  15.873   8.244 -0.2983 -0.0307 -0.3162
  285loPI   C6A 4556   0.406  15.847   7.790 -0.2308  0.0110  0.1784
  285loPI   C1B 4557  -0.098  15.489   9.804 -0.0666  0.1229  0.3601
  285loPI   C2B 4558   0.017  15.528   9.304  0.0651  0.0892 -0.1523
  285loPI   C3B 4559  -0.119  15.546   8.895 -0.2201 -0.1569  0.0392
  285loPI   C4B 4560  -0.074  15.627   8.459  0.2198 -0.0385  0.0833
  286loPI    C1 4561   9.234   9.711  11.175  0.1098  0.0177  0.1069
  286loPI    C2 4562   8.874   9.706  11.349 -0.0731  0.0496 -0.2611
  286loPI    C3 4563   9.002  10.036  11.163  0.1140  0.0121 -0.2017
  286loPI   PO4 4564   9.250   9.446  10.968  0.0896  0.3105  0.0317
  286loPI   GL1 4565   9.495   9.430  10.530  0.2562  0.0571  0.0012
  286loPI   GL2 4566   9.247   9.419  10.227 -0.0524  0.2294 -0.0137
  286loPI   C1A 4567   9.751   9.545  10.141  0.0704 -0.0231  0.0819
  286loPI   C2A 4568   9.764   9.476   9.637 -0.2489 -0.4194 -0.0131
  286loPI   C3A 4569   9.837   9.326   9.186 -0.1781  0.0896 -0.1296
  286loPI   C4A 4570   9.854   9.549   8.750  0.3140 -0.0807  0.3262
  286loPI   C5A 4571   9.626   9.479   8.360 -0.3508 -0.1318  0.0754
  286loPI   C6A 4572   9.676   9.330   7.929  0.2985  0.0994  0.0991
  286loPI   C1B 4573   9.260   9.268   9.806 -0.0630 -0.4966  0.0962
  286loPI   C2B 4574   9.319   9.321   9.317  0.1164  0.1100  0.0412
  286loPI   C3B 4575   9.309   9.398   8.867 -0.4095  0.1011 -0.0600
  286loPI   C4B 4576   9.110   9.530   8.448  0.2804  0.0366 -0.1899
  287loPI    C1 4577  13.142   0.522  10.775  0.0337 -0.2604  0.3384
  287loPI    C2 4578  12.843   0.554  11.039  0.0651 -0.0212  0.3472
  287loPI    C3 4579  13.214   0.660  11.144  0.0974 -0.0281  0.2406
  287loPI   PO4 4580  13.102   0.506  10.534 -0.0406 -0.0399  0.0005
  287loPI   GL1 4581  13.042   0.786  10.184 -0.1200  0.0233 -0.0891
  287loPI   GL2 4582  13.303   0.563  10.077  0.1094 -0.0635  0.1838
  287loPI   C1A 4583  13.005   0.825   9.752 -0.0594  0.1579 -0.2281
  287loPI   C2A 4584  12.961   0.878   9.265 -0.0168  0.1786  0.1869
  287loPI   C3A 4585  12.966   0.904   8.853 -0.1337 -0.0342 -0.2021
  287loPI   C4A 4586  12.961   0.773   8.367 -0.3235  0.0340 -0.1562
  287loPI   C5A 4587  12.996   0.787   7.918  0.1478 -0.0225 -0.0244
  287loPI   C6A 4588  13.122   0.660   7.612  0.2451 -0.1954 -0.0333
  287loPI   C1B 4589  13.399   0.528   9.577 -0.3605  0.1569  0.0169
  287loPI   C2B 4590  13.362   0.484   9.132  0.1180  0.0804  0.0738
  287loPI   C3B 4591  13.364   0.547   8.576 -0.1988  0.1733 -0.0629
  287loPI   C4B 4592  13.425   0.515   8.127 -0.0736 -0.1341  0.3284
  288loPI    C1 4593   7.130  14.053  11.352  0.2115 -0.1212  0.1207
  288loPI    C2 4594   7.467  14.196  11.513  0.1747  0.0702  0.0307
  288loPI    C3 4595   7.223  13.965  11.731  0.3207  0.0011  0.1228
  288loPI   PO4 4596   7.167  14.086  11.099 -0.0897  0.2687  0.1918
  288loPI   GL1 4597   7.375  13.905  10.749 -0.2669  0.2958  0.1421
  288loPI   GL2 4598   7.641  14.001  10.649 -0.1521  0.0019 -0.0273
  288loPI   C1A 4599   7.105  13.931  10.387 -0.0902  0.0789 -0.0387
  288loPI   C2A 4600   7.104  13.894   9.959 -0.1551 -0.1906  0.1633
  288loPI   C3A 4601   7.007  13.934   9.511 -0.1221 -0.0306  0.2010
  288loPI   C4A 4602   7.045  13.904   9.083  0.5458 -0.2165  0.0174
  288loPI   C5A 4603   7.295  13.936   8.747 -0.1179 -0.0550 -0.0854
  288loPI   C6A 4604   7.524  14.051   8.406  0.3448 -0.0179 -0.0064
  288loPI   C1B 4605   7.572  13.996  10.266 -0.2566  0.0141 -0.0558
  288loPI   C2B 4606   7.529  14.116   9.860 -0.0229 -0.0134 -0.0373
  288loPI   C3B 4607   7.501  14.138   9.500 -0.0413 -0.2220  0.1794
  288loPI   C4B 4608   7.561  14.090   9.147  0.0843 -0.2816 -0.4337
  289loPI    C1 4609  15.347  15.093  10.582  0.2495  0.0355  0.0284
  289loPI    C2 4610  15.299  15.339  10.894 -0.1532 -0.0321  0.0254
  289loPI    C3 4611  15.371  14.951  10.955 -0.2054 -0.0404  0.0350
  289loPI   PO4 4612  15.516  15.230  10.453 -0.0110 -0.0937 -0.1875
  289loPI   GL1 4613  15.508  15.544  10.000 -0.0191  0.2662 -0.2226
  289loPI   GL2 4614  15.844  15.711   9.964  0.1471  0.0653  0.2446
  289loPI   C1A 4615  15.405  15.545   9.623 -0.0318  0.0869  0.2096
  289loPI   C2A 4616  15.391  15.505   9.133 -0.2013  0.1111  0.1755
  289loPI   C3A 4617  15.299  15.556   8.726  0.0168 -0.2398  0.2159
  289loPI   C4A 4618  15.314  15.468   8.270  0.3437  0.3865 -0.1346
  289loPI   C5A 4619  15.311  15.782   8.026 -0.2206  0.1050  0.1628
  289loPI   C6A 4620  15.687  16.143   8.004 -0.2963 -0.0012 -0.0923
  289loPI   C1B 4621  15.867  15.683   9.536  0.0411  0.3629 -0.0936
  289loPI   C2B 4622  15.818  15.693   9.107  0.0264 -0.0675 -0.1514
  289loPI   C3B 4623  15.775  15.716   8.779 -0.2723  0.1182  0.1112
  289loPI   C4B 4624  15.740  15.762   8.384  0.1025 -0.0944 -0.1077
  290loPI    C1 4625  15.732  13.005  10.771 -0.1756 -0.0715  0.0483
  290loPI    C2 4626  15.852  12.835  11.112 -0.2145  0.0676  0.1325
  290loPI    C3 4627  15.465  12.920  11.057 -0.2106  0.0302  0.0466
  290loPI   PO4 4628  15.855  12.859  10.584 -0.3239 -0.0085 -0.3014
  290loPI   GL1 4629  15.750  12.714  10.155  0.1778  0.2555 -0.2243
  290loPI   GL2 4630  15.803  12.389  10.008  0.0170 -0.1761  0.0313
  290loPI   C1A 4631  15.700  12.764   9.753  0.3430  0.3604  0.0507
  290loPI   C2A 4632  15.605  12.780   9.360  0.0057 -0.2682  0.0365
  290loPI   C3A 4633  15.650  12.813   8.956  0.0687  0.0815 -0.0661
  290loPI   C4A 4634  15.696  12.873   8.592 -0.1881  0.0797 -0.3884
  290loPI   C5A 4635  15.539  12.880   8.217  0.0941  0.2995 -0.0233
  290loPI   C6A 4636  15.566  12.851   7.695  0.2465 -0.2041 -0.4489
  290loPI   C1B 4637  15.489  12.303   9.799  0.0225  0.1126  0.3636
  290loPI   C2B 4638  15.489  12.174   9.346 -0.2851 -0.0339 -0.0130
  290loPI   C3B 4639  15.570  12.245   8.895 -0.0616  0.1623  0.3438
  290loPI   C4B 4640  15.541  12.329   8.476  0.3014  0.1091  0.2142
  291loPI    C1 4641   7.440   6.754  10.477  0.0738  0.0093 -0.0163
  291loPI    C2 4642   7.332   6.991  10.780 -0.2201 -0.2386  0.0783
  291loPI    C3 4643   7.718   6.907  10.720 -0.1086  0.2724  0.0315
  291loPI   PO4 4644   7.347   6.791  10.237 -0.0558 -0.2387 -0.1884
  291loPI   GL1 4645   7.318   6.700   9.785  0.3128  0.0841  0.1101
  291loPI   GL2 4646   7.627   6.517   9.946 -0.0052 -0.1425 -0.1606
  291loPI   C1A 4647   7.128   6.774   9.451  0.1132 -0.0302  0.1612
  291loPI   C2A 4648   7.140   6.723   9.028 -0.1809  0.0714 -0.1979
  291loPI   C3A 4649   7.160   6.874   8.648 -0.1307 -0.0356  0.1078
  291loPI   C4A 4650   7.192   6.752   8.269 -0.3641 -0.2320 -0.2310
  291loPI   C5A 4651   7.351   6.757   7.933  0.0115 -0.3308 -0.0321
  291loPI   C6A 4652   7.478   6.982   7.546 -0.2729 -0.0636 -0.1027
  291loPI   C1B 4653   7.585   6.427   9.458 -0.3325 -0.1149 -0.1463
  291loPI   C2B 4654   7.613   6.441   9.059  0.1254 -0.1118  0.1605
  291loPI   C3B 4655   7.506   6.454   8.577  0.0602  0.0410 -0.1460
  291loPI   C4B 4656   7.616   6.278   8.151 -0.1673  0.0534  0.0973
  292loPI    C1 4657  11.559   0.093  10.544 -0.2351  0.1580 -0.0637
  292loPI    C2 4658  11.678   0.028  10.920 -0.2456  0.1829 -0.0560
  292loPI    C3 4659  11.646   0.402  10.782 -0.0041  0.1676 -0.1579
  292loPI   PO4 4660  11.725  -0.026  10.409 -0.0671  0.0140  0.0155
  292loPI   GL1 4661  11.721  -0.187  10.030 -0.1578  0.0604  0.0749
  292loPI   GL2 4662  11.364  -0.170  10.125  0.1107 -0.3819 -0.1214
  292loPI   C1A 4663  11.623  -0.478   9.566  0.2480  0.1398  0.0344
  292loPI   C2A 4664  11.689  -0.533   9.051  0.1038  0.1468 -0.1932
  292loPI   C3A 4665  11.542  -0.648   8.664  0.0975  0.0382  0.0373
  292loPI   C4A 4666  11.747  -0.769   8.255  0.0598 -0.4796 -0.2433
  292loPI   C5A 4667  11.638  -0.442   7.918  0.1182  0.0604  0.1733
  292loPI   C6A 4668  11.633  -0.089   7.590 -0.1905  0.1944 -0.0286
  292loPI   C1B 4669  11.468   0.196   9.877 -0.3028  0.0487 -0.0404
  292loPI   C2B 4670  11.446   0.267   9.429 -0.0866  0.2388  0.1921
  292loPI   C3B 4671  11.379   0.289   9.016 -0.0984  0.2302 -0.0353
  292loPI   C4B 4672  11.307   0.162   8.506 -0.0541 -0.0658  0.0771
  293loPI    C1 4673  18.128  14.327  10.868  0.1478  0.3082  0.1524
  293loPI    C2 4674  18.332  13.984  10.896 -0.2996  0.0226  0.0185
  293loPI    C3 4675  18.208  14.171  11.228  0.1110  0.1636  0.0983
  293loPI   PO4 4676  18.020  14.272  10.659 -0.0980  0.2347 -0.0291
  293loPI   GL1 4677  17.818  14.411  10.364  0.0636 -0.1719  0.0038
  293loPI   GL2 4678  17.553  14.292  10.204  0.3601 -0.1696  0.2675
  293loPI   C1A 4679  17.935  14.492   9.894 -0.2434 -0.2122 -0.5000
  293loPI   C2A 4680  17.932  14.476   9.438  0.1897  0.0798 -0.2458
  293loPI   C3A 4681  17.940  14.570   9.027  0.0931  0.0862  0.0233
  293loPI   C4A 4682  17.865  14.523   8.609  0.2909 -0.0069  0.0955
  293loPI   C5A 4683  18.026  14.581   8.367  0.1399  0.0628  0.1068
  293loPI   C6A 4684  17.961  14.558   7.924 -0.0647 -0.1684  0.2338
  293loPI   C1B 4685  17.460  14.338   9.735  0.0424 -0.0744 -0.1619
  293loPI   C2B 4686  17.372  14.437   9.278 -0.1898  0.0078  0.1942
  293loPI   C3B 4687  17.417  14.444   8.809  0.2842 -0.2127  0.1902
  293loPI   C4B 4688  17.430  14.537   8.395  0.0109 -0.2029  0.0438
  294loPI    C1 4689   1.535  16.352  10.931  0.1528  0.0382  0.0101
  294loPI    C2 4690   1.402  16.246  11.293 -0.1000 -0.1318 -0.1296
  294loPI    C3 4691   1.768  16.136  11.174  0.0478  0.0639  0.1340
  294loPI   PO4 4692   1.474  16.616  10.883 -0.2374 -0.3127  0.3068
  294loPI   GL1 4693   1.495  16.930  10.504  0.1237 -0.4031  0.1283
  294loPI   GL2 4694   1.748  16.982  10.614 -0.2408  0.0829 -0.2012
  294loPI   C1A 4695   1.246  16.812  10.161 -0.3881 -0.2133  0.1303
  294loPI   C2A 4696   1.244  16.816   9.634  0.4757 -0.0665  0.0802
  294loPI   C3A 4697   1.122  16.943   9.130 -0.1254  0.0902 -0.2362
  294loPI   C4A 4698   1.179  16.912   8.702 -0.0381  0.0836  0.1147
  294loPI   C5A 4699   1.392  16.942   8.336  0.1325 -0.2315 -0.0972
  294loPI   C6A 4700   1.521  16.851   7.918  0.0179 -0.0984  0.2693
  294loPI   C1B 4701   1.778  16.925  10.077 -0.0359  0.1688  0.2637
  294loPI   C2B 4702   1.780  16.961   9.590  0.0053  0.0221 -0.0691
  294loPI   C3B 4703   1.622  17.129   9.175  0.3858  0.0781  0.0471
  294loPI   C4B 4704   1.699  17.131   8.724  0.0192 -0.0433 -0.0714
  295loPI    C1 4705   3.450  15.720  11.121 -0.1383 -0.1893 -0.3933
  295loPI    C2 4706   3.587  15.353  11.041 -0.1072 -0.2962  0.1142
  295loPI    C3 4707   3.589  15.490  11.417 -0.2333  0.1810 -0.0511
  295loPI   PO4 4708   3.500  15.813  10.897 -0.0925  0.1573  0.3310
  295loPI   GL1 4709   3.415  15.570  10.562 -0.1619 -0.3575 -0.1722
  295loPI   GL2 4710   3.730  15.730  10.410  0.0488  0.0998 -0.1497
  295loPI   C1A 4711   3.302  15.581  10.093  0.2237  0.1805  0.0008
  295loPI   C2A 4712   3.184  15.512   9.634  0.2408 -0.0601  0.0852
  295loPI   C3A 4713   3.348  15.578   9.119 -0.0651  0.0493 -0.0643
  295loPI   C4A 4714   3.191  15.710   8.609  0.3617  0.0529  0.0502
  295loPI   C5A 4715   3.237  15.485   8.174  0.0933 -0.0741 -0.1158
  295loPI   C6A 4716   3.450  15.168   8.087  0.1498  0.1197  0.2983
  295loPI   C1B 4717   3.809  15.728   9.957  0.2606 -0.0113  0.0405
  295loPI   C2B 4718   3.779  15.668   9.531  0.1468 -0.1837  0.0861
  295loPI   C3B 4719   3.827  15.775   9.085 -0.0261 -0.0112  0.2388
  295loPI   C4B 4720   3.664  15.537   8.651  0.1071  0.0275  0.1674
  296loPI    C1 4721   7.853   2.117  10.685 -0.0173  0.1652 -0.0161
  296loPI    C2 4722   8.099   2.351  10.473 -0.0907  0.2478 -0.0104
  296loPI    C3 4723   8.018   2.438  10.855  0.3112 -0.0906  0.1594
  296loPI   PO4 4724   7.775   1.935  10.552  0.1451  0.1721 -0.1106
  296loPI   GL1 4725   7.621   1.659  10.412 -0.2669 -0.1512  0.0070
  296loPI   GL2 4726   7.356   1.554  10.546  0.1228  0.1289  0.1286
  296loPI   C1A 4727   7.514   1.553   9.925  0.2952 -0.1198 -0.0532
  296loPI   C2A 4728   7.545   1.459   9.496 -0.0041 -0.0760  0.1495
  296loPI   C3A 4729   7.455   1.494   9.082 -0.1978 -0.4800 -0.1740
  296loPI   C4A 4730   7.332   1.357   8.781  0.0955 -0.1130  0.1350
  296loPI   C5A 4731   7.164   1.421   8.395  0.3606 -0.0323 -0.0107
  296loPI   C6A 4732   7.304   1.241   7.982 -0.0955 -0.3861  0.1343
  296loPI   C1B 4733   7.143   1.337  10.197  0.1538  0.0314 -0.1279
  296loPI   C2B 4734   7.018   1.205   9.866  0.1341 -0.1651  0.1041
  296loPI   C3B 4735   7.019   1.314   9.406 -0.0152  0.0879  0.0140
  296loPI   C4B 4736   6.893   1.204   9.022  0.0577 -0.0204  0.2355
  297loPI    C1 4737   9.730   4.113  10.255 -0.3066  0.2642 -0.1114
  297loPI    C2 4738   9.834   4.495  10.194  0.1166  0.1625 -0.0604
  297loPI    C3 4739   9.613   4.396  10.513  0.1704  0.3393  0.0332
  297loPI   PO4 4740   9.905   3.913  10.143  0.2230 -0.0227 -0.3592
  297loPI   GL1 4741  10.161   3.884   9.840  0.1625  0.2040  0.0440
  297loPI   GL2 4742   9.928   4.165   9.667 -0.2527  0.2634 -0.2951
  297loPI   C1A 4743   9.916   3.764   9.435 -0.1710  0.1969  0.0680
  297loPI   C2A 4744   9.861   3.771   9.032 -0.1975 -0.1673  0.1811
  297loPI   C3A 4745   9.724   3.740   8.634  0.0801 -0.1548 -0.0856
  297loPI   C4A 4746   9.693   3.709   8.255  0.2786 -0.2098 -0.0884
  297loPI   C5A 4747   9.946   3.724   7.807  0.1262 -0.3342 -0.1279
  297loPI   C6A 4748  10.050   4.115   7.552 -0.1928 -0.0229  0.1015
  297loPI   C1B 4749   9.923   4.261   9.225  0.1648  0.1696  0.0046
  297loPI   C2B 4750   9.795   4.262   8.871 -0.3734 -0.0228 -0.4063
  297loPI   C3B 4751   9.783   4.202   8.422 -0.1301  0.1932 -0.2047
  297loPI   C4B 4752   9.982   4.255   8.040  0.0665  0.0449 -0.1384
  298loPI    C1 4753  11.970   7.856  10.388 -0.0132 -0.1083 -0.1634
  298loPI    C2 4754  12.194   7.525  10.375  0.1361 -0.0151 -0.0097
  298loPI    C3 4755  12.148   7.722  10.720 -0.3643 -0.1539  0.0107
  298loPI   PO4 4756  12.061   8.006  10.210 -0.1187 -0.2008 -0.1910
  298loPI   GL1 4757  11.803   8.007   9.853  0.0077  0.0611 -0.0306
  298loPI   GL2 4758  11.492   7.823   9.981 -0.0635 -0.2509  0.1352
  298loPI   C1A 4759  11.766   8.031   9.444 -0.0810 -0.1501  0.0298
  298loPI   C2A 4760  11.818   8.256   9.048  0.1467 -0.0130 -0.0070
  298loPI   C3A 4761  11.834   8.285   8.610 -0.1916 -0.4327 -0.1941
  298loPI   C4A 4762  11.914   8.204   8.174  0.1745 -0.0716 -0.2105
  298loPI   C5A 4763  11.853   8.396   7.905 -0.2224 -0.0095 -0.0460
  298loPI   C6A 4764  11.674   8.580   7.540  0.1246 -0.3509  0.0931
  298loPI   C1B 4765  11.312   7.911   9.655 -0.1243  0.1057  0.1732
  298loPI   C2B 4766  11.369   8.128   9.181 -0.0469  0.0715 -0.2505
  298loPI   C3B 4767  11.376   8.093   8.667 -0.1347  0.1448  0.0583
  298loPI   C4B 4768  11.279   8.453   8.373  0.0204 -0.2769 -0.0395
  299loPI    C1 4769   8.347   3.644  10.269  0.0269 -0.0681  0.0036
  299loPI    C2 4770   8.087   3.638  10.572 -0.0042  0.0416 -0.0205
  299loPI    C3 4771   8.259   3.298  10.450 -0.0141 -0.0073  0.1004
  299loPI   PO4 4772   8.186   3.764  10.098 -0.1482  0.2126 -0.1045
  299loPI   GL1 4773   8.031   3.543   9.849  0.1014 -0.1173 -0.0217
  299loPI   GL2 4774   8.024   3.330   9.965 -0.0668 -0.0943 -0.2148
  299loPI   C1A 4775   7.883   3.700   9.493 -0.1313 -0.1066  0.3648
  299loPI   C2A 4776   7.782   3.471   9.032  0.1282  0.0992  0.4554
  299loPI   C3A 4777   7.777   3.481   8.611  0.0726  0.1357  0.0060
  299loPI   C4A 4778   7.887   3.588   8.154  0.2671 -0.2374  0.0136
  299loPI   C5A 4779   7.636   3.736   7.793 -0.0501 -0.3871  0.1242
  299loPI   C6A 4780   7.282   4.131   7.786  0.3675 -0.3031  0.0992
  299loPI   C1B 4781   7.805   3.168   9.561  0.1966  0.0522 -0.2436
  299loPI   C2B 4782   7.739   2.971   9.113 -0.4700  0.2972  0.0920
  299loPI   C3B 4783   7.634   3.012   8.635 -0.0173 -0.1835 -0.3376
  299loPI   C4B 4784   7.649   2.815   8.270  0.1375  0.1093  0.2606
  300loPI    C1 4785  15.592   1.884  10.529  0.0116 -0.0247 -0.1364
  300loPI    C2 4786  15.262   1.661  10.490  0.0334 -0.0635 -0.0995
  300loPI    C3 4787  15.547   1.553  10.749 -0.1780  0.2726  0.2862
  300loPI   PO4 4788  15.607   2.093  10.379  0.2307  0.2087  0.4129
  300loPI   GL1 4789  15.793   2.195   9.932 -0.4037 -0.0438  0.2540
  300loPI   GL2 4790  16.118   2.152  10.047 -0.1380  0.0847 -0.2313
  300loPI   C1A 4791  15.714   2.350   9.587  0.0142  0.2666  0.1312
  300loPI   C2A 4792  15.662   2.244   9.208  0.0305 -0.3109 -0.0335
  300loPI   C3A 4793  15.711   2.160   8.740 -0.1094 -0.0468  0.0064
  300loPI   C4A 4794  15.532   2.163   8.324  0.1903  0.2560 -0.0191
  300loPI   C5A 4795  15.503   2.513   8.071 -0.2372 -0.0204 -0.2446
  300loPI   C6A 4796  15.247   2.709   7.823 -0.0953  0.2454 -0.3096
  300loPI   C1B 4797  16.196   2.275   9.590 -0.0773 -0.0166 -0.0312
  300loPI   C2B 4798  16.098   2.299   9.054 -0.2472  0.0316 -0.1208
  300loPI   C3B 4799  16.139   2.300   8.547 -0.1823  0.0100  0.0414
  300loPI   C4B 4800  16.053   2.473   8.144 -0.4629  0.1794 -0.0348
  301loPI    C1 4801   6.453  10.224  10.803  0.3108 -0.0029 -0.0381
  301loPI    C2 4802   6.123  10.036  10.927  0.1211  0.1905 -0.2411
  301loPI    C3 4803   6.470   9.977  11.117 -0.0966  0.2406  0.1844
  301loPI   PO4 4804   6.267  10.451  10.703  0.0461 -0.1954 -0.2010
  301loPI   GL1 4805   6.051  10.552  10.309 -0.0860  0.1906  0.1370
  301loPI   GL2 4806   6.283  10.800  10.204 -0.0274 -0.5463 -0.0509
  301loPI   C1A 4807   5.875  10.655   9.918 -0.2454  0.0615  0.3461
  301loPI   C2A 4808   5.767  10.726   9.491  0.1790  0.1017 -0.2861
  301loPI   C3A 4809   5.716  10.639   9.015 -0.2718  0.0445  0.2716
  301loPI   C4A 4810   5.885  10.673   8.629 -0.0461 -0.1551  0.2035
  301loPI   C5A 4811   5.821  10.642   8.261  0.2028  0.1179  0.2474
  301loPI   C6A 4812   5.521  10.878   8.089  0.0771 -0.3964 -0.1657
  301loPI   C1B 4813   6.326  10.821   9.776  0.3474  0.0118 -0.1958
  301loPI   C2B 4814   6.270  10.748   9.272  0.0285  0.1963  0.1451
  301loPI   C3B 4815   6.353  10.772   8.964  0.1088  0.2510 -0.2030
  301loPI   C4B 4816   6.344  10.865   8.481  0.0157 -0.3170 -0.3829
  302loPI    C1 4817   0.273   2.933  11.414  0.0822 -0.0436  0.4349
  302loPI    C2 4818  -0.030   3.177  11.504  0.0580  0.1675 -0.1757
  302loPI    C3 4819   0.347   3.301  11.554  0.0518  0.0182  0.2897
  302loPI   PO4 4820   0.265   2.861  11.178 -0.1225 -0.0621 -0.0380
  302loPI   GL1 4821   0.113   2.686  10.723 -0.0076 -0.2664 -0.2478
  302loPI   GL2 4822  -0.070   2.375  10.586 -0.1802  0.1678  0.0035
  302loPI   C1A 4823   0.301   2.796  10.323 -0.0060 -0.1357  0.2301
  302loPI   C2A 4824   0.418   2.612   9.940  0.1012  0.0434  0.3995
  302loPI   C3A 4825   0.378   2.663   9.526  0.1939  0.0544 -0.0880
  302loPI   C4A 4826   0.259   2.560   9.222 -0.1111  0.0875  0.3830
  302loPI   C5A 4827   0.340   2.578   8.787  0.0186 -0.5366 -0.0328
  302loPI   C6A 4828   0.354   2.585   8.329 -0.1018  0.1076 -0.0973
  302loPI   C1B 4829  -0.119   2.452  10.168  0.2775 -0.0299  0.0299
  302loPI   C2B 4830  -0.116   2.558   9.793  0.2877  0.4395  0.0030
  302loPI   C3B 4831  -0.206   2.412   9.371 -0.0801 -0.1682  0.0676
  302loPI   C4B 4832  -0.147   2.422   8.962 -0.2677  0.1744  0.1082
  303loPI    C1 4833   7.130   3.263  10.769 -0.2288  0.2934  0.1477
  303loPI    C2 4834   7.267   3.563  10.995 -0.2013  0.1380  0.3400
  303loPI    C3 4835   7.062   3.263  11.163 -0.0603 -0.0504  0.1811
  303loPI   PO4 4836   7.053   3.484  10.575 -0.2011  0.1621 -0.0086
  303loPI   GL1 4837   6.949   3.521  10.181 -0.2372  0.1727 -0.2810
  303loPI   GL2 4838   7.364   3.326  10.109  0.2387  0.0662 -0.0809
  303loPI   C1A 4839   6.709   3.670   9.820  0.0424 -0.0660  0.2353
  303loPI   C2A 4840   6.614   3.683   9.377 -0.0547 -0.3189  0.2505
  303loPI   C3A 4841   6.557   3.599   8.976  0.1310  0.3355  0.0716
  303loPI   C4A 4842   6.404   3.596   8.668 -0.1135 -0.1319 -0.0745
  303loPI   C5A 4843   6.023   3.482   8.422 -0.3322 -0.2526 -0.1472
  303loPI   C6A 4844   5.652   3.396   8.291  0.1289  0.1804 -0.1644
  303loPI   C1B 4845   7.290   3.014   9.793 -0.0130 -0.0936 -0.0009
  303loPI   C2B 4846   7.255   2.803   9.378  0.2070  0.2052 -0.2719
  303loPI   C3B 4847   7.240   2.935   9.015 -0.0674  0.2403  0.3395
  303loPI   C4B 4848   7.198   2.804   8.546  0.0673  0.2152 -0.1689
  304loPI    C1 4849   5.902  10.859  10.972  0.2043 -0.0981 -0.2582
  304loPI    C2 4850   6.086  10.879  11.327 -0.0422 -0.2039 -0.1217
  304loPI    C3 4851   5.928  10.533  11.203 -0.4530 -0.0375 -0.0786
  304loPI   PO4 4852   6.026  10.877  10.691  0.2666  0.1017 -0.4791
  304loPI   GL1 4853   5.873  11.090  10.320  0.0009 -0.0338 -0.2003
  304loPI   GL2 4854   5.585  10.996  10.158  0.2903  0.0375  0.3026
  304loPI   C1A 4855   6.023  11.171   9.992 -0.1983  0.2617 -0.1073
  304loPI   C2A 4856   5.993  11.139   9.618  0.0870 -0.0419  0.0608
  304loPI   C3A 4857   5.900  11.079   9.199 -0.1093  0.0206  0.2045
  304loPI   C4A 4858   5.862  11.235   8.784  0.0745  0.2088  0.0592
  304loPI   C5A 4859   5.868  11.292   8.359  0.2146 -0.1001 -0.0921
  304loPI   C6A 4860   5.828  11.244   7.881  0.0425  0.0288  0.1746
  304loPI   C1B 4861   5.427  10.943   9.760  0.1971 -0.0509 -0.1966
  304loPI   C2B 4862   5.378  10.942   9.307 -0.0692  0.0848 -0.0527
  304loPI   C3B 4863   5.390  11.003   8.905  0.0307  0.0406 -0.2770
  304loPI   C4B 4864   5.513  10.972   8.588  0.1006  0.2052 -0.0174
  305loPI    C1 4865  13.714   8.434  10.673  0.0591  0.2083 -0.0653
  305loPI    C2 4866  13.630   8.077  10.834  0.3317  0.0157 -0.3383
  305loPI    C3 4867  13.835   8.348  11.045 -0.0314  0.0850 -0.0638
  305loPI   PO4 4868  13.786   8.318  10.396 -0.2349  0.0961  0.2163
  305loPI   GL1 4869  13.886   8.334   9.955  0.1494 -0.0396 -0.3265
  305loPI   GL2 4870  13.692   8.047   9.918  0.1164  0.0387 -0.2373
  305loPI   C1A 4871  13.772   8.282   9.496  0.3912  0.0001  0.2305
  305loPI   C2A 4872  13.813   8.305   9.009  0.1443 -0.3648 -0.0135
  305loPI   C3A 4873  13.619   8.282   8.569 -0.2553 -0.0955  0.2047
  305loPI   C4A 4874  13.669   8.196   8.104 -0.0028 -0.0318  0.0098
  305loPI   C5A 4875  13.601   8.251   7.659 -0.4563  0.3311  0.2603
  305loPI   C6A 4876  13.587   8.427   7.218  0.0806 -0.2807 -0.2134
  305loPI   C1B 4877  13.757   7.735   9.536  0.0063 -0.1985  0.4811
  305loPI   C2B 4878  13.662   7.812   9.085 -0.1040  0.0119 -0.1068
  305loPI   C3B 4879  13.572   7.775   8.685  0.1069  0.0357 -0.2719
  305loPI   C4B 4880  13.571   7.756   8.279 -0.2898 -0.0524  0.2499
  306loPI    C1 4881  13.464  15.352  10.922  0.2187  0.1074  0.0076
  306loPI    C2 4882  13.102  15.453  11.059  0.0893 -0.2184 -0.0827
  306loPI    C3 4883  13.415  15.695  11.121 -0.1319  0.0415  0.0415
  306loPI   PO4 4884  13.407  15.312  10.678 -0.1331  0.2854 -0.3795
  306loPI   GL1 4885  13.290  15.121  10.339 -0.0385 -0.1195  0.0292
  306loPI   GL2 4886  13.029  15.394  10.362 -0.1107  0.1701 -0.2258
  306loPI   C1A 4887  13.396  14.890   9.964  0.0341  0.0142  0.2402
  306loPI   C2A 4888  13.493  14.959   9.519 -0.0082  0.0115 -0.0864
  306loPI   C3A 4889  13.383  15.038   9.182  0.1012  0.2071  0.0234
  306loPI   C4A 4890  13.306  14.911   8.771 -0.3196 -0.2217  0.1891
  306loPI   C5A 4891  13.320  14.975   8.318 -0.2296 -0.1555 -0.0110
  306loPI   C6A 4892  13.111  14.762   7.949  0.0744 -0.0064 -0.0812
  306loPI   C1B 4893  13.010  15.273   9.871 -0.0699  0.1425  0.2816
  306loPI   C2B 4894  13.053  15.263   9.402 -0.0948 -0.0931 -0.0731
  306loPI   C3B 4895  12.945  15.176   9.035  0.2443  0.0089 -0.0514
  306loPI   C4B 4896  12.978  15.227   8.528  0.1466 -0.0567 -0.0872
  307loPI    C1 4897   5.998   8.610  10.629  0.0938  0.1110 -0.0090
  307loPI    C2 4898   6.151   8.326  10.867  0.1009  0.0870 -0.0420
  307loPI    C3 4899   6.301   8.697  10.876 -0.1015  0.1662  0.2149
  307loPI   PO4 4900   6.052   8.528  10.391  0.3926  0.1571  0.3551
  307loPI   GL1 4901   6.192   8.393  10.061  0.1791 -0.2245 -0.0120
  307loPI   GL2 4902   6.252   8.072  10.107 -0.0843  0.0774 -0.3574
  307loPI   C1A 4903   6.336   8.429   9.744  0.1672 -0.4406 -0.5706
  307loPI   C2A 4904   6.317   8.422   9.314  0.2267  0.0564  0.0944
  307loPI   C3A 4905   6.233   8.456   8.894  0.4234 -0.0540  0.1255
  307loPI   C4A 4906   6.292   8.420   8.371  0.2024 -0.0656 -0.0236
  307loPI   C5A 4907   6.398   8.174   7.950  0.0514 -0.1227  0.3326
  307loPI   C6A 4908   6.781   8.096   7.863  0.0473 -0.1005 -0.2571
  307loPI   C1B 4909   6.650   8.100   9.835 -0.1019 -0.0797 -0.1878
  307loPI   C2B 4910   6.665   8.047   9.471 -0.2111  0.0782  0.1546
  307loPI   C3B 4911   6.670   8.049   9.109 -0.5127  0.0679  0.2053
  307loPI   C4B 4912   6.558   8.062   8.711  0.2732 -0.0168 -0.0922
  308loPI    C1 4913  10.600   1.079  10.504 -0.0034 -0.1257  0.2189
  308loPI    C2 4914  10.263   1.136  10.712 -0.0677 -0.2675  0.1554
  308loPI    C3 4915  10.511   1.443  10.644 -0.2440 -0.1365  0.0982
  308loPI   PO4 4916  10.537   0.986  10.296 -0.0322 -0.1738  0.2800
  308loPI   GL1 4917  10.709   0.888   9.921 -0.2433  0.0492  0.2874
  308loPI   GL2 4918  10.567   1.179   9.857 -0.2057  0.1117 -0.1783
  308loPI   C1A 4919  10.508   0.730   9.583 -0.1375  0.0790  0.1098
  308loPI   C2A 4920  10.508   0.571   9.194 -0.1566 -0.1834 -0.1431
  308loPI   C3A 4921  10.394   0.471   8.737 -0.0364  0.1590 -0.3017
  308loPI   C4A 4922  10.419   0.427   8.383  0.0724 -0.0028 -0.0932
  308loPI   C5A 4923  10.674   0.359   8.066  0.1134  0.1172 -0.0858
  308loPI   C6A 4924  10.741   0.054   7.852 -0.1179  0.2103 -0.2660
  308loPI   C1B 4925  10.613   1.166   9.496 -0.0837  0.0476  0.2584
  308loPI   C2B 4926  10.564   1.062   9.089  0.3083  0.0101 -0.1482
  308loPI   C3B 4927  10.528   0.989   8.737  0.0183  0.0995 -0.1845
  308loPI   C4B 4928  10.614   0.880   8.370  0.1006  0.0261 -0.0294
  309loPI    C1 4929  18.047  14.739  11.187 -0.0092 -0.0871  0.0924
  309loPI    C2 4930  17.681  14.817  11.328  0.0608  0.1640  0.1407
  309loPI    C3 4931  17.918  14.558  11.520 -0.1835 -0.1983 -0.0334
  309loPI   PO4 4932  18.014  14.964  10.923 -0.2149  0.0046  0.0963
  309loPI   GL1 4933  18.020  14.966  10.439 -0.4120  0.1074  0.3342
  309loPI   GL2 4934  17.800  15.221  10.459 -0.2502 -0.0235 -0.0557
  309loPI   C1A 4935  18.040  15.015  10.054  0.1496 -0.4657 -0.2312
  309loPI   C2A 4936  18.031  15.001   9.576  0.0603  0.1689  0.0888
  309loPI   C3A 4937  18.029  15.038   9.104 -0.0476 -0.3365 -0.2528
  309loPI   C4A 4938  17.972  15.132   8.723  0.1575 -0.1164 -0.4485
  309loPI   C5A 4939  17.824  15.257   8.290 -0.1570 -0.0335  0.1521
  309loPI   C6A 4940  17.987  15.067   7.816 -0.0160  0.2944 -0.0965
  309loPI   C1B 4941  17.691  15.380   9.976 -0.1938  0.2078 -0.0256
  309loPI   C2B 4942  17.669  15.394   9.540  0.0978 -0.0229  0.0863
  309loPI   C3B 4943  17.678  15.385   9.104  0.1221 -0.4305 -0.0017
  309loPI   C4B 4944  17.612  15.492   8.694  0.3315  0.1795 -0.3863
  310loPI    C1 4945  17.619   8.797  10.873 -0.1503 -0.2704  0.1898
  310loPI    C2 4946  17.428   8.849  10.526  0.0029  0.1229  0.1592
  310loPI    C3 4947  17.277   9.005  10.862  0.0241  0.0233  0.2153
  310loPI   PO4 4948  17.731   8.498  10.851  0.3166 -0.3547  0.1954
  310loPI   GL1 4949  17.715   8.359  10.487 -0.0514  0.0649  0.3646
  310loPI   GL2 4950  17.879   8.435  10.213 -0.2325 -0.3645  0.0013
  310loPI   C1A 4951  17.459   8.487  10.071  0.2800  0.1061  0.0645
  310loPI   C2A 4952  17.615   8.478   9.654 -0.3217 -0.1491  0.3470
  310loPI   C3A 4953  17.549   8.519   9.251  0.1402  0.0631  0.0568
  310loPI   C4A 4954  17.694   8.701   8.785 -0.0170  0.1828 -0.2039
  310loPI   C5A 4955  17.656   8.914   8.339 -0.0399  0.2556  0.1431
  310loPI   C6A 4956  17.730   9.348   8.153  0.2146 -0.2506 -0.0081
  310loPI   C1B 4957  18.034   8.622   9.815 -0.1943 -0.2210 -0.0606
  310loPI   C2B 4958  18.043   8.686   9.404 -0.0392 -0.0109  0.2128
  310loPI   C3B 4959  18.128   8.765   8.970  0.2420  0.0052 -0.0643
  310loPI   C4B 4960  18.065   8.982   8.573  0.0666 -0.0507 -0.2197
  311loPI    C1 4961  17.753  17.292  10.930 -0.1286  0.0953 -0.1459
  311loPI    C2 4962  17.818  17.302  11.324  0.0281  0.3060 -0.1751
  311loPI    C3 4963  17.444  17.291  11.184 -0.0240 -0.2126 -0.0163
  311loPI   PO4 4964  17.989  17.106  10.856 -0.1838 -0.2917 -0.0673
  311loPI   GL1 4965  18.042  17.143  10.412  0.1852 -0.0436 -0.0178
  311loPI   GL2 4966  17.817  17.311  10.395  0.1311  0.0578 -0.0552
  311loPI   C1A 4967  18.187  17.391  10.036  0.3832 -0.0379  0.1242
  311loPI   C2A 4968  18.118  17.363   9.567 -0.1768 -0.4141  0.2180
  311loPI   C3A 4969  18.150  17.396   9.158 -0.0057 -0.0621  0.0428
  311loPI   C4A 4970  18.007  17.359   8.656 -0.0222  0.1038 -0.1586
  311loPI   C5A 4971  18.162  17.203   8.199  0.3542  0.0891  0.2243
  311loPI   C6A 4972  18.245  16.768   8.158 -0.2076 -0.2559 -0.0513
  311loPI   C1B 4973  17.600  17.215  10.004 -0.2721 -0.4652  0.1708
  311loPI   C2B 4974  17.639  17.231   9.569  0.1613  0.1437 -0.4201
  311loPI   C3B 4975  17.655  17.263   9.181 -0.0062 -0.1712 -0.0641
  311loPI   C4B 4976  17.536  17.248   8.731  0.1889  0.0158  0.1159
  312loPI    C1 4977   2.921  10.557  11.117 -0.0877 -0.0022  0.0782
  312loPI    C2 4978   3.180  10.836  11.240  0.0872  0.0045 -0.2924
  312loPI    C3 4979   3.250  10.450  11.318 -0.0985  0.0501  0.1239
  312loPI   PO4 4980   2.841  10.500  10.829  0.1265  0.1781 -0.3050
  312loPI   GL1 4981   2.970  10.580  10.451 -0.1419 -0.1808 -0.0229
  312loPI   GL2 4982   3.344  10.368  10.333 -0.1653  0.2822 -0.0843
  312loPI   C1A 4983   3.145  10.711  10.053 -0.3467  0.0093  0.0773
  312loPI   C2A 4984   3.161  10.742   9.594 -0.2332 -0.1653 -0.1139
  312loPI   C3A 4985   3.054  10.688   9.123 -0.3617 -0.1943 -0.4667
  312loPI   C4A 4986   2.998  10.618   8.579  0.1962  0.1325  0.1212
  312loPI   C5A 4987   3.337  10.524   8.375 -0.0558 -0.0688  0.3124
  312loPI   C6A 4988   3.797  10.578   8.274 -0.3417 -0.0161 -0.0504
  312loPI   C1B 4989   3.502  10.286  10.009  0.1736 -0.2316 -0.1371
  312loPI   C2B 4990   3.521  10.423   9.642 -0.0233  0.0240 -0.2761
  312loPI   C3B 4991   3.441  10.380   9.152  0.1509  0.0779 -0.0885
  312loPI   C4B 4992   3.527  10.336   8.768 -0.1213  0.2571 -0.2530
  313loPI    C1 4993  11.074  13.167  10.949  0.0120  0.0374  0.1308
  313loPI    C2 4994  10.811  12.868  10.912  0.0579 -0.0114  0.1957
  313loPI    C3 4995  11.050  12.886  11.233  0.1971 -0.0177  0.0934
  313loPI   PO4 4996  11.068  13.220  10.610  0.1350  0.4886 -0.1626
  313loPI   GL1 4997  11.173  13.317  10.255  0.2628  0.1232  0.0077
  313loPI   GL2 4998  11.204  12.922  10.241 -0.0575  0.1138  0.0858
  313loPI   C1A 4999  11.187  13.300   9.841  0.1115  0.1027  0.0532
  313loPI   C2A 5000  11.176  13.238   9.391 -0.1793 -0.0248 -0.3343
  313loPI   C3A 5001  11.199  13.268   8.907 -0.1524 -0.1414  0.3044
  313loPI   C4A 5002  11.168  13.314   8.467  0.2628  0.1105 -0.2277
  313loPI   C5A 5003  10.825  13.144   8.232 -0.1942  0.0878  0.3554
  313loPI   C6A 5004  10.715  12.755   8.151  0.0123 -0.2070  0.4045
  313loPI   C1B 5005  11.498  12.874   9.899 -0.0018 -0.0202  0.2514
  313loPI   C2B 5006  11.530  12.869   9.450 -0.2560 -0.0733 -0.2862
  313loPI   C3B 5007  11.474  12.878   9.037 -0.2067  0.0091  0.0643
  313loPI   C4B 5008  11.484  12.876   8.613 -0.2390 -0.0618 -0.0767
  314loPI    C1 5009  17.304   1.817  11.048 -0.0209  0.1242  0.1155
  314loPI    C2 5010  17.502   1.945  11.371 -0.1597  0.0673  0.2236
  314loPI    C3 5011  17.310   2.207  11.137 -0.0578  0.1087  0.1863
  314loPI   PO4 5012  17.463   1.680  10.929 -0.0340 -0.1077  0.4367
  314loPI   GL1 5013  17.389   1.697  10.479  0.2056  0.2487 -0.2654
  314loPI   GL2 5014  17.557   1.484  10.471 -0.0807 -0.0203 -0.1303
  314loPI   C1A 5015  17.488   1.787   9.973  0.1397 -0.0152  0.1681
  314loPI   C2A 5016  17.466   1.823   9.564 -0.1437 -0.1494 -0.0071
  314loPI   C3A 5017  17.392   1.773   9.154 -0.0953  0.0325 -0.0242
  314loPI   C4A 5018  17.336   1.720   8.670  0.2540 -0.2977  0.0822
  314loPI   C5A 5019  17.635   1.524   8.507 -0.0858 -0.0854 -0.0634
  314loPI   C6A 5020  18.094   1.601   8.505  0.1678  0.0911  0.0484
  314loPI   C1B 5021  17.749   1.412  10.064  0.0135  0.1790  0.1526
  314loPI   C2B 5022  17.751   1.423   9.696  0.1749 -0.1199  0.0072
  314loPI   C3B 5023  17.752   1.389   9.360  0.0823 -0.0685 -0.0135
  314loPI   C4B 5024  17.715   1.433   8.965  0.0475  0.2042 -0.1421
  315loPI    C1 5025  12.814  16.777  10.799 -0.0304 -0.1122 -0.0332
  315loPI    C2 5026  12.465  16.739  10.990 -0.2368  0.1135 -0.3552
  315loPI    C3 5027  12.682  16.414  10.904 -0.1169  0.0098  0.2904
  315loPI   PO4 5028  12.810  16.874  10.651  0.1644  0.2450 -0.2231
  315loPI   GL1 5029  12.477  16.829  10.394  0.0859 -0.0973 -0.1079
  315loPI   GL2 5030  12.599  16.512  10.406 -0.0373 -0.6092 -0.0693
  315loPI   C1A 5031  12.578  16.995  10.062 -0.2771 -0.0735  0.0103
  315loPI   C2A 5032  12.516  17.019   9.603  0.3501  0.1458 -0.1897
  315loPI   C3A 5033  12.447  16.951   9.134  0.2390 -0.0065 -0.0837
  315loPI   C4A 5034  12.453  16.966   8.714 -0.3353  0.1059 -0.2491
  315loPI   C5A 5035  12.689  17.185   8.341  0.0026  0.2890  0.1679
  315loPI   C6A 5036  12.985  16.999   8.044 -0.1957 -0.1382 -0.0274
  315loPI   C1B 5037  12.433  16.402  10.043  0.2704 -0.2573  0.1234
  315loPI   C2B 5038  12.334  16.426   9.641 -0.1602 -0.1829  0.0515
  315loPI   C3B 5039  12.318  16.422   9.245 -0.3395  0.1784  0.2036
  315loPI   C4B 5040  12.247  16.523   8.919 -0.1256 -0.0235 -0.2385
  316loPI    C1 5041  10.046   5.654  10.322  0.4431 -0.0743  0.1011
  316loPI    C2 5042   9.871   5.824  10.639  0.1944  0.0518 -0.1003
  316loPI    C3 5043  10.264   5.869  10.579  0.2778 -0.1260  0.2865
  316loPI   PO4 5044   9.958   5.663  10.077 -0.1688  0.1217  0.1005
  316loPI   GL1 5045   9.881   5.401   9.793  0.1245 -0.0364  0.2847
  316loPI   GL2 5046   9.665   5.154   9.841  0.0757  0.3211  0.0562
  316loPI   C1A 5047   9.841   5.616   9.298  0.1354 -0.1749 -0.1049
  316loPI   C2A 5048   9.705   5.598   8.813  0.2786  0.1224 -0.1477
  316loPI   C3A 5049   9.771   5.689   8.381 -0.1521 -0.0773 -0.0154
  316loPI   C4A 5050   9.665   5.430   8.015 -0.0631 -0.2682 -0.1397
  316loPI   C5A 5051   9.313   5.412   7.796 -0.0150  0.1491  0.0344
  316loPI   C6A 5052   9.064   5.152   7.526  0.2853 -0.0667 -0.0120
  316loPI   C1B 5053   9.714   5.025   9.441  0.2119 -0.0942 -0.3647
  316loPI   C2B 5054   9.623   5.091   9.078  0.1229  0.0619 -0.1801
  316loPI   C3B 5055   9.577   5.165   8.610  0.1963  0.0721 -0.0459
  316loPI   C4B 5056   9.384   5.146   8.253 -0.1503 -0.0510  0.4496
  317loPI    C1 5057  13.620  12.763  11.013 -0.1020 -0.1277 -0.1159
  317loPI    C2 5058  13.822  12.962  11.295 -0.2785 -0.0434 -0.0475
  317loPI    C3 5059  13.568  12.671  11.399 -0.1839 -0.1579 -0.1339
  317loPI   PO4 5060  13.769  12.883  10.825  0.3967 -0.1308  0.1026
  317loPI   GL1 5061  13.596  12.957  10.350  0.0512 -0.0082 -0.0233
  317loPI   GL2 5062  13.921  13.015  10.249  0.0904  0.1325 -0.0387
  317loPI   C1A 5063  13.418  12.864  10.037 -0.1524 -0.1828 -0.1564
  317loPI   C2A 5064  13.411  12.903   9.651  0.2846 -0.1207  0.2157
  317loPI   C3A 5065  13.413  13.051   9.179  0.1719 -0.0300  0.1152
  317loPI   C4A 5066  13.429  13.042   8.766  0.0479  0.2486 -0.0525
  317loPI   C5A 5067  13.311  12.870   8.466 -0.0191  0.0236 -0.2556
  317loPI   C6A 5068  13.474  12.922   7.994  0.1080  0.0777 -0.1196
  317loPI   C1B 5069  13.834  13.022   9.851  0.1134 -0.0289 -0.1296
  317loPI   C2B 5070  13.799  13.177   9.421  0.1200  0.1771  0.0677
  317loPI   C3B 5071  13.897  13.193   8.974 -0.0089  0.0880  0.0870
  317loPI   C4B 5072  13.954  13.209   8.489 -0.0288 -0.2943  0.1994
  318loPI    C1 5073   3.020  17.663  11.082  0.0079 -0.3819  0.0325
  318loPI    C2 5074   3.304  17.883  11.257 -0.0834 -0.0922 -0.1747
  318loPI    C3 5075   3.024  17.705  11.480 -0.0193  0.0165 -0.0047
  318loPI   PO4 5076   2.924  17.904  10.925 -0.1351 -0.1532  0.0365
  318loPI   GL1 5077   2.903  17.930  10.563 -0.0488  0.0314 -0.0728
  318loPI   GL2 5078   3.116  17.963  10.442  0.2506 -0.2078  0.1565
  318loPI   C1A 5079   2.932  17.723  10.059 -0.0323  0.1976  0.1342
  318loPI   C2A 5080   2.838  17.815   9.697 -0.0543  0.0614 -0.2533
  318loPI   C3A 5081   2.779  17.792   9.271 -0.3476  0.0375 -0.0135
  318loPI   C4A 5082   2.838  17.788   8.804 -0.0525  0.0489  0.1483
  318loPI   C5A 5083   2.734  17.559   8.464 -0.0298  0.2350 -0.2625
  318loPI   C6A 5084   2.327  17.450   8.306  0.0647  0.0730 -0.2215
  318loPI   C1B 5085   3.076  18.268  10.094 -0.0407 -0.1665  0.1902
  318loPI   C2B 5086   2.963  18.389   9.689 -0.0793 -0.0558 -0.2169
  318loPI   C3B 5087   2.973  18.305   9.262 -0.2930  0.1853 -0.2788
  318loPI   C4B 5088   2.926  18.321   8.900  0.5634  0.0682  0.0226
  319loPI    C1 5089   4.605   6.428  10.844 -0.0114 -0.0511 -0.1200
  319loPI    C2 5090   4.341   6.666  11.029 -0.0143 -0.1159 -0.0401
  319loPI    C3 5091   4.733   6.732  11.070 -0.0146 -0.1428  0.0059
  319loPI   PO4 5092   4.552   6.362  10.642  0.0920 -0.4481 -0.0479
  319loPI   GL1 5093   4.652   6.303  10.259 -0.2045 -0.0465 -0.0094
  319loPI   GL2 5094   4.909   6.517  10.097  0.0410 -0.1056  0.2002
  319loPI   C1A 5095   4.438   6.282   9.874  0.1766  0.0355 -0.2857
  319loPI   C2A 5096   4.399   6.243   9.504  0.3231 -0.2114  0.2603
  319loPI   C3A 5097   4.444   6.323   9.108 -0.0739 -0.1672  0.1693
  319loPI   C4A 5098   4.371   6.352   8.624 -0.0105  0.0868  0.0021
  319loPI   C5A 5099   4.222   6.032   8.338  0.0388  0.1656  0.0476
  319loPI   C6A 5100   4.260   5.610   8.134  0.1119 -0.0518 -0.4354
  319loPI   C1B 5101   4.897   6.449   9.635  0.2847  0.0451  0.1301
  319loPI   C2B 5102   4.972   6.512   9.129  0.1615 -0.0112  0.2749
  319loPI   C3B 5103   4.836   6.526   8.754  0.0630 -0.0060 -0.0013
  319loPI   C4B 5104   4.810   6.462   8.324  0.5280  0.1677  0.1966
  320loPI    C1 5105   8.982  18.168  10.744 -0.1148  0.0373 -0.0402
  320loPI    C2 5106   9.111  18.323  11.089  0.0517  0.0546 -0.1092
  320loPI    C3 5107   8.741  18.403  10.960  0.0605  0.2172 -0.0368
  320loPI   PO4 5108   9.169  17.908  10.769  0.3204  0.2209  0.1557
  320loPI   GL1 5109   9.294  17.841  10.376 -0.1156  0.3182 -0.3616
  320loPI   GL2 5110   8.956  17.716  10.296 -0.0580 -0.0077  0.2019
  320loPI   C1A 5111   9.399  17.897   9.905  0.0819 -0.0812 -0.0275
  320loPI   C2A 5112   9.366  17.865   9.486  0.0221  0.2733 -0.1137
  320loPI   C3A 5113   9.341  17.886   8.988 -0.3129  0.4412 -0.0572
  320loPI   C4A 5114   9.230  17.837   8.624 -0.0990 -0.0233  0.1713
  320loPI   C5A 5115   9.140  17.818   8.155 -0.0581  0.1786 -0.0878
  320loPI   C6A 5116   8.986  17.816   7.740  0.0425 -0.1559 -0.1195
  320loPI   C1B 5117   8.877  17.832   9.879 -0.0829  0.0042  0.0538
  320loPI   C2B 5118   8.879  17.715   9.446 -0.1414 -0.0666 -0.0220
  320loPI   C3B 5119   8.840  17.743   9.133  0.3368 -0.0631  0.0913
  320loPI   C4B 5120   8.796  17.665   8.652 -0.1136  0.2912  0.0650
  321loPI    C1 5121   1.436  15.105  10.991  0.0684  0.0881  0.3619
  321loPI    C2 5122   1.199  15.428  10.991 -0.0599 -0.0024  0.0730
  321loPI    C3 5123   1.271  15.232  11.333 -0.1167  0.2316  0.2217
  321loPI   PO4 5124   1.364  14.999  10.673  0.0573 -0.1509 -0.1758
  321loPI   GL1 5125   1.320  15.154  10.243  0.0519 -0.2290 -0.0995
  321loPI   GL2 5126   1.123  14.913  10.130 -0.0137 -0.0151  0.3531
  321loPI   C1A 5127   1.480  15.417   9.898 -0.1035 -0.0617  0.0216
  321loPI   C2A 5128   1.381  15.471   9.429 -0.2806  0.0297  0.1785
  321loPI   C3A 5129   1.440  15.448   8.946  0.0258  0.0957  0.0705
  321loPI   C4A 5130   1.372  15.576   8.582  0.0686  0.3650 -0.1321
  321loPI   C5A 5131   1.590  15.326   8.264 -0.0124 -0.0293  0.3563
  321loPI   C6A 5132   1.703  15.292   7.856  0.0277  0.2318 -0.1955
  321loPI   C1B 5133   0.699  14.857   9.795 -0.3104  0.1230  0.1430
  321loPI   C2B 5134   0.778  14.873   9.305 -0.1200  0.1261 -0.0025
  321loPI   C3B 5135   0.676  14.856   8.883 -0.2533  0.0434 -0.0910
  321loPI   C4B 5136   0.636  14.871   8.457  0.0816 -0.0464 -0.0043
  322loPI    C1 5137   3.534  14.226  11.258  0.1499 -0.3241 -0.1277
  322loPI    C2 5138   3.917  14.340  11.268  0.0355  0.0754 -0.1439
  322loPI    C3 5139   3.721  14.268  11.609  0.0155  0.2592 -0.1152
  322loPI   PO4 5140   3.572  14.052  10.870  0.1474 -0.2038 -0.1219
  322loPI   GL1 5141   3.828  13.992  10.514 -0.1576  0.0340 -0.6105
  322loPI   GL2 5142   3.936  14.362  10.677 -0.0267 -0.3064 -0.1281
  322loPI   C1A 5143   3.870  13.915  10.073 -0.0683 -0.0853  0.0250
  322loPI   C2A 5144   3.814  13.739   9.821  0.0393 -0.2217 -0.2842
  322loPI   C3A 5145   3.791  13.823   9.388 -0.0877  0.1627 -0.1487
  322loPI   C4A 5146   3.740  13.781   8.887 -0.0357 -0.0367  0.1672
  322loPI   C5A 5147   3.385  13.919   8.649 -0.1290  0.2122 -0.0276
  322loPI   C6A 5148   3.160  14.210   8.620 -0.1449 -0.1503  0.1015
  322loPI   C1B 5149   4.011  14.425  10.190 -0.1531 -0.0386  0.0398
  322loPI   C2B 5150   3.920  14.383   9.870 -0.2889 -0.2088 -0.1642
  322loPI   C3B 5151   3.901  14.327   9.519  0.2635 -0.3478 -0.1450
  322loPI   C4B 5152   3.883  14.256   9.208  0.3614 -0.1267  0.1864
  323loPI    C1 5153   7.176   9.179  10.902  0.1065  0.2243 -0.2242
  323loPI    C2 5154   7.066   9.489  11.129 -0.0295 -0.1248  0.2007
  323loPI    C3 5155   6.977   9.116  11.243  0.3149 -0.3366 -0.1955
  323loPI   PO4 5156   7.081   9.304  10.593 -0.0490 -0.1070 -0.1144
  323loPI   GL1 5157   7.219   9.250  10.233 -0.0855 -0.2340  0.1057
  323loPI   GL2 5158   6.954   9.095  10.156  0.0925  0.0010 -0.1965
  323loPI   C1A 5159   7.341   9.187   9.845 -0.3495  0.0256  0.0818
  323loPI   C2A 5160   7.333   9.129   9.359 -0.0425  0.0255  0.3651
  323loPI   C3A 5161   7.409   9.238   8.854 -0.0399 -0.3182 -0.1218
  323loPI   C4A 5162   7.421   9.142   8.462 -0.0637  0.1582  0.1015
  323loPI   C5A 5163   7.721   9.144   8.230 -0.2280  0.4530 -0.0647
  323loPI   C6A 5164   7.978   9.097   7.873  0.1568  0.0033  0.2475
  323loPI   C1B 5165   6.871   9.008   9.767  0.0142  0.0022  0.1839
  323loPI   C2B 5166   6.809   9.026   9.374 -0.1405  0.0796  0.3334
  323loPI   C3B 5167   6.907   9.025   8.952 -0.0174  0.1194 -0.0105
  323loPI   C4B 5168   6.897   8.975   8.526 -0.2841 -0.1422 -0.1349
  324loPI    C1 5169  12.449   6.324  10.380  0.0560 -0.0918  0.0768
  324loPI    C2 5170  12.092   6.377  10.552  0.0369 -0.0692  0.0304
  324loPI    C3 5171  12.418   6.548  10.709  0.0096  0.0054  0.0069
  324loPI   PO4 5172  12.285   6.293  10.160 -0.2060 -0.0273  0.3255
  324loPI   GL1 5173  12.219   6.449   9.735 -0.2158  0.0228 -0.1288
  324loPI   GL2 5174  12.474   6.434   9.563 -0.1669 -0.1715  0.0656
  324loPI   C1A 5175  11.966   6.728   9.622  0.0651 -0.3170  0.0880
  324loPI   C2A 5176  11.996   6.778   9.226  0.0175  0.0700 -0.1887
  324loPI   C3A 5177  11.852   6.778   8.828 -0.0994  0.3097 -0.2977
  324loPI   C4A 5178  11.860   6.733   8.390  0.0555  0.3871  0.1461
  324loPI   C5A 5179  11.778   6.840   7.954 -0.1110  0.2101  0.5407
  324loPI   C6A 5180  11.823   6.879   7.590 -0.2650 -0.1170 -0.1777
  324loPI   C1B 5181  12.343   6.430   9.205  0.0651  0.0902 -0.1509
  324loPI   C2B 5182  12.295   6.447   8.778  0.0225 -0.2381  0.2145
  324loPI   C3B 5183  12.302   6.312   8.372 -0.1575 -0.1579  0.0671
  324loPI   C4B 5184  12.125   6.443   7.975 -0.1958 -0.0246  0.1017
  325loPI    C1 5185   1.893   2.055  11.525  0.0913  0.3050  0.1714
  325loPI    C2 5186   2.125   1.777  11.694 -0.0671  0.2091  0.2342
  325loPI    C3 5187   1.826   1.941  11.903 -0.1013  0.2791  0.1309
  325loPI   PO4 5188   2.006   2.014  11.151 -0.0280 -0.1420 -0.0973
  325loPI   GL1 5189   1.916   2.069  10.718 -0.2318  0.0595 -0.1328
  325loPI   GL2 5190   2.226   2.177  10.551  0.1093 -0.1081  0.1658
  325loPI   C1A 5191   1.785   2.489  10.421 -0.0279 -0.0711 -0.2769
  325loPI   C2A 5192   1.804   2.631  10.049  0.3913 -0.3183 -0.0612
  325loPI   C3A 5193   1.692   2.599   9.566 -0.0913 -0.1190 -0.0495
  325loPI   C4A 5194   1.714   2.542   9.091  0.0442 -0.2563  0.0078
  325loPI   C5A 5195   1.751   2.575   8.684 -0.3390 -0.1631  0.1847
  325loPI   C6A 5196   2.135   2.474   8.435 -0.1748  0.1777 -0.3063
  325loPI   C1B 5197   2.088   2.204  10.137  0.0843  0.2034 -0.4779
  325loPI   C2B 5198   2.101   2.293   9.756  0.0892  0.1122 -0.0276
  325loPI   C3B 5199   2.152   2.284   9.425 -0.0642  0.1029  0.0303
  325loPI   C4B 5200   2.104   2.255   8.978  0.2675  0.0094  0.1201
  326loPI    C1 5201   9.749  10.866  10.668 -0.0526 -0.0693  0.1992
  326loPI    C2 5202  10.072  10.882  10.903  0.0477  0.1462  0.0499
  326loPI    C3 5203   9.746  10.684  11.024  0.2997 -0.2345  0.1213
  326loPI   PO4 5204   9.797  11.055  10.513  0.0030 -0.1106 -0.1782
  326loPI   GL1 5205   9.935  11.220  10.212 -0.2479 -0.0278  0.1985
  326loPI   GL2 5206   9.846  11.479  10.269  0.2904 -0.2404 -0.1453
  326loPI   C1A 5207  10.040  10.961   9.793 -0.1058 -0.0391  0.0318
  326loPI   C2A 5208  10.237  11.021   9.400  0.0151  0.1319  0.0714
  326loPI   C3A 5209  10.197  11.016   8.905 -0.2263 -0.1475 -0.0637
  326loPI   C4A 5210  10.335  11.038   8.401  0.0745 -0.3257  0.1290
  326loPI   C5A 5211  10.094  11.167   8.089  0.0129 -0.0110  0.0464
  326loPI   C6A 5212   9.747  11.002   7.809 -0.0294  0.2608  0.2441
  326loPI   C1B 5213   9.786  11.485   9.746  0.1919 -0.2969 -0.2825
  326loPI   C2B 5214   9.745  11.420   9.341  0.2096 -0.0427 -0.1185
  326loPI   C3B 5215   9.806  11.326   8.954 -0.0241  0.1254  0.2539
  326loPI   C4B 5216   9.937  11.283   8.556  0.0185  0.3274  0.1110
  327loPI    C1 5217  13.256  13.098  10.917 -0.1490  0.1051 -0.0228
  327loPI    C2 5218  13.562  13.316  11.053  0.1257 -0.2694 -0.0241
  327loPI    C3 5219  13.335  13.108  11.309 -0.0658 -0.0761 -0.0339
  327loPI   PO4 5220  13.287  13.108  10.676 -0.2207  0.0968 -0.0696
  327loPI   GL1 5221  13.238  13.347  10.354  0.2285  0.1009  0.3566
  327loPI   GL2 5222  13.403  13.693  10.336  0.2672  0.3716 -0.2616
  327loPI   C1A 5223  13.097  13.251   9.863  0.2159  0.1335 -0.2427
  327loPI   C2A 5224  12.985  13.409   9.491  0.1567 -0.0916  0.0360
  327loPI   C3A 5225  13.055  13.405   9.052 -0.0661 -0.0935 -0.1007
  327loPI   C4A 5226  12.984  13.326   8.712 -0.0515 -0.3806  0.2713
  327loPI   C5A 5227  13.041  13.418   8.286  0.0519  0.0117 -0.0387
  327loPI   C6A 5228  13.433  13.504   8.008  0.1879 -0.3759  0.1035
  327loPI   C1B 5229  13.585  13.428   9.959 -0.1400 -0.0446  0.2125
  327loPI   C2B 5230  13.447  13.450   9.582  0.1198  0.1872  0.0197
  327loPI   C3B 5231  13.537  13.545   9.086  0.0293 -0.0994  0.0070
  327loPI   C4B 5232  13.434  13.554   8.646 -0.0430 -0.3357  0.0743
  328loPI    C1 5233  13.514  11.335  11.129 -0.1266  0.0748 -0.1057
  328loPI    C2 5234  13.889  11.425  11.237 -0.0601 -0.1352 -0.1577
  328loPI    C3 5235  13.580  11.606  11.415  0.0586 -0.1781  0.0954
  328loPI   PO4 5236  13.638  11.270  10.857  0.1069 -0.2212 -0.3851
  328loPI   GL1 5237  13.815  11.329  10.382  0.0636 -0.2422  0.1758
  328loPI   GL2 5238  13.996  11.574  10.425  0.1869  0.0199 -0.3996
  328loPI   C1A 5239  13.930  10.969  10.267  0.1677 -0.0049 -0.2615
  328loPI   C2A 5240  13.833  10.646   9.954  0.0739  0.0376  0.3091
  328loPI   C3A 5241  13.879  10.787   9.565 -0.0816  0.1435 -0.0186
  328loPI   C4A 5242  13.812  10.798   9.030 -0.1105 -0.1142 -0.0984
  328loPI   C5A 5243  13.950  10.660   8.681  0.0580 -0.2937 -0.1663
  328loPI   C6A 5244  13.801  10.651   8.321  0.1329  0.3809 -0.3073
  328loPI   C1B 5245  14.017  11.696  10.053 -0.3788  0.2498  0.2348
  328loPI   C2B 5246  13.945  11.828   9.644  0.2652 -0.2681 -0.1709
  328loPI   C3B 5247  13.960  11.836   9.184  0.1106  0.4589 -0.1185
  328loPI   C4B 5248  14.109  11.726   8.762  0.0979 -0.0429 -0.2228
  329loPI    C1 5249   9.858  15.966  10.875  0.0301 -0.0607  0.0679
  329loPI    C2 5250   9.536  15.733  10.918 -0.1390  0.1854  0.1524
  329loPI    C3 5251   9.669  15.950  11.227  0.2407 -0.0789  0.1819
  329loPI   PO4 5252   9.989  15.848  10.549 -0.2278  0.3107  0.2200
  329loPI   GL1 5253   9.761  15.831  10.191  0.0818 -0.0561 -0.0378
  329loPI   GL2 5254   9.491  16.005  10.036 -0.2313 -0.2140  0.1526
  329loPI   C1A 5255   9.767  15.670   9.754  0.0632  0.1730  0.0280
  329loPI   C2A 5256   9.819  15.747   9.290 -0.0841 -0.3790 -0.0827
  329loPI   C3A 5257   9.704  15.722   8.966  0.1632 -0.0271  0.1830
  329loPI   C4A 5258   9.703  15.700   8.574  0.1652  0.3594  0.2723
  329loPI   C5A 5259   9.435  15.428   8.274  0.0869 -0.2305 -0.3622
  329loPI   C6A 5260   9.568  15.010   8.096  0.1133  0.2219  0.2879
  329loPI   C1B 5261   9.447  16.054   9.622  0.0019 -0.0350 -0.0140
  329loPI   C2B 5262   9.336  16.094   9.209 -0.0774 -0.2629 -0.2460
  329loPI   C3B 5263   9.316  16.053   8.814  0.2077 -0.0573 -0.0805
  329loPI   C4B 5264   9.327  16.029   8.406 -0.0193  0.2194 -0.0225
  330loPI    C1 5265  11.439  10.951  10.953 -0.0222  0.0011  0.0866
  330loPI    C2 5266  11.041  10.939  10.911 -0.0286 -0.0722  0.1634
  330loPI    C3 5267  11.207  11.194  11.170 -0.0074  0.1673 -0.0805
  330loPI   PO4 5268  11.510  10.919  10.774  0.3607 -0.1678  0.0412
  330loPI   GL1 5269  11.756  10.921  10.463 -0.3792  0.1610 -0.0578
  330loPI   GL2 5270  12.011  10.704  10.260  0.1946 -0.2066 -0.3220
  330loPI   C1A 5271  11.575  11.001  10.087  0.0069  0.0595  0.4275
  330loPI   C2A 5272  11.535  11.062   9.689 -0.2430  0.1615  0.1385
  330loPI   C3A 5273  11.507  10.995   9.303  0.1743  0.0146  0.0833
  330loPI   C4A 5274  11.666  11.031   8.959 -0.0840  0.0704  0.0668
  330loPI   C5A 5275  11.586  11.010   8.517 -0.0275  0.1230 -0.1652
  330loPI   C6A 5276  11.623  11.372   8.262  0.0741 -0.1655  0.0810
  330loPI   C1B 5277  11.948  10.726   9.884  0.1045  0.0481  0.1875
  330loPI   C2B 5278  11.897  10.702   9.470  0.0808  0.1342  0.3041
  330loPI   C3B 5279  12.023  10.602   9.032  0.2390 -0.0474  0.2008
  330loPI   C4B 5280  12.040  10.665   8.633  0.2479  0.1298  0.0250
  331loPI    C1 5281   6.577   7.376  10.468  0.1214  0.1889 -0.0247
  331loPI    C2 5282   6.726   7.501  10.817  0.1260  0.0576  0.0208
  331loPI    C3 5283   6.337   7.414  10.785  0.1316  0.0388  0.0019
  331loPI   PO4 5284   6.711   7.156  10.455  0.1116  0.1189 -0.0656
  331loPI   GL1 5285   6.832   6.882  10.093 -0.1592 -0.1072  0.0727
  331loPI   GL2 5286   6.593   6.684  10.084 -0.3345 -0.2554 -0.1243
  331loPI   C1A 5287   6.860   7.269   9.810  0.0594  0.0166  0.1364
  331loPI   C2A 5288   6.937   7.197   9.250 -0.0629  0.2514 -0.2281
  331loPI   C3A 5289   6.908   7.234   8.877 -0.0142  0.2309 -0.1340
  331loPI   C4A 5290   6.798   7.112   8.365  0.0183  0.0724 -0.0663
  331loPI   C5A 5291   6.393   7.239   8.189 -0.0902 -0.3498  0.1311
  331loPI   C6A 5292   6.287   7.549   7.912 -0.1335 -0.1481  0.0161
  331loPI   C1B 5293   6.688   6.675   9.604 -0.0581 -0.2558 -0.1703
  331loPI   C2B 5294   6.691   6.644   9.192  0.0766  0.0828 -0.0980
  331loPI   C3B 5295   6.723   6.663   8.698 -0.2094 -0.1229  0.0507
  331loPI   C4B 5296   6.653   6.611   8.249  0.1148  0.0639  0.2147
  332loPI    C1 5297   4.750   3.990  10.891  0.4067  0.0790  0.1882
  332loPI    C2 5298   4.553   4.336  10.864  0.1265 -0.0867  0.0665
  332loPI    C3 5299   4.517   4.110  11.192 -0.0751 -0.2271 -0.0500
  332loPI   PO4 5300   4.981   4.092  10.717  0.0595 -0.1382 -0.0559
  332loPI   GL1 5301   5.193   3.949  10.440  0.0170  0.0749  0.0053
  332loPI   GL2 5302   5.150   3.607  10.413 -0.3822  0.2763 -0.2942
  332loPI   C1A 5303   5.331   3.984  10.027  0.0118  0.1871  0.0327
  332loPI   C2A 5304   5.335   4.170   9.607  0.0400  0.3866 -0.4097
  332loPI   C3A 5305   5.290   4.189   9.082 -0.3047 -0.1455  0.0070
  332loPI   C4A 5306   5.190   4.256   8.648 -0.2403 -0.0094  0.0105
  332loPI   C5A 5307   5.222   4.346   8.262 -0.0785 -0.2411  0.2874
  332loPI   C6A 5308   5.286   4.120   8.016  0.2463  0.0144 -0.3653
  332loPI   C1B 5309   5.067   3.566   9.976  0.0304  0.0056 -0.1339
  332loPI   C2B 5310   5.192   3.689   9.547 -0.0687  0.2967  0.1288
  332loPI   C3B 5311   5.103   3.663   9.225  0.1524  0.0639 -0.1171
  332loPI   C4B 5312   5.170   3.753   8.790  0.0243 -0.3237  0.2184
  333loPI    C1 5313   4.440   5.437  11.115  0.4302 -0.3131 -0.1190
  333loPI    C2 5314   4.649   5.701  11.332  0.3345 -0.3360  0.0014
  333loPI    C3 5315   4.705   5.308  11.386 -0.0019 -0.3484  0.2986
  333loPI   PO4 5316   4.545   5.492  10.812 -0.2402 -0.0499  0.0876
  333loPI   GL1 5317   4.510   5.355  10.465  0.0913 -0.0990 -0.0828
  333loPI   GL2 5318   4.204   5.215  10.377  0.2470 -0.0022  0.1194
  333loPI   C1A 5319   4.791   5.358  10.100 -0.0533 -0.0282  0.2850
  333loPI   C2A 5320   4.769   5.451   9.766 -0.1867 -0.1800 -0.1005
  333loPI   C3A 5321   4.568   5.382   9.375 -0.0421  0.2768 -0.1117
  333loPI   C4A 5322   4.599   5.381   8.922 -0.1089  0.1048  0.2128
  333loPI   C5A 5323   4.586   5.548   8.498 -0.1325 -0.1855 -0.3563
  333loPI   C6A 5324   4.687   5.939   8.085 -0.0366 -0.4221 -0.0252
  333loPI   C1B 5325   4.292   5.228   9.923  0.1771  0.0670 -0.0032
  333loPI   C2B 5326   4.172   5.263   9.539 -0.1438  0.0122 -0.2104
  333loPI   C3B 5327   4.120   5.219   9.136 -0.1466 -0.0599  0.1432
  333loPI   C4B 5328   4.092   5.323   8.779  0.1608  0.3238  0.0302
  334loPI    C1 5329   4.277   2.948  11.435  0.1799 -0.1672  0.0170
  334loPI    C2 5330   4.079   2.637  11.279 -0.1033  0.0303 -0.0229
  334loPI    C3 5331   4.031   2.733  11.665  0.1486 -0.1035  0.0432
  334loPI   PO4 5332   4.243   3.118  11.196 -0.2347 -0.1887  0.0750
  334loPI   GL1 5333   4.226   3.063  10.726  0.1969  0.1869 -0.1215
  334loPI   GL2 5334   4.500   3.030  10.657 -0.0665 -0.0139 -0.0557
  334loPI   C1A 5335   4.208   3.264  10.317  0.1062  0.2964  0.0494
  334loPI   C2A 5336   4.164   3.186   9.885  0.0142  0.1980 -0.0397
  334loPI   C3A 5337   4.243   3.357   9.502  0.0443  0.1589  0.5347
  334loPI   C4A 5338   4.169   3.324   9.094 -0.1276 -0.3602 -0.1307
  334loPI   C5A 5339   4.111   3.475   8.676 -0.0240  0.0394 -0.0577
  334loPI   C6A 5340   3.877   3.385   8.322 -0.0815  0.0318  0.0394
  334loPI   C1B 5341   4.584   2.915  10.211  0.0671 -0.0632 -0.2440
  334loPI   C2B 5342   4.594   2.957   9.732  0.2404  0.1384  0.1189
  334loPI   C3B 5343   4.609   3.075   9.322  0.3821 -0.1089  0.1393
  334loPI   C4B 5344   4.541   3.045   8.919  0.1166  0.2723  0.4819
  335loPI    C1 5345   6.994   2.121  10.903  0.0833  0.0800  0.1193
  335loPI    C2 5346   6.620   2.120  11.043 -0.0424 -0.0731 -0.2068
  335loPI    C3 5347   6.747   2.422  10.814 -0.0292 -0.1173 -0.2577
  335loPI   PO4 5348   6.987   1.853  10.784  0.3023 -0.3019 -0.1587
  335loPI   GL1 5349   6.735   1.740  10.397 -0.2725  0.0989 -0.1714
  335loPI   GL2 5350   6.736   2.114  10.404 -0.1300  0.0601 -0.0914
  335loPI   C1A 5351   6.649   1.678   9.940 -0.0490  0.4279 -0.0827
  335loPI   C2A 5352   6.610   1.652   9.496 -0.4016  0.2437 -0.0744
  335loPI   C3A 5353   6.512   1.642   9.053 -0.1861  0.1958  0.0799
  335loPI   C4A 5354   6.353   1.573   8.606 -0.1620  0.2115 -0.1537
  335loPI   C5A 5355   6.317   1.841   8.206 -0.1375  0.1205  0.2565
  335loPI   C6A 5356   6.416   2.262   8.208  0.1695  0.2773  0.0177
  335loPI   C1B 5357   6.750   2.157   9.935  0.3617  0.0266 -0.2742
  335loPI   C2B 5358   6.689   2.195   9.482 -0.0606  0.1190  0.1499
  335loPI   C3B 5359   6.742   2.272   9.113 -0.0526  0.4985  0.3105
  335loPI   C4B 5360   6.659   2.118   8.688 -0.1101 -0.4108  0.0122
  336loPI    C1 5361  12.816   3.033  10.356 -0.1219 -0.1289 -0.0655
  336loPI    C2 5362  12.997   2.884  10.681  0.1759 -0.1231 -0.2250
  336loPI    C3 5363  12.867   3.263  10.679  0.1898 -0.1176 -0.1195
  336loPI   PO4 5364  12.651   2.926  10.316  0.1687  0.0804 -0.1577
  336loPI   GL1 5365  12.550   2.685  10.031  0.1746 -0.3005  0.0609
  336loPI   GL2 5366  12.380   2.674   9.770 -0.3836 -0.2538 -0.1621
  336loPI   C1A 5367  12.847   2.714   9.639 -0.1718  0.0151  0.0395
  336loPI   C2A 5368  12.822   2.760   9.123 -0.3079  0.0021  0.0868
  336loPI   C3A 5369  12.903   2.864   8.731  0.0670 -0.1382  0.0301
  336loPI   C4A 5370  13.025   2.841   8.326 -0.0865  0.3732 -0.2551
  336loPI   C5A 5371  13.096   3.171   7.959  0.0744 -0.2175  0.0385
  336loPI   C6A 5372  13.351   3.562   7.984 -0.2590 -0.0626  0.2181
  336loPI   C1B 5373  12.443   2.552   9.364 -0.0042  0.2558  0.0553
  336loPI   C2B 5374  12.371   2.636   8.922  0.1695  0.1910 -0.0892
  336loPI   C3B 5375  12.373   2.768   8.552 -0.0676  0.2578 -0.0487
  336loPI   C4B 5376  12.208   2.629   8.168  0.1334 -0.0015 -0.0534
  337loPI    C1 5377  12.503   3.901  10.337 -0.1045  0.0757  0.0391
  337loPI    C2 5378  12.727   3.571  10.317 -0.0531  0.1125  0.0045
  337loPI    C3 5379  12.634   3.727  10.673 -0.0300  0.0929  0.0192
  337loPI   PO4 5380  12.611   4.022  10.085  0.2267 -0.2237  0.1180
  337loPI   GL1 5381  12.369   4.102   9.638 -0.2395 -0.3681 -0.1851
  337loPI   GL2 5382  12.717   4.157   9.592 -0.0023  0.2488  0.3738
  337loPI   C1A 5383  12.254   4.054   9.160 -0.2428  0.0151 -0.2947
  337loPI   C2A 5384  12.134   3.969   8.733 -0.1438  0.0319  0.1910
  337loPI   C3A 5385  12.096   3.981   8.321 -0.0209  0.2445  0.0754
  337loPI   C4A 5386  12.178   3.712   7.964 -0.0190 -0.1455 -0.0055
  337loPI   C5A 5387  12.482   3.456   7.774 -0.2814  0.2247  0.2739
  337loPI   C6A 5388  12.387   3.108   7.458 -0.0233 -0.0573  0.1468
  337loPI   C1B 5389  12.772   4.426   9.142  0.2344  0.0723 -0.3054
  337loPI   C2B 5390  12.713   4.300   8.753 -0.1440  0.0416 -0.0642
  337loPI   C3B 5391  12.578   4.161   8.405  0.1507  0.1303 -0.0028
  337loPI   C4B 5392  12.586   4.131   8.000  0.3058  0.2936  0.0231
  338loPI    C1 5393   5.904  13.449  10.977 -0.0071 -0.0206  0.0927
  338loPI    C2 5394   5.981  13.072  10.869  0.2025  0.0253  0.0771
  338loPI    C3 5395   5.858  13.152  11.241 -0.0239 -0.0775  0.0263
  338loPI   PO4 5396   5.998  13.584  10.759 -0.0034  0.1610  0.2969
  338loPI   GL1 5397   6.007  13.439  10.397  0.0112 -0.0470 -0.0044
  338loPI   GL2 5398   5.589  13.353  10.456  0.0519 -0.4238  0.0383
  338loPI   C1A 5399   5.968  13.565   9.987  0.0667  0.2313  0.0384
  338loPI   C2A 5400   6.092  13.532   9.590  0.1825 -0.1304 -0.1298
  338loPI   C3A 5401   6.015  13.578   9.138 -0.6098 -0.1776  0.3528
  338loPI   C4A 5402   6.167  13.669   8.685 -0.3090  0.2408  0.0205
  338loPI   C5A 5403   6.488  13.439   8.357  0.1619  0.0696  0.0797
  338loPI   C6A 5404   6.836  13.362   8.155 -0.1195  0.2834 -0.1166
  338loPI   C1B 5405   5.430  13.283  10.071  0.0344 -0.1601 -0.0682
  338loPI   C2B 5406   5.543  13.493   9.656  0.2427  0.2668 -0.0359
  338loPI   C3B 5407   5.519  13.409   9.144 -0.0016 -0.0413 -0.1511
  338loPI   C4B 5408   5.567  13.616   8.743  0.0702  0.1755 -0.0533
  339loPI    C1 5409   9.882  16.512  10.865 -0.0684 -0.0284 -0.0467
  339loPI    C2 5410   9.954  16.896  10.778  0.1497 -0.0483  0.0397
  339loPI    C3 5411   9.708  16.802  11.079 -0.0848  0.0216 -0.1271
  339loPI   PO4 5412   9.758  16.470  10.655 -0.3116  0.1148 -0.0391
  339loPI   GL1 5413   9.937  16.277  10.246  0.1196 -0.2377 -0.2113
  339loPI   GL2 5414  10.174  16.188  10.263  0.1194 -0.0001  0.0896
  339loPI   C1A 5415   9.892  16.161   9.778 -0.2435  0.1096  0.1904
  339loPI   C2A 5416   9.924  16.201   9.344  0.0372  0.4192 -0.1605
  339loPI   C3A 5417   9.918  16.218   8.933 -0.4458 -0.0214  0.0188
  339loPI   C4A 5418   9.794  16.206   8.501 -0.0085  0.2472  0.2316
  339loPI   C5A 5419   9.741  16.435   8.211 -0.2160 -0.0330 -0.1465
  339loPI   C6A 5420   9.565  16.736   8.056  0.1213  0.1463 -0.0490
  339loPI   C1B 5421  10.377  16.287   9.864 -0.0090 -0.0914  0.1247
  339loPI   C2B 5422  10.414  16.349   9.461  0.0008  0.1031  0.0261
  339loPI   C3B 5423  10.445  16.384   9.034  0.1883  0.0215 -0.0384
  339loPI   C4B 5424  10.267  16.353   8.643  0.0241 -0.3155  0.0148
  340loPI    C1 5425  15.683  12.439  10.784  0.1337  0.3036  0.1189
  340loPI    C2 5426  15.779  12.175  11.069  0.4454  0.5048  0.2040
  340loPI    C3 5427  15.479  12.433  11.128  0.0403  0.0803  0.0619
  340loPI   PO4 5428  15.562  12.282  10.490 -0.2061 -0.1248  0.1534
  340loPI   GL1 5429  15.675  11.959  10.203 -0.2457 -0.1324  0.0122
  340loPI   GL2 5430  15.419  11.695  10.051 -0.1855 -0.1422  0.2934
  340loPI   C1A 5431  15.927  11.822   9.851 -0.0084 -0.2074  0.1220
  340loPI   C2A 5432  15.897  11.913   9.439  0.0485 -0.1415  0.4420
  340loPI   C3A 5433  15.959  11.954   9.057  0.1789 -0.2922  0.2801
  340loPI   C4A 5434  15.955  11.971   8.625 -0.0841 -0.1620 -0.1544
  340loPI   C5A 5435  15.968  11.930   8.248 -0.1758  0.0454  0.2611
  340loPI   C6A 5436  16.173  12.077   7.914  0.1663 -0.0545  0.0818
  340loPI   C1B 5437  15.495  11.748   9.612  0.2774  0.2384 -0.1275
  340loPI   C2B 5438  15.393  11.653   9.249 -0.0211 -0.1726  0.0065
  340loPI   C3B 5439  15.454  11.764   8.836  0.2104 -0.1490  0.1019
  340loPI   C4B 5440  15.514  11.823   8.355  0.0425 -0.2220  0.0438
  341loPI    C1 5441   2.663   5.467  11.410 -0.1902 -0.0395  0.1582
  341loPI    C2 5442   2.852   5.114  11.412  0.0490  0.0834 -0.0529
  341loPI    C3 5443   2.680   5.251  11.747  0.1170 -0.1456  0.0785
  341loPI   PO4 5444   2.604   5.471  11.152  0.1250  0.0519 -0.1270
  341loPI   GL1 5445   2.725   5.540  10.771  0.0914  0.2857  0.0426
  341loPI   GL2 5446   2.886   5.235  10.529 -0.1485 -0.3705  0.1028
  341loPI   C1A 5447   2.864   5.747  10.452 -0.0885 -0.1164 -0.0410
  341loPI   C2A 5448   3.039   5.820  10.061  0.1891  0.2836  0.1844
  341loPI   C3A 5449   2.862   5.873   9.709 -0.0443  0.1065  0.0189
  341loPI   C4A 5450   2.948   5.847   9.290 -0.0769  0.3451  0.1975
  341loPI   C5A 5451   2.901   5.934   8.875  0.0770  0.2319  0.0342
  341loPI   C6A 5452   2.792   5.761   8.477  0.2909  0.1073 -0.1624
  341loPI   C1B 5453   2.861   5.345  10.067  0.2605  0.2317  0.1694
  341loPI   C2B 5454   2.786   5.327   9.620 -0.2615  0.1570  0.0669
  341loPI   C3B 5455   2.723   5.345   9.109 -0.0981 -0.3009  0.1932
  341loPI   C4B 5456   2.696   5.498   8.869  0.1022  0.1316  0.0147
  342loPI    C1 5457  11.460   1.766  10.631  0.1776 -0.1944  0.0909
  342loPI    C2 5458  11.260   1.682  10.967 -0.4384  0.4997 -0.0751
  342loPI    C3 5459  11.449   2.032  10.930  0.3823  0.0747 -0.1362
  342loPI   PO4 5460  11.254   1.653  10.360 -0.0693  0.0462  0.3207
  342loPI   GL1 5461  11.337   1.707   9.955 -0.2315 -0.0113  0.0011
  342loPI   GL2 5462  11.067   2.028  10.045 -0.0886 -0.1742 -0.1546
  342loPI   C1A 5463  11.286   1.849   9.585 -0.1522 -0.2521 -0.1884
  342loPI   C2A 5464  11.345   1.732   9.160  0.0433 -0.1335  0.3655
  342loPI   C3A 5465  11.298   1.852   8.774 -0.0507  0.2011 -0.0877
  342loPI   C4A 5466  11.096   1.664   8.502 -0.2003 -0.2548  0.1203
  342loPI   C5A 5467  11.066   1.665   8.108  0.2031  0.1508  0.1432
  342loPI   C6A 5468  11.091   1.872   7.724 -0.0995  0.2370  0.4169
  342loPI   C1B 5469  10.935   2.218   9.779 -0.1172 -0.0889  0.0297
  342loPI   C2B 5470  11.004   2.149   9.361 -0.0195 -0.0477  0.1854
  342loPI   C3B 5471  10.801   2.116   9.004  0.4138 -0.1075  0.1751
  342loPI   C4B 5472  10.662   2.057   8.595  0.0219 -0.3228 -0.0631
  343loPI    C1 5473  15.676   4.306  10.497  0.0199 -0.1315  0.1156
  343loPI    C2 5474  15.715   4.023  10.217  0.1137 -0.0761  0.0721
  343loPI    C3 5475  15.474   3.962  10.531  0.0882 -0.1802  0.0328
  343loPI   PO4 5476  15.587   4.500  10.383  0.0132 -0.3364  0.1882
  343loPI   GL1 5477  15.477   4.848  10.198 -0.1832 -0.0355 -0.2827
  343loPI   GL2 5478  15.317   5.038  10.020  0.0971  0.2077  0.0572
  343loPI   C1A 5479  15.594   4.655   9.739  0.0981  0.0057 -0.0685
  343loPI   C2A 5480  15.682   4.737   9.197  0.4203 -0.1179 -0.0556
  343loPI   C3A 5481  15.673   4.700   8.738 -0.0924 -0.2465 -0.0618
  343loPI   C4A 5482  15.539   4.719   8.394 -0.2933  0.0835  0.2933
  343loPI   C5A 5483  15.408   4.611   8.006 -0.0181  0.0031 -0.3566
  343loPI   C6A 5484  15.403   5.002   7.673 -0.1184 -0.1628 -0.0501
  343loPI   C1B 5485  15.333   5.030   9.508 -0.1575 -0.3302 -0.4213
  343loPI   C2B 5486  15.235   5.125   9.069 -0.2487  0.1951  0.1154
  343loPI   C3B 5487  15.220   5.029   8.657  0.3301  0.1348 -0.1764
  343loPI   C4B 5488  15.196   5.047   8.178 -0.0430  0.0559  0.1266
  344loPI    C1 5489  18.097   8.732  11.130 -0.1870 -0.3171  0.1037
  344loPI    C2 5490  18.234   8.914  11.459 -0.1294 -0.1111 -0.0322
  344loPI    C3 5491  18.098   8.539  11.480 -0.1086 -0.1062  0.2221
  344loPI   PO4 5492  18.200   8.752  10.960 -0.0730  0.0726  0.1931
  344loPI   GL1 5493  17.955   8.848  10.521 -0.0597 -0.1732  0.2505
  344loPI   GL2 5494  18.224   8.869  10.286 -0.0146  0.0235 -0.2166
  344loPI   C1A 5495  17.711   8.912  10.153 -0.2150 -0.0920  0.0578
  344loPI   C2A 5496  17.772   9.031   9.710  0.0706 -0.0351 -0.0161
  344loPI   C3A 5497  17.714   9.126   9.200 -0.0189 -0.0375  0.0817
  344loPI   C4A 5498  17.749   9.330   8.694 -0.0016 -0.1489  0.2659
  344loPI   C5A 5499  18.215   9.412   8.395  0.0053  0.0058  0.1204
  344loPI   C6A 5500  18.501   9.415   7.890 -0.1598  0.0452 -0.0186
  344loPI   C1B 5501  18.153   9.104   9.977  0.3091  0.0550  0.2139
  344loPI   C2B 5502  18.198   9.237   9.538 -0.0166 -0.5352  0.0233
  344loPI   C3B 5503  18.207   9.236   9.207  0.1685  0.0208 -0.0341
  344loPI   C4B 5504  18.278   9.454   8.891 -0.1952 -0.1344  0.0604
  345loPI    C1 5505   5.507   8.756  10.835  0.1317  0.2690  0.0307
  345loPI    C2 5506   5.232   8.990  11.006 -0.0502  0.0603  0.0285
  345loPI    C3 5507   5.268   8.608  11.119 -0.0634 -0.0360 -0.2832
  345loPI   PO4 5508   5.461   8.746  10.534  0.2681  0.1599  0.0647
  345loPI   GL1 5509   5.594   8.825  10.141  0.1012  0.0324 -0.3727
  345loPI   GL2 5510   5.280   8.652  10.024  0.1919 -0.0267 -0.0743
  345loPI   C1A 5511   5.479   9.148   9.747  0.0338 -0.0812  0.4261
  345loPI   C2A 5512   5.400   9.082   9.343  0.2210  0.1134  0.0720
  345loPI   C3A 5513   5.376   9.086   8.896 -0.1289  0.0580  0.0801
  345loPI   C4A 5514   5.510   9.107   8.499  0.0269  0.2668 -0.1466
  345loPI   C5A 5515   5.579   9.081   8.066  0.2343  0.2349  0.2544
  345loPI   C6A 5516   5.373   8.929   7.658  0.2941  0.0133  0.0888
  345loPI   C1B 5517   5.378   8.638   9.583  0.2742 -0.2681  0.0018
  345loPI   C2B 5518   5.354   8.571   9.152 -0.0408 -0.2844 -0.1875
  345loPI   C3B 5519   5.478   8.664   8.711  0.3657 -0.1232  0.3781
  345loPI   C4B 5520   5.436   8.685   8.292  0.0786  0.0090  0.0601
  346loPI    C1 5521   2.646   3.790  11.171 -0.1286  0.1587 -0.0271
  346loPI    C2 5522   2.795   3.919  11.519  0.2013 -0.0453 -0.0887
  346loPI    C3 5523   2.416   3.792  11.498  0.0422  0.3817  0.0940
  346loPI   PO4 5524   2.673   3.955  10.996 -0.0928  0.0542  0.0264
  346loPI   GL1 5525   2.943   3.961  10.622 -0.0806 -0.1864 -0.3781
  346loPI   GL2 5526   3.088   4.287  10.680  0.1478  0.0538  0.1249
  346loPI   C1A 5527   2.901   3.877  10.216 -0.2360 -0.1569 -0.0064
  346loPI   C2A 5528   2.900   3.913   9.732  0.0862  0.1438 -0.0914
  346loPI   C3A 5529   2.935   4.103   9.306  0.2601  0.1656 -0.0294
  346loPI   C4A 5530   2.882   3.964   8.843 -0.0694 -0.2047  0.3571
  346loPI   C5A 5531   2.864   3.918   8.402  0.5077  0.2418  0.0100
  346loPI   C6A 5532   2.728   3.721   7.976 -0.1230  0.1533 -0.1083
  346loPI   C1B 5533   3.087   4.321  10.251  0.1062 -0.0406  0.0191
  346loPI   C2B 5534   3.031   4.512   9.790  0.0037  0.1497 -0.3423
  346loPI   C3B 5535   3.075   4.580   9.410 -0.3023 -0.1898  0.0315
  346loPI   C4B 5536   3.026   4.528   8.940 -0.0864  0.0369  0.0781
  347loPI    C1 5537  16.658   2.844  10.815 -0.0167 -0.1455 -0.0416
  347loPI    C2 5538  16.659   2.522  11.054 -0.0420 -0.1493 -0.0466
  347loPI    C3 5539  16.320   2.726  10.993 -0.0146 -0.0894 -0.0002
  347loPI   PO4 5540  16.857   2.996  10.846 -0.1015  0.3644  0.0176
  347loPI   GL1 5541  17.176   2.999  10.541  0.1019  0.0044  0.1067
  347loPI   GL2 5542  17.393   2.702  10.430  0.2280  0.2915  0.0205
  347loPI   C1A 5543  17.035   3.115  10.084  0.1460 -0.1355 -0.1119
  347loPI   C2A 5544  17.263   3.164   9.717  0.1635  0.3228 -0.0107
  347loPI   C3A 5545  17.312   3.113   9.335  0.1869 -0.0078  0.0591
  347loPI   C4A 5546  17.275   3.124   8.893  0.2485 -0.0792 -0.0773
  347loPI   C5A 5547  17.361   3.132   8.392 -0.1868 -0.3203 -0.0819
  347loPI   C6A 5548  17.721   3.143   8.124  0.0221 -0.2450  0.3755
  347loPI   C1B 5549  17.500   2.813  10.024  0.0532  0.0455  0.1020
  347loPI   C2B 5550  17.664   2.840   9.636 -0.1075  0.1402 -0.1370
  347loPI   C3B 5551  17.653   2.798   9.168 -0.1250  0.0305  0.0797
  347loPI   C4B 5552  17.634   2.787   8.783  0.0931 -0.1324  0.1615
  348loPI    C1 5553  16.927   5.482  10.750  0.1232 -0.2676 -0.0032
  348loPI    C2 5554  17.053   5.276  11.069 -0.0031 -0.1192  0.1446
  348loPI    C3 5555  16.727   5.507  11.096 -0.0373 -0.1353 -0.1037
  348loPI   PO4 5556  17.134   5.618  10.626  0.0762  0.0634 -0.2208
  348loPI   GL1 5557  17.241   5.706  10.253  0.1068  0.0582  0.2403
  348loPI   GL2 5558  16.967   6.008  10.310 -0.4944  0.0768  0.2865
  348loPI   C1A 5559  17.225   5.664   9.744  0.1360  0.4420  0.1631
  348loPI   C2A 5560  17.214   5.617   9.352  0.1331 -0.0296 -0.0493
  348loPI   C3A 5561  17.258   5.706   8.942  0.4238 -0.1595  0.0337
  348loPI   C4A 5562  17.406   5.576   8.506  0.0763 -0.1169 -0.0088
  348loPI   C5A 5563  17.653   5.450   8.155  0.5159 -0.0862 -0.1615
  348loPI   C6A 5564  18.050   5.297   8.292  0.1224 -0.3991 -0.1365
  348loPI   C1B 5565  16.810   5.863   9.897 -0.2484  0.1162  0.2493
  348loPI   C2B 5566  16.903   6.023   9.486 -0.0520  0.0267  0.0451
  348loPI   C3B 5567  16.882   5.964   9.113 -0.0243 -0.1421 -0.0824
  348loPI   C4B 5568  17.038   6.142   8.725  0.3635 -0.1294 -0.0268
  349loPI    C1 5569   5.788   3.955  10.814 -0.0374 -0.2413 -0.0178
  349loPI    C2 5570   5.821   3.628  11.041  0.2598 -0.2437 -0.0601
  349loPI    C3 5571   5.988   3.972  11.160 -0.1837 -0.0632  0.0596
  349loPI   PO4 5572   5.845   3.951  10.600 -0.0636  0.0895 -0.3092
  349loPI   GL1 5573   5.828   3.914  10.177  0.1118 -0.2910  0.1956
  349loPI   GL2 5574   5.756   3.636  10.143  0.2796 -0.6610  0.0112
  349loPI   C1A 5575   5.889   4.206   9.810 -0.1222 -0.1893  0.0941
  349loPI   C2A 5576   5.832   4.304   9.451 -0.2646  0.0131  0.1314
  349loPI   C3A 5577   5.780   4.316   8.960 -0.3807 -0.1776 -0.0106
  349loPI   C4A 5578   5.703   4.375   8.524 -0.3110 -0.0556  0.3587
  349loPI   C5A 5579   6.058   4.382   8.213 -0.1375 -0.0622  0.0507
  349loPI   C6A 5580   6.464   4.291   8.080  0.0712  0.1043 -0.1578
  349loPI   C1B 5581   5.731   3.706   9.743  0.0740  0.1460 -0.2243
  349loPI   C2B 5582   5.725   3.801   9.422  0.3816  0.0275 -0.0559
  349loPI   C3B 5583   5.705   3.827   8.882  0.0007  0.1544  0.2741
  349loPI   C4B 5584   5.529   3.904   8.449  0.0051 -0.1407  0.2106
  350loPI    C1 5585  11.839   5.300  10.323 -0.3714  0.1400  0.1770
  350loPI    C2 5586  12.014   5.046  10.577  0.1025  0.1242 -0.1526
  350loPI    C3 5587  12.032   5.440  10.644 -0.0481  0.1063  0.0008
  350loPI   PO4 5588  11.857   5.192  10.112  0.0230 -0.0981  0.0796
  350loPI   GL1 5589  12.017   5.293   9.740  0.2681  0.1991 -0.0560
  350loPI   GL2 5590  12.028   5.581   9.538 -0.0304  0.0364 -0.0245
  350loPI   C1A 5591  12.145   5.158   9.308 -0.1112 -0.2703 -0.0902
  350loPI   C2A 5592  12.267   5.055   8.954  0.0648 -0.0747  0.2188
  350loPI   C3A 5593  12.382   5.063   8.519  0.3205 -0.0558  0.0487
  350loPI   C4A 5594  12.431   5.031   8.017  0.3976  0.0683 -0.1187
  350loPI   C5A 5595  12.625   5.419   7.756  0.2359  0.1619  0.1518
  350loPI   C6A 5596  13.099   5.505   7.605  0.0527 -0.0951  0.2449
  350loPI   C1B 5597  11.993   5.578   9.091  0.2434  0.2448 -0.2123
  350loPI   C2B 5598  12.053   5.444   8.691 -0.1658  0.0959  0.0860
  350loPI   C3B 5599  12.031   5.402   8.323  0.0771 -0.1447  0.0965
  350loPI   C4B 5600  12.065   5.392   7.874 -0.3083  0.0467  0.3565
  351loPI    C1 5601   2.386  17.013  11.276  0.0095 -0.3017  0.1497
  351loPI    C2 5602   2.129  16.920  11.568 -0.0271 -0.0884  0.1869
  351loPI    C3 5603   2.454  17.138  11.649  0.0024 -0.0932  0.0823
  351loPI   PO4 5604   2.221  17.173  11.035  0.0707 -0.0459  0.1412
  351loPI   GL1 5605   2.232  16.986  10.641 -0.0059  0.0868 -0.1882
  351loPI   GL2 5606   2.401  16.749  10.778  0.1933 -0.1111  0.0954
  351loPI   C1A 5607   2.257  17.138  10.205 -0.2168  0.0594  0.0006
  351loPI   C2A 5608   2.241  17.125   9.802  0.0979  0.0984 -0.1312
  351loPI   C3A 5609   2.244  17.148   9.356  0.1868 -0.0074 -0.1587
  351loPI   C4A 5610   2.130  17.141   9.040 -0.1288 -0.0447  0.1764
  351loPI   C5A 5611   2.154  17.056   8.604  0.0196 -0.1221 -0.0168
  351loPI   C6A 5612   1.813  17.157   8.262  0.2703 -0.0021  0.2609
  351loPI   C1B 5613   2.617  16.734  10.402 -0.1139 -0.1073  0.1568
  351loPI   C2B 5614   2.638  16.686  10.001  0.1250  0.0231  0.1602
  351loPI   C3B 5615   2.624  16.850   9.624  0.0128  0.1234  0.1141
  351loPI   C4B 5616   2.568  16.773   9.140  0.0913 -0.1120 -0.3646
  352loPI    C1 5617  13.533   2.406  10.563  0.1247 -0.1764  0.1599
  352loPI    C2 5618  13.802   2.599  10.788  0.0310  0.3134 -0.1333
  352loPI    C3 5619  13.411   2.635  10.867  0.0237  0.0034 -0.0136
  352loPI   PO4 5620  13.573   2.478  10.361 -0.1692 -0.2446 -0.3244
  352loPI   GL1 5621  13.631   2.593   9.966 -0.0804 -0.0835 -0.0278
  352loPI   GL2 5622  13.674   2.948   9.971 -0.1756  0.3882 -0.1226
  352loPI   C1A 5623  13.681   2.514   9.567  0.0333 -0.2245  0.0414
  352loPI   C2A 5624  13.856   2.484   9.128  0.0378 -0.5685 -0.2782
  352loPI   C3A 5625  13.799   2.622   8.704  0.0489  0.1309  0.1496
  352loPI   C4A 5626  13.638   2.650   8.297 -0.1313  0.3303  0.1140
  352loPI   C5A 5627  13.642   2.469   7.843 -0.1361 -0.0025 -0.4766
  352loPI   C6A 5628  13.552   2.095   7.601  0.1948  0.4458  0.0494
  352loPI   C1B 5629  13.971   2.972   9.658 -0.3437  0.2713 -0.1752
  352loPI   C2B 5630  13.938   2.929   9.303  0.1034 -0.3771  0.1057
  352loPI   C3B 5631  13.974   3.030   8.823  0.0189  0.0149 -0.0750
  352loPI   C4B 5632  13.986   3.114   8.416 -0.0756  0.0320 -0.2352
  353loPI    C1 5633  13.985  15.342  10.911 -0.2282 -0.0591 -0.1284
  353loPI    C2 5634  14.248  15.638  10.967  0.0432 -0.3155 -0.0198
  353loPI    C3 5635  13.934  15.601  11.211  0.0313 -0.1437 -0.0082
  353loPI   PO4 5636  13.991  15.400  10.566  0.1320  0.2115 -0.1370
  353loPI   GL1 5637  14.171  15.256  10.177 -0.3183  0.0873 -0.2322
  353loPI   GL2 5638  13.894  15.023  10.124  0.0167 -0.0509  0.0286
  353loPI   C1A 5639  14.061  15.547   9.760  0.0916  0.0016  0.3221
  353loPI   C2A 5640  13.991  15.664   9.332 -0.0626 -0.0012 -0.2075
  353loPI   C3A 5641  14.057  15.653   8.955  0.2562  0.1214 -0.0809
  353loPI   C4A 5642  13.911  15.549   8.659 -0.0837  0.1182 -0.2160
  353loPI   C5A 5643  14.129  15.514   8.199  0.1216  0.1845 -0.4509
  353loPI   C6A 5644  14.149  15.243   7.950  0.0620  0.0555  0.2392
  353loPI   C1B 5645  13.940  14.980   9.704 -0.2098  0.2313 -0.0744
  353loPI   C2B 5646  13.936  15.213   9.324  0.0608  0.4188 -0.1926
  353loPI   C3B 5647  13.813  15.074   8.881 -0.0140 -0.2243 -0.2294
  353loPI   C4B 5648  13.851  15.035   8.464 -0.3068  0.1193  0.2882
  354loPI    C1 5649  16.208   2.233  10.878  0.1616 -0.1963  0.2086
  354loPI    C2 5650  15.819   2.271  10.792  0.2105 -0.3915 -0.1175
  354loPI    C3 5651  15.961   2.403  11.142 -0.1918 -0.5368  0.1074
  354loPI   PO4 5652  16.384   2.331  10.668 -0.0989  0.2744  0.0214
  354loPI   GL1 5653  16.557   2.267  10.291 -0.3410  0.1300  0.2375
  354loPI   GL2 5654  16.563   1.964  10.143 -0.2456 -0.0513  0.1022
  354loPI   C1A 5655  16.503   2.474   9.918 -0.1829 -0.1604 -0.2019
  354loPI   C2A 5656  16.677   2.479   9.510  0.0950 -0.1840  0.2685
  354loPI   C3A 5657  16.597   2.405   9.067 -0.0984 -0.1467  0.0702
  354loPI   C4A 5658  16.693   2.451   8.630  0.4958 -0.0247  0.1096
  354loPI   C5A 5659  16.541   2.337   8.210  0.0429  0.1168  0.2303
  354loPI   C6A 5660  16.708   2.089   7.946  0.1764  0.0767 -0.0188
  354loPI   C1B 5661  16.596   1.997   9.745 -0.0809 -0.2179  0.4229
  354loPI   C2B 5662  16.459   2.035   9.294  0.0913  0.1954 -0.0167
  354loPI   C3B 5663  16.453   1.907   8.887  0.0821  0.0069  0.0936
  354loPI   C4B 5664  16.415   1.812   8.440 -0.0191  0.1103 -0.0356
  355loPI    C1 5665  10.024  15.402  11.139 -0.0935 -0.1105  0.1043
  355loPI    C2 5666   9.637  15.310  11.172 -0.1831  0.1276 -0.2287
  355loPI    C3 5667   9.813  15.537  11.451 -0.2504 -0.0798 -0.0138
  355loPI   PO4 5668  10.048  15.472  10.915 -0.1276 -0.0126  0.2216
  355loPI   GL1 5669  10.152  15.338  10.536  0.0005  0.1525  0.0818
  355loPI   GL2 5670  10.108  15.024  10.524 -0.1172  0.0473 -0.1651
  355loPI   C1A 5671  10.168  15.245  10.057 -0.1199 -0.1931 -0.2573
  355loPI   C2A 5672  10.233  15.353   9.673 -0.3015 -0.2115  0.1674
  355loPI   C3A 5673  10.138  15.428   9.259 -0.0323  0.1089  0.0695
  355loPI   C4A 5674  10.193  15.285   8.782 -0.1139  0.0786  0.1233
  355loPI   C5A 5675  10.135  15.455   8.312  0.1307  0.3042 -0.4784
  355loPI   C6A 5676   9.835  15.410   7.946  0.0383 -0.2555 -0.4536
  355loPI   C1B 5677  10.193  14.772  10.108 -0.0557 -0.1277  0.0545
  355loPI   C2B 5678  10.120  14.815   9.729  0.0961 -0.2608 -0.0854
  355loPI   C3B 5679  10.067  14.887   9.292  0.0959 -0.0754 -0.1812
  355loPI   C4B 5680  10.130  14.804   8.758 -0.0052  0.1415 -0.1368
  356loPI    C1 5681   9.261  17.427  10.824 -0.1002  0.0391 -0.0720
  356loPI    C2 5682   9.264  17.095  11.048 -0.1441 -0.0240 -0.1644
  356loPI    C3 5683   9.026  17.401  11.147  0.2424  0.1712  0.1945
  356loPI   PO4 5684   9.242  17.363  10.543  0.2469  0.0862 -0.0575
  356loPI   GL1 5685   9.474  17.412  10.174  0.2334  0.2239 -0.1989
  356loPI   GL2 5686   9.774  17.600  10.194  0.1880 -0.1902  0.1284
  356loPI   C1A 5687   9.259  17.411   9.705 -0.1357 -0.0141  0.1553
  356loPI   C2A 5688   9.250  17.458   9.273 -0.2069 -0.1770  0.1867
  356loPI   C3A 5689   9.261  17.410   8.927  0.3842 -0.1214  0.0552
  356loPI   C4A 5690   9.157  17.364   8.419  0.0861 -0.1240  0.1605
  356loPI   C5A 5691   9.212  16.996   8.239  0.0211 -0.1732 -0.0005
  356loPI   C6A 5692   9.025  16.566   8.269  0.0479  0.1317 -0.1844
  356loPI   C1B 5693   9.805  17.516   9.760  0.1066  0.0296 -0.2454
  356loPI   C2B 5694   9.741  17.613   9.263 -0.1032  0.1256  0.0485
  356loPI   C3B 5695   9.679  17.553   8.861  0.0315  0.0012  0.2523
  356loPI   C4B 5696   9.650  17.573   8.435  0.0014  0.1584 -0.1086
  357loPI    C1 5697  13.651   6.607  10.441 -0.1462 -0.2296 -0.0760
  357loPI    C2 5698  13.323   6.628  10.669 -0.0612  0.0705  0.0241
  357loPI    C3 5699  13.641   6.421  10.795 -0.0446  0.1663  0.1420
  357loPI   PO4 5700  13.615   6.593  10.159 -0.0697 -0.1237  0.0341
  357loPI   GL1 5701  13.957   6.586   9.966  0.2945 -0.1054 -0.1600
  357loPI   GL2 5702  14.323   6.617   9.868  0.4109  0.1529  0.3694
  357loPI   C1A 5703  13.811   6.408   9.555 -0.2828  0.0320 -0.2740
  357loPI   C2A 5704  13.888   6.482   9.150 -0.1301  0.0743  0.0676
  357loPI   C3A 5705  13.845   6.419   8.666 -0.1223  0.2411 -0.0953
  357loPI   C4A 5706  13.768   6.412   8.241  0.2384  0.0373  0.0558
  357loPI   C5A 5707  13.962   6.557   7.808  0.1097  0.3352  0.0491
  357loPI   C6A 5708  14.008   6.694   7.339  0.1412  0.0481  0.1328
  357loPI   C1B 5709  14.307   6.600   9.418  0.0310 -0.0461  0.1317
  357loPI   C2B 5710  14.328   6.640   9.014  0.0518 -0.2236  0.1596
  357loPI   C3B 5711  14.338   6.685   8.578 -0.0966 -0.1489 -0.2582
  357loPI   C4B 5712  14.332   6.693   8.229  0.0665 -0.0724 -0.0233
  358loPI    C1 5713  12.730  10.266  10.722  0.1136  0.4088 -0.0018
  358loPI    C2 5714  12.982  10.453  10.970  0.0999  0.2471  0.1363
  358loPI    C3 5715  12.633  10.314  11.107  0.1729 -0.0060  0.0696
  358loPI   PO4 5716  12.846  10.374  10.445  0.0714 -0.0156  0.1883
  358loPI   GL1 5717  12.820  10.285  10.081  0.1016  0.1365 -0.1122
  358loPI   GL2 5718  12.794  10.471   9.828  0.1042  0.0058  0.0011
  358loPI   C1A 5719  13.137  10.102   9.769  0.0920  0.0183  0.2830
  358loPI   C2A 5720  13.190  10.100   9.285  0.0334  0.1957 -0.0847
  358loPI   C3A 5721  13.361   9.940   8.883 -0.3155 -0.1011 -0.2983
  358loPI   C4A 5722  13.280  10.063   8.525  0.5653  0.1456 -0.3176
  358loPI   C5A 5723  13.060  10.332   8.188  0.0640 -0.2154 -0.1115
  358loPI   C6A 5724  13.188  10.059   7.882  0.2854  0.0052 -0.0366
  358loPI   C1B 5725  12.888  10.460   9.484  0.0260  0.2229  0.0325
  358loPI   C2B 5726  12.925  10.437   8.984 -0.0728  0.1238  0.2224
  358loPI   C3B 5727  12.879  10.458   8.620 -0.2495 -0.1361 -0.0059
  358loPI   C4B 5728  13.069  10.954   8.293  0.0425  0.0743 -0.1932
  359loPI    C1 5729   7.528  16.136  10.982 -0.2005 -0.4524  0.1061
  359loPI    C2 5730   7.734  16.075  11.320  0.1800 -0.0993 -0.0535
  359loPI    C3 5731   7.883  16.312  11.035 -0.3385 -0.0395 -0.2862
  359loPI   PO4 5732   7.455  15.912  10.894 -0.5117  0.2010  0.1138
  359loPI   GL1 5733   7.248  15.788  10.464 -0.2263  0.0559  0.0897
  359loPI   GL2 5734   7.535  15.884  10.411 -0.2513 -0.2684  0.0638
  359loPI   C1A 5735   7.107  15.732  10.131 -0.0122  0.0503  0.0605
  359loPI   C2A 5736   7.045  15.820   9.712 -0.0788 -0.1508 -0.1128
  359loPI   C3A 5737   7.031  15.851   9.308  0.1755  0.0147 -0.1485
  359loPI   C4A 5738   6.935  15.791   8.942 -0.1558 -0.2051  0.1578
  359loPI   C5A 5739   6.893  15.834   8.533  0.2631  0.1516  0.0644
  359loPI   C6A 5740   6.764  15.874   8.092 -0.1097  0.0093 -0.1991
  359loPI   C1B 5741   7.549  15.925   9.987  0.3242  0.2686 -0.0892
  359loPI   C2B 5742   7.571  15.927   9.469  0.0269  0.1145  0.0279
  359loPI   C3B 5743   7.461  15.970   9.042  0.0120  0.0689 -0.2353
  359loPI   C4B 5744   7.412  15.915   8.659 -0.2810  0.0901  0.0372
  360loPI    C1 5745  17.079   8.581  10.678 -0.1687  0.0500 -0.2618
  360loPI    C2 5746  16.825   8.453  10.960 -0.0748  0.1710 -0.1206
  360loPI    C3 5747  17.203   8.540  11.056 -0.0113  0.1070 -0.3068
  360loPI   PO4 5748  16.908   8.754  10.531 -0.0998 -0.0071 -0.1327
  360loPI   GL1 5749  16.721   8.790  10.171 -0.1560  0.3406  0.3753
  360loPI   GL2 5750  16.597   9.100  10.287 -0.1805  0.0513 -0.2947
  360loPI   C1A 5751  16.734   8.763   9.752 -0.0016 -0.2217  0.0546
  360loPI   C2A 5752  16.709   8.783   9.360  0.0890 -0.0404 -0.0676
  360loPI   C3A 5753  16.685   8.766   8.945  0.0531  0.0179  0.4204
  360loPI   C4A 5754  16.721   8.862   8.514  0.2797  0.4040  0.0180
  360loPI   C5A 5755  16.761   9.172   8.258  0.0116 -0.0038  0.1123
  360loPI   C6A 5756  16.839   9.593   8.133 -0.2219 -0.1325  0.1013
  360loPI   C1B 5757  16.707   9.313   9.856  0.2721 -0.0447 -0.2942
  360loPI   C2B 5758  16.835   9.319   9.469  0.1402  0.0354  0.0109
  360loPI   C3B 5759  16.714   9.260   9.081 -0.2282  0.0120 -0.0080
  360loPI   C4B 5760  16.817   9.373   8.703 -0.0938 -0.2804  0.0144
  361loPI    C1 5761   2.458   5.911  11.460 -0.0278 -0.0714  0.3971
  361loPI    C2 5762   2.507   6.243  11.677  0.1527 -0.0117  0.2683
  361loPI    C3 5763   2.165   6.037  11.701 -0.0217  0.2675  0.2336
  361loPI   PO4 5764   2.502   5.997  11.200 -0.0499 -0.0425  0.1511
  361loPI   GL1 5765   2.388   6.071  10.822  0.1459 -0.3519 -0.1767
  361loPI   GL2 5766   2.367   6.356  10.469  0.1365 -0.2029  0.2870
  361loPI   C1A 5767   2.294   5.698  10.470  0.4865 -0.3525  0.2687
  361loPI   C2A 5768   2.414   5.697   9.997 -0.2594 -0.2190 -0.1330
  361loPI   C3A 5769   2.434   5.679   9.581 -0.1702 -0.1479  0.1065
  361loPI   C4A 5770   2.341   5.748   9.189  0.0506 -0.1056  0.1473
  361loPI   C5A 5771   2.355   5.801   8.683 -0.1251  0.0406  0.0524
  361loPI   C6A 5772   2.071   5.603   8.364  0.3081  0.0636  0.4429
  361loPI   C1B 5773   2.611   6.145  10.174 -0.0072 -0.3212 -0.0254
  361loPI   C2B 5774   2.498   6.206   9.814  0.0903 -0.0959  0.0283
  361loPI   C3B 5775   2.583   6.191   9.369 -0.1880  0.1257  0.1825
  361loPI   C4B 5776   2.536   6.298   8.927  0.3799 -0.2335  0.1460
  362loPI    C1 5777   8.469  16.258  11.013 -0.1608  0.0929 -0.1306
  362loPI    C2 5778   8.350  16.615  11.150 -0.2607 -0.0395  0.1328
  362loPI    C3 5779   8.362  16.299  11.396  0.0396 -0.1701 -0.0436
  362loPI   PO4 5780   8.314  16.248  10.790 -0.2973  0.0666 -0.1801
  362loPI   GL1 5781   8.242  16.193  10.388 -0.1581 -0.3160 -0.0463
  362loPI   GL2 5782   8.182  16.475  10.348  0.0560 -0.2336  0.1302
  362loPI   C1A 5783   8.053  16.032  10.075  0.0886 -0.1387  0.2890
  362loPI   C2A 5784   8.001  16.080   9.586 -0.1312 -0.1956 -0.0967
  362loPI   C3A 5785   7.988  16.055   9.137 -0.0672  0.1152  0.1913
  362loPI   C4A 5786   7.925  15.964   8.669 -0.2811  0.1989  0.1024
  362loPI   C5A 5787   8.017  15.756   8.284 -0.3131 -0.0133  0.2802
  362loPI   C6A 5788   8.032  15.683   7.869  0.0076  0.3235 -0.0527
  362loPI   C1B 5789   8.145  16.555   9.980 -0.1008 -0.2661  0.0975
  362loPI   C2B 5790   8.095  16.592   9.478 -0.0416  0.1095 -0.2402
  362loPI   C3B 5791   8.017  16.527   9.015  0.0367  0.0545 -0.2202
  362loPI   C4B 5792   8.039  16.465   8.605  0.2220 -0.0637 -0.1115
  363loPI    C1 5793   6.532  13.667  11.415 -0.0685 -0.4187  0.3299
  363loPI    C2 5794   6.289  13.953  11.551  0.1356  0.0843 -0.3100
  363loPI    C3 5795   6.646  13.896  11.722 -0.0451 -0.0305  0.0392
  363loPI   PO4 5796   6.426  13.808  11.037  0.0517  0.0962  0.1707
  363loPI   GL1 5797   6.307  13.950  10.675 -0.0818  0.1562  0.2393
  363loPI   GL2 5798   6.108  14.096  10.644 -0.0147  0.0891  0.0094
  363loPI   C1A 5799   6.599  14.205  10.311 -0.1490 -0.0358  0.0005
  363loPI   C2A 5800   6.725  14.230   9.990 -0.0645 -0.0121 -0.0140
  363loPI   C3A 5801   6.710  14.274   9.511  0.0593 -0.2052 -0.0288
  363loPI   C4A 5802   6.560  14.241   9.134 -0.0938  0.1038 -0.2090
  363loPI   C5A 5803   6.515  14.449   8.659 -0.1083  0.1340  0.3600
  363loPI   C6A 5804   6.270  14.616   8.189 -0.4746 -0.1490 -0.0189
  363loPI   C1B 5805   6.112  14.009  10.153  0.1894 -0.0558 -0.3052
  363loPI   C2B 5806   6.156  14.212   9.856 -0.1559 -0.1160 -0.2521
  363loPI   C3B 5807   6.138  14.100   9.447  0.1829 -0.1051  0.3248
  363loPI   C4B 5808   6.064  14.159   8.900  0.0120 -0.1452 -0.0962
  364loPI    C1 5809   6.042  15.587  11.282  0.0817 -0.0857  0.1246
  364loPI    C2 5810   5.681  15.449  11.383  0.0100  0.1195  0.1539
  364loPI    C3 5811   6.010  15.279  11.535 -0.0729 -0.0660  0.1297
  364loPI   PO4 5812   6.016  15.615  11.000 -0.0596  0.0620  0.1778
  364loPI   GL1 5813   6.241  15.569  10.576 -0.2693  0.0673 -0.0055
  364loPI   GL2 5814   5.958  15.804  10.558 -0.1343  0.2052  0.0339
  364loPI   C1A 5815   6.072  15.472  10.149  0.1500  0.2332  0.2475
  364loPI   C2A 5816   6.055  15.471   9.780  0.1587 -0.3753  0.3808
  364loPI   C3A 5817   6.023  15.483   9.319 -0.0162 -0.1371  0.0332
  364loPI   C4A 5818   6.021  15.381   8.913  0.1668  0.0747  0.0455
  364loPI   C5A 5819   5.873  15.245   8.605 -0.1898  0.1677  0.1214
  364loPI   C6A 5820   6.094  15.122   8.220  0.1619 -0.1136 -0.1562
  364loPI   C1B 5821   5.702  15.804  10.144 -0.0727 -0.2293 -0.5334
  364loPI   C2B 5822   5.577  15.801   9.715  0.0915 -0.0080 -0.2918
  364loPI   C3B 5823   5.583  15.738   9.263 -0.1386 -0.0396 -0.1716
  364loPI   C4B 5824   5.646  15.773   8.866  0.0993  0.0287 -0.3605
  365loPI    C1 5825   4.159   9.421  11.103 -0.0046  0.1865 -0.3767
  365loPI    C2 5826   4.534   9.382  11.236 -0.0145  0.5477 -0.2297
  365loPI    C3 5827   4.227   9.325  11.486 -0.0698  0.0272 -0.4046
  365loPI   PO4 5828   4.174   9.515  10.942  0.3746 -0.2949  0.1209
  365loPI   GL1 5829   4.035   9.686  10.524 -0.1846 -0.2395 -0.1232
  365loPI   GL2 5830   3.780   9.421  10.374 -0.2608  0.0788 -0.0015
  365loPI   C1A 5831   4.183   9.550  10.032  0.1394  0.2756 -0.0411
  365loPI   C2A 5832   4.275   9.651   9.654 -0.5362 -0.0661 -0.0093
  365loPI   C3A 5833   4.207   9.594   9.273 -0.2975  0.0438  0.0335
  365loPI   C4A 5834   4.221   9.648   8.754 -0.0061 -0.0246 -0.1012
  365loPI   C5A 5835   4.295   9.772   8.363  0.0464  0.3063 -0.0112
  365loPI   C6A 5836   3.930   9.990   7.974  0.0210  0.0175  0.0952
  365loPI   C1B 5837   3.622   9.303  10.025 -0.3011  0.0389 -0.0061
  365loPI   C2B 5838   3.758   9.496   9.711  0.1745  0.2004 -0.1001
  365loPI   C3B 5839   3.689   9.545   9.199 -0.0621  0.0234 -0.1039
  365loPI   C4B 5840   3.660   9.561   8.740 -0.1489 -0.3747  0.3946
  366loPI    C1 5841  14.551  11.511  10.965  0.3209  0.1699 -0.0781
  366loPI    C2 5842  14.588  11.902  11.039  0.0058  0.2194 -0.1684
  366loPI    C3 5843  14.795  11.638  11.256 -0.0280  0.4195  0.1138
  366loPI   PO4 5844  14.528  11.521  10.599 -0.3514 -0.2555  0.0706
  366loPI   GL1 5845  14.570  11.314  10.199  0.0413  0.1731  0.0745
  366loPI   GL2 5846  14.297  11.291  10.204 -0.4665  0.0300  0.0094
  366loPI   C1A 5847  14.518  11.284   9.774  0.2540 -0.2653  0.0137
  366loPI   C2A 5848  14.493  11.264   9.466 -0.2545  0.0359  0.2096
  366loPI   C3A 5849  14.438  11.385   9.038 -0.1442  0.1697  0.3202
  366loPI   C4A 5850  14.543  11.408   8.613 -0.1147 -0.0774  0.3780
  366loPI   C5A 5851  14.572  11.300   8.246  0.1424  0.0150 -0.0157
  366loPI   C6A 5852  14.643  11.568   7.992  0.1135  0.1608 -0.0260
  366loPI   C1B 5853  14.058  11.198   9.894 -0.1382  0.0561 -0.0886
  366loPI   C2B 5854  13.998  11.222   9.491 -0.2623  0.4086  0.0184
  366loPI   C3B 5855  13.993  11.300   9.162 -0.0994  0.0320 -0.0155
  366loPI   C4B 5856  13.923  11.172   8.697  0.5546 -0.0656 -0.0708
  367loPI    C1 5857   1.211  11.609  11.099  0.0104  0.0443  0.1740
  367loPI    C2 5858   0.837  11.503  11.192 -0.0269 -0.1342 -0.1620
  367loPI    C3 5859   1.144  11.277  11.313 -0.0273 -0.0090  0.0801
  367loPI   PO4 5860   1.187  11.613  10.779  0.0722  0.0989 -0.0841
  367loPI   GL1 5861   1.372  11.584  10.474  0.2077 -0.1633  0.2440
  367loPI   GL2 5862   1.628  11.267  10.421 -0.0053 -0.0644 -0.0374
  367loPI   C1A 5863   1.487  11.705  10.023 -0.2026  0.1428 -0.0063
  367loPI   C2A 5864   1.404  11.634   9.594  0.3229  0.1460 -0.0311
  367loPI   C3A 5865   1.476  11.780   9.282  0.0836 -0.2071 -0.0652
  367loPI   C4A 5866   1.526  11.762   8.831  0.0872 -0.0273  0.0345
  367loPI   C5A 5867   1.557  11.801   8.399 -0.0830 -0.0568 -0.0344
  367loPI   C6A 5868   1.559  11.881   8.077  0.0369 -0.1117 -0.1357
  367loPI   C1B 5869   1.773  11.284   9.942 -0.2872 -0.0795 -0.2621
  367loPI   C2B 5870   1.772  11.288   9.480  0.2468 -0.0718 -0.2882
  367loPI   C3B 5871   1.920  11.328   9.117 -0.0653 -0.0859 -0.0675
  367loPI   C4B 5872   1.945  11.481   8.645 -0.1325 -0.0590 -0.0379
  368loPI    C1 5873  16.040   4.511  10.863  0.0179 -0.1204  0.0128
  368loPI    C2 5874  16.410   4.556  11.007  0.0880 -0.2860 -0.1120
  368loPI    C3 5875  16.186   4.245  11.123  0.0461 -0.2730 -0.1572
  368loPI   PO4 5876  16.115   4.464  10.560  0.2428 -0.2075 -0.2763
  368loPI   GL1 5877  15.947   4.751  10.157 -0.3906  0.0959 -0.2011
  368loPI   GL2 5878  16.119   4.939  10.302 -0.2386 -0.1908 -0.3955
  368loPI   C1A 5879  16.127   4.765   9.778 -0.1425 -0.0462 -0.3094
  368loPI   C2A 5880  16.263   4.761   9.347  0.2209  0.0515  0.2235
  368loPI   C3A 5881  16.199   4.862   8.894 -0.0629  0.0176  0.1216
  368loPI   C4A 5882  16.143   4.752   8.471 -0.2326 -0.2213  0.0800
  368loPI   C5A 5883  16.493   4.614   8.182  0.4266  0.3419  0.2042
  368loPI   C6A 5884  16.684   4.558   7.759  0.2112 -0.0989  0.1902
  368loPI   C1B 5885  16.198   5.316   9.972 -0.1169 -0.0618 -0.4672
  368loPI   C2B 5886  16.232   5.391   9.573 -0.2235 -0.0714 -0.2226
  368loPI   C3B 5887  16.278   5.274   9.150  0.0289 -0.3515  0.1101
  368loPI   C4B 5888  16.335   5.230   8.652 -0.0460  0.0525 -0.0820
  369loPI    C1 5889   8.407  17.088  10.992 -0.0767 -0.0265  0.2366
  369loPI    C2 5890   8.473  17.451  11.147 -0.3604 -0.0189  0.3463
  369loPI    C3 5891   8.529  17.124  11.371  0.0531 -0.0560  0.1979
  369loPI   PO4 5892   8.353  17.152  10.714  0.0041 -0.2270  0.0001
  369loPI   GL1 5893   8.400  17.039  10.325 -0.0095 -0.2013 -0.0497
  369loPI   GL2 5894   8.779  17.231  10.306 -0.0698 -0.1513 -0.1798
  369loPI   C1A 5895   8.191  17.085  10.031  0.0281  0.2585  0.0950
  369loPI   C2A 5896   8.232  16.986   9.694  0.4245 -0.0843  0.1732
  369loPI   C3A 5897   8.163  17.020   9.189  0.1176 -0.0356 -0.3147
  369loPI   C4A 5898   8.165  16.967   8.748 -0.0362  0.2151  0.0786
  369loPI   C5A 5899   8.237  17.066   8.320  0.0787 -0.2256  0.0274
  369loPI   C6A 5900   8.654  17.036   8.095 -0.0707 -0.1380  0.0693
  369loPI   C1B 5901   8.828  17.342   9.930  0.5426  0.0598 -0.0545
  369loPI   C2B 5902   8.677  17.280   9.520 -0.0749  0.0735 -0.1661
  369loPI   C3B 5903   8.772  17.259   9.123 -0.1505 -0.0085 -0.1075
  369loPI   C4B 5904   8.630  17.188   8.727  0.0833  0.0356  0.3305
  370loPI    C1 5905  12.138   4.319  10.073  0.2027 -0.0628  0.0205
  370loPI    C2 5906  11.936   4.473  10.382  0.0523  0.1232 -0.1669
  370loPI    C3 5907  12.028   4.083  10.377  0.2823  0.1657  0.2303
  370loPI   PO4 5908  11.981   4.344   9.858  0.0182 -0.2316 -0.1959
  370loPI   GL1 5909  11.782   4.114   9.565 -0.3954  0.0149 -0.2195
  370loPI   GL2 5910  11.845   3.879   9.460  0.0887  0.1155 -0.1466
  370loPI   C1A 5911  11.807   4.298   9.222 -0.1459 -0.2140 -0.0179
  370loPI   C2A 5912  11.723   4.366   8.826  0.3152  0.1030 -0.0421
  370loPI   C3A 5913  11.803   4.340   8.435  0.3698 -0.1648  0.0793
  370loPI   C4A 5914  11.978   4.377   7.969  0.2064 -0.3520  0.1884
  370loPI   C5A 5915  11.792   4.329   7.562  0.3866  0.1177  0.0544
  370loPI   C6A 5916  11.701   4.227   7.220 -0.0685  0.0318 -0.0836
  370loPI   C1B 5917  11.738   3.811   9.047 -0.3248  0.1975  0.1232
  370loPI   C2B 5918  11.709   3.699   8.580  0.3540 -0.0868 -0.2344
  370loPI   C3B 5919  11.783   3.524   8.220 -0.1542  0.0926 -0.0954
  370loPI   C4B 5920  12.003   3.298   7.745  0.5038  0.1597  0.1545
  371loPI    C1 5921  15.302   8.682  10.869 -0.2181  0.0927  0.1452
  371loPI    C2 5922  15.574   8.955  10.975 -0.1587  0.0251  0.1683
  371loPI    C3 5923  15.630   8.570  11.069 -0.1517 -0.0220 -0.0249
  371loPI   PO4 5924  15.246   8.742  10.622  0.0983  0.0075 -0.0975
  371loPI   GL1 5925  15.360   8.813  10.267  0.1386 -0.1162 -0.0244
  371loPI   GL2 5926  15.467   8.527  10.137 -0.2237  0.0510  0.2937
  371loPI   C1A 5927  15.774   8.973   9.961 -0.0845 -0.0082  0.0019
  371loPI   C2A 5928  15.812   8.965   9.534 -0.0268  0.3156  0.1441
  371loPI   C3A 5929  15.786   9.003   9.098 -0.1053 -0.1591 -0.1041
  371loPI   C4A 5930  15.874   8.935   8.647 -0.0602 -0.1305  0.0008
  371loPI   C5A 5931  16.180   9.022   8.271  0.0413  0.2232 -0.0373
  371loPI   C6A 5932  16.424   9.195   7.908 -0.2673 -0.1066 -0.0129
  371loPI   C1B 5933  15.689   8.518   9.746 -0.1570 -0.2198  0.3694
  371loPI   C2B 5934  15.788   8.489   9.296 -0.1290 -0.2186 -0.0847
  371loPI   C3B 5935  15.703   8.560   8.855 -0.1122 -0.1611  0.0454
  371loPI   C4B 5936  15.625   8.502   8.296 -0.0421  0.1404  0.0366
  372loPI    C1 5937  14.772   5.004  10.600  0.1218 -0.1062 -0.1560
  372loPI    C2 5938  15.056   5.091  10.868 -0.1184  0.2650 -0.0131
  372loPI    C3 5939  14.715   4.919  10.986 -0.1452  0.2494 -0.1119
  372loPI   PO4 5940  14.969   4.853  10.389 -0.0852  0.0541  0.0728
  372loPI   GL1 5941  14.853   4.753   9.965  0.1852  0.1021  0.1289
  372loPI   GL2 5942  15.123   4.518   9.763  0.2137  0.1126  0.2584
  372loPI   C1A 5943  14.565   4.846   9.689 -0.0163  0.0004 -0.1028
  372loPI   C2A 5944  14.845   4.868   9.302  0.0311  0.0935  0.0057
  372loPI   C3A 5945  14.826   4.905   8.882 -0.1260  0.1010  0.0713
  372loPI   C4A 5946  14.597   4.993   8.364  0.0666  0.1738 -0.1739
  372loPI   C5A 5947  14.264   5.047   8.173  0.2350 -0.3923 -0.1475
  372loPI   C6A 5948  14.085   5.388   7.953 -0.1627  0.0468  0.3829
  372loPI   C1B 5949  15.148   4.427   9.354  0.0684 -0.0489  0.1189
  372loPI   C2B 5950  15.377   4.442   9.015 -0.0064  0.1347 -0.0371
  372loPI   C3B 5951  15.087   4.532   8.637 -0.1954  0.2453 -0.1937
  372loPI   C4B 5952  14.903   4.605   8.245 -0.0139 -0.0466 -0.0040
  373loPI    C1 5953   7.489  16.826  11.083 -0.2208  0.0986 -0.0624
  373loPI    C2 5954   7.460  16.501  11.314 -0.0135  0.1527  0.0424
  373loPI    C3 5955   7.530  16.859  11.479  0.1691  0.1865 -0.1055
  373loPI   PO4 5956   7.601  16.708  10.907  0.1986  0.1410  0.1987
  373loPI   GL1 5957   7.769  16.392  10.582 -0.0467 -0.0210  0.2090
  373loPI   GL2 5958   7.398  16.392  10.569  0.2412  0.0111 -0.3358
  373loPI   C1A 5959   7.687  16.391  10.191 -0.1245 -0.2026 -0.0997
  373loPI   C2A 5960   7.605  16.430   9.716 -0.0168  0.3476 -0.2769
  373loPI   C3A 5961   7.554  16.445   9.250 -0.1818  0.2023  0.0013
  373loPI   C4A 5962   7.548  16.424   8.771  0.3027  0.0367  0.2373
  373loPI   C5A 5963   7.554  16.307   8.337  0.0572  0.0307 -0.0550
  373loPI   C6A 5964   7.488  16.406   7.967 -0.1927  0.2529 -0.1233
  373loPI   C1B 5965   7.216  16.254  10.275 -0.0168 -0.2761 -0.1183
  373loPI   C2B 5966   7.142  16.252   9.969 -0.2340  0.2512 -0.1924
  373loPI   C3B 5967   7.154  16.311   9.517  0.1227  0.1012  0.1126
  373loPI   C4B 5968   7.057  16.282   9.116 -0.1634  0.1669 -0.1565
  374loPI    C1 5969  12.840  12.408  11.102  0.0123  0.2919  0.1334
  374loPI    C2 5970  13.146  12.666  11.126  0.3358 -0.0451 -0.2172
  374loPI    C3 5971  13.114  12.367  11.391  0.1526  0.1481 -0.0174
  374loPI   PO4 5972  12.853  12.397  10.823 -0.0236  0.0184 -0.0416
  374loPI   GL1 5973  12.952  12.261  10.392  0.5063 -0.0954 -0.1976
  374loPI   GL2 5974  12.595  12.305  10.256 -0.0990  0.1352  0.1634
  374loPI   C1A 5975  13.199  12.420  10.084  0.1864  0.0690 -0.2329
  374loPI   C2A 5976  13.191  12.409   9.674  0.3638 -0.0963  0.1750
  374loPI   C3A 5977  13.315  12.539   9.309  0.0037 -0.0138  0.1993
  374loPI   C4A 5978  13.413  12.488   8.800 -0.2746  0.0237 -0.2388
  374loPI   C5A 5979  13.521  12.422   8.409 -0.0640 -0.0535  0.1015
  374loPI   C6A 5980  13.316  12.425   7.995 -0.0205  0.0053  0.0360
  374loPI   C1B 5981  12.673  12.241   9.805 -0.1955  0.0435  0.0994
  374loPI   C2B 5982  12.743  12.352   9.389  0.0317 -0.2770  0.0227
  374loPI   C3B 5983  12.898  12.413   8.977 -0.1802 -0.2044  0.0769
  374loPI   C4B 5984  12.997  12.439   8.532  0.0223  0.5183  0.1515
  375loPI    C1 5985   7.819  15.033  11.456 -0.1923  0.0852  0.0666
  375loPI    C2 5986   8.136  14.886  11.651 -0.0027  0.1450 -0.1906
  375loPI    C3 5987   7.766  14.803  11.779  0.1135 -0.0123  0.0507
  375loPI   PO4 5988   7.809  15.028  11.174 -0.4191  0.1532  0.0656
  375loPI   GL1 5989   7.706  14.894  10.715 -0.2720 -0.0460 -0.0361
  375loPI   GL2 5990   7.927  15.070  10.455 -0.1133 -0.2243  0.1896
  375loPI   C1A 5991   7.417  14.878  10.361  0.0200  0.1656  0.1939
  375loPI   C2A 5992   7.351  14.956   9.930 -0.2459  0.3264  0.1188
  375loPI   C3A 5993   7.313  14.954   9.466 -0.0371  0.1780  0.0269
  375loPI   C4A 5994   7.343  14.878   9.050  0.2231 -0.2693  0.1087
  375loPI   C5A 5995   7.336  14.936   8.654 -0.0506 -0.0728  0.1571
  375loPI   C6A 5996   7.644  14.696   8.380  0.0707 -0.3689  0.2927
  375loPI   C1B 5997   7.854  15.052  10.032  0.0640 -0.0880 -0.2577
  375loPI   C2B 5998   7.798  15.129   9.641 -0.0138  0.2704 -0.0683
  375loPI   C3B 5999   7.790  15.066   9.273 -0.2897  0.0297 -0.2475
  375loPI   C4B 6000   7.809  14.836   8.848 -0.0488 -0.1725 -0.0901
  376loPI    C1 6001  16.624  15.211  10.982  0.1829  0.0001 -0.2716
  376loPI    C2 6002  16.980  15.148  11.153  0.0655 -0.0028 -0.0243
  376loPI    C3 6003  16.696  14.868  11.176 -0.0026  0.0604 -0.0925
  376loPI   PO4 6004  16.630  15.289  10.737  0.0488 -0.1927  0.0086
  376loPI   GL1 6005  16.741  15.231  10.315 -0.0084 -0.2113  0.1234
  376loPI   GL2 6006  16.817  14.974  10.231  0.0031  0.0543  0.0576
  376loPI   C1A 6007  16.666  15.531  10.009 -0.0617  0.2676  0.1550
  376loPI   C2A 6008  16.755  15.622   9.602 -0.1172  0.2219 -0.1372
  376loPI   C3A 6009  16.736  15.613   9.182 -0.0198 -0.0430  0.4040
  376loPI   C4A 6010  16.689  15.562   8.736 -0.2304 -0.5783  0.2109
  376loPI   C5A 6011  16.726  15.602   8.385  0.0662  0.0200  0.2764
  376loPI   C6A 6012  16.619  16.015   8.096  0.2057  0.2220 -0.2803
  376loPI   C1B 6013  16.714  14.971   9.830  0.2116  0.0293  0.1063
  376loPI   C2B 6014  16.649  15.112   9.377 -0.0542 -0.0583 -0.0197
  376loPI   C3B 6015  16.678  15.100   8.999  0.0222  0.0279  0.0932
  376loPI   C4B 6016  16.601  15.113   8.486  0.0250  0.2376  0.1457
  377loPI    C1 6017   2.479   4.843  11.164 -0.0558  0.0317 -0.2049
  377loPI    C2 6018   2.321   5.080  11.444  0.0119 -0.1563 -0.0052
  377loPI    C3 6019   2.134   4.742  11.339  0.0311 -0.1301 -0.1247
  377loPI   PO4 6020   2.611   4.999  10.956  0.0560 -0.1155 -0.2967
  377loPI   GL1 6021   2.411   5.159  10.460  0.1797 -0.2409  0.1436
  377loPI   GL2 6022   2.453   4.800  10.517 -0.0405 -0.0302 -0.1455
  377loPI   C1A 6023   2.259   5.175  10.045 -0.2694 -0.1393  0.3095
  377loPI   C2A 6024   2.321   5.211   9.548 -0.2045  0.3058 -0.0767
  377loPI   C3A 6025   2.227   5.206   9.165  0.2606 -0.0577  0.1451
  377loPI   C4A 6026   2.279   5.166   8.800  0.0548  0.0617 -0.1928
  377loPI   C5A 6027   2.203   4.837   8.561  0.0468  0.2188 -0.1106
  377loPI   C6A 6028   1.953   4.437   8.391 -0.4171 -0.1245  0.0213
  377loPI   C1B 6029   2.290   4.647  10.147  0.2230 -0.1253 -0.0668
  377loPI   C2B 6030   2.267   4.724   9.781  0.1177  0.2234 -0.0835
  377loPI   C3B 6031   2.168   4.591   9.403 -0.5162  0.0905 -0.2013
  377loPI   C4B 6032   2.175   4.666   9.026  0.1932  0.0051 -0.1142
  378loPI    C1 6033  17.483  18.081  11.086 -0.1734  0.1059  0.0560
  378loPI    C2 6034  17.811  18.299  11.017 -0.1275 -0.0370 -0.1912
  378loPI    C3 6035  17.689  18.234  11.393 -0.0143  0.2227 -0.1070
  378loPI   PO4 6036  17.353  18.158  10.761 -0.0219  0.2042 -0.0883
  378loPI   GL1 6037  17.192  18.553  10.474  0.0154 -0.2006 -0.1385
  378loPI   GL2 6038  16.933  18.393  10.391 -0.0202  0.0560  0.2850
  378loPI   C1A 6039  17.236  18.841  10.132  0.1852 -0.4347  0.1814
  378loPI   C2A 6040  17.236  18.882   9.745 -0.1835  0.2868  0.1720
  378loPI   C3A 6041  17.169  18.863   9.327 -0.1016  0.0248  0.2503
  378loPI   C4A 6042  17.091  19.003   8.854 -0.2015 -0.2788  0.0575
  378loPI   C5A 6043  17.043  18.971   8.433 -0.1458 -0.0918 -0.1802
  378loPI   C6A 6044  17.194  19.137   8.188  0.1862  0.1345  0.0818
  378loPI   C1B 6045  16.960  18.410   9.929  0.0609 -0.1614  0.0420
  378loPI   C2B 6046  17.006  18.390   9.537 -0.0881 -0.0386  0.0321
  378loPI   C3B 6047  16.956  18.438   9.108 -0.1425  0.0740  0.0062
  378loPI   C4B 6048  16.898  18.531   8.690  0.0668 -0.0215 -0.0158
  379loPI    C1 6049   6.693   8.868  10.517  0.0525  0.1618 -0.0532
  379loPI    C2 6050   6.644   9.104  10.836 -0.3680 -0.2202  0.1771
  379loPI    C3 6051   6.809   8.742  10.878  0.4636  0.0869 -0.2052
  379loPI   PO4 6052   6.428   8.876  10.454 -0.1358 -0.1543  0.1541
  379loPI   GL1 6053   6.391   8.961   9.956  0.1559  0.0063  0.0385
  379loPI   GL2 6054   6.078   8.909  10.034 -0.1359 -0.0852  0.2187
  379loPI   C1A 6055   6.321   8.955   9.597 -0.2102 -0.1410 -0.2868
  379loPI   C2A 6056   6.310   8.941   9.208 -0.0984 -0.2566  0.2839
  379loPI   C3A 6057   6.392   8.959   8.795 -0.0609 -0.0393 -0.1701
  379loPI   C4A 6058   6.400   8.949   8.359  0.1158 -0.0375 -0.3023
  379loPI   C5A 6059   6.722   9.081   7.991 -0.0336  0.1351  0.1503
  379loPI   C6A 6060   6.692   9.389   7.567 -0.1470 -0.2311 -0.0154
  379loPI   C1B 6061   5.822   8.807   9.684  0.0555  0.0358  0.0016
  379loPI   C2B 6062   5.816   8.738   9.071  0.1800 -0.2537 -0.0671
  379loPI   C3B 6063   5.952   8.822   8.685  0.0565  0.3030 -0.1336
  379loPI   C4B 6064   5.945   8.774   8.309  0.0941  0.1162 -0.1094
  380loPI    C1 6065  13.275   8.314  10.168 -0.2277  0.1888 -0.0353
  380loPI    C2 6066  13.219   8.300  10.564 -0.2110  0.1562 -0.0341
  380loPI    C3 6067  13.028   8.042  10.325 -0.1387  0.1059 -0.0379
  380loPI   PO4 6068  13.404   8.595  10.248  0.1108 -0.0017 -0.2085
  380loPI   GL1 6069  13.668   8.752   9.989  0.1545 -0.0435 -0.1166
  380loPI   GL2 6070  13.497   8.625   9.758 -0.3737  0.0655 -0.2090
  380loPI   C1A 6071  13.901   8.771   9.621 -0.0563  0.2655  0.0361
  380loPI   C2A 6072  13.907   8.916   9.206  0.1887 -0.1407 -0.2601
  380loPI   C3A 6073  13.809   8.801   8.798 -0.1755 -0.1697 -0.0366
  380loPI   C4A 6074  13.834   8.702   8.381  0.0166 -0.0379  0.1048
  380loPI   C5A 6075  14.025   8.544   8.009  0.1827 -0.3310 -0.0587
  380loPI   C6A 6076  14.241   8.246   7.868 -0.0062  0.0352 -0.0674
  380loPI   C1B 6077  13.476   8.619   9.258  0.1339 -0.0575 -0.0279
  380loPI   C2B 6078  13.285   8.612   8.832  0.2196  0.2469 -0.1301
  380loPI   C3B 6079  13.280   8.673   8.407 -0.3234  0.1292 -0.6484
  380loPI   C4B 6080  13.466   8.713   8.035  0.0468  0.2116  0.1537
  381loPI    C1 6081   3.248  17.232  11.187  0.0238 -0.2994 -0.1106
  381loPI    C2 6082   3.583  17.443  11.132  0.0518 -0.4046 -0.3567
  381loPI    C3 6083   3.462  17.354  11.502  0.0771 -0.0195 -0.2514
  381loPI   PO4 6084   3.200  17.237  10.933  0.3382 -0.3045 -0.3400
  381loPI   GL1 6085   2.948  17.386  10.720 -0.0445  0.0291 -0.1322
  381loPI   GL2 6086   2.614  17.487  10.713 -0.1624  0.0302  0.0597
  381loPI   C1A 6087   2.864  17.242  10.321  0.0241 -0.2908  0.2864
  381loPI   C2A 6088   2.743  17.262   9.914 -0.0333  0.0710  0.2133
  381loPI   C3A 6089   2.681  17.377   9.516  0.2325  0.1071 -0.1264
  381loPI   C4A 6090   2.825  17.319   9.112 -0.1038 -0.1511 -0.0027
  381loPI   C5A 6091   2.712  17.154   8.750  0.2143  0.3198  0.0049
  381loPI   C6A 6092   2.638  16.994   8.338  0.0106  0.2407  0.1818
  381loPI   C1B 6093   2.491  17.627  10.261 -0.0779  0.1244 -0.0295
  381loPI   C2B 6094   2.323  17.601   9.826  0.1290  0.0908  0.0213
  381loPI   C3B 6095   2.306  17.682   9.331  0.1072 -0.2479 -0.2365
  381loPI   C4B 6096   2.308  17.675   8.888 -0.0483  0.0625 -0.0911
  382loPI    C1 6097  10.267   0.621  10.776 -0.0730 -0.1783 -0.0734
  382loPI    C2 6098  10.661   0.664  10.833 -0.0665  0.0012 -0.2433
  382loPI    C3 6099  10.419   0.607  11.146  0.0819 -0.0055 -0.1288
  382loPI   PO4 6100  10.233   0.678  10.498  0.0460  0.0327 -0.2895
  382loPI   GL1 6101  10.221   0.672  10.096  0.1626 -0.1262  0.3792
  382loPI   GL2 6102  10.080   0.303  10.096 -0.0854 -0.0908  0.1399
  382loPI   C1A 6103  10.122   0.927   9.716  0.1504 -0.1588 -0.3506
  382loPI   C2A 6104  10.095   0.946   9.339  0.3673  0.2493 -0.0998
  382loPI   C3A 6105  10.060   0.981   8.962  0.1848 -0.0636  0.1293
  382loPI   C4A 6106  10.078   0.804   8.567 -0.0634  0.0673  0.1395
  382loPI   C5A 6107   9.945   0.583   8.079 -0.1726  0.1747  0.0099
  382loPI   C6A 6108  10.155   0.135   8.028 -0.3623 -0.0290 -0.0828
  382loPI   C1B 6109   9.972   0.416   9.772  0.1097 -0.2552 -0.1202
  382loPI   C2B 6110   9.995   0.450   9.422 -0.1585 -0.1676  0.3448
  382loPI   C3B 6111   9.946   0.402   9.037 -0.2919  0.3892  0.0910
  382loPI   C4B 6112   9.932   0.319   8.617  0.1115 -0.1005  0.2996
  383loPI    C1 6113   9.658   7.956  10.745  0.1954 -0.1046 -0.1008
  383loPI    C2 6114   9.934   8.240  10.803  0.0267  0.0483 -0.0327
  383loPI    C3 6115   9.891   7.944  11.070  0.2086 -0.0476 -0.1081
  383loPI   PO4 6116   9.738   7.944  10.419 -0.0447  0.0065  0.2307
  383loPI   GL1 6117   9.965   7.862  10.127 -0.0949 -0.0109 -0.0814
  383loPI   GL2 6118   9.791   7.578  10.075  0.0789  0.1124  0.0001
  383loPI   C1A 6119   9.918   8.090   9.741  0.1653 -0.0231 -0.4530
  383loPI   C2A 6120   9.943   8.053   9.296  0.0340 -0.1416 -0.2101
  383loPI   C3A 6121  10.000   8.095   8.889 -0.2618  0.0044 -0.0622
  383loPI   C4A 6122   9.948   8.101   8.385 -0.0629  0.3524  0.0969
  383loPI   C5A 6123   9.983   7.877   8.056  0.1140 -0.1375  0.5610
  383loPI   C6A 6124   9.711   7.641   7.861  0.0023 -0.1078  0.1510
  383loPI   C1B 6125   9.746   7.575   9.718  0.2067 -0.3287  0.2199
  383loPI   C2B 6126   9.721   7.500   9.308  0.0255 -0.0660 -0.0437
  383loPI   C3B 6127   9.819   7.628   8.885  0.0298  0.1251  0.1670
  383loPI   C4B 6128   9.796   7.559   8.502 -0.0813 -0.0656 -0.1783
  384loPI    C1 6129   4.612   1.329  11.278 -0.1086  0.0633 -0.0188
  384loPI    C2 6130   4.501   1.009  11.491 -0.2487  0.0610 -0.0940
  384loPI    C3 6131   4.764   0.969  11.191  0.1854  0.1130  0.2690
  384loPI   PO4 6132   4.415   1.422  11.198 -0.2346  0.1303  0.3730
  384loPI   GL1 6133   4.306   1.561  10.757 -0.4722  0.2141 -0.1053
  384loPI   GL2 6134   4.337   1.871  10.633  0.2076 -0.1946 -0.0230
  384loPI   C1A 6135   4.282   1.447  10.345 -0.0015 -0.0863 -0.0437
  384loPI   C2A 6136   4.268   1.383   9.890  0.1702 -0.1762  0.0749
  384loPI   C3A 6137   4.207   1.454   9.438 -0.0044 -0.0049 -0.0849
  384loPI   C4A 6138   4.184   1.431   9.029 -0.1250  0.1580  0.2897
  384loPI   C5A 6139   4.205   1.403   8.648  0.0905 -0.1110 -0.2746
  384loPI   C6A 6140   4.182   1.164   8.394 -0.0607  0.0977 -0.0808
  384loPI   C1B 6141   4.390   1.915  10.172 -0.3293 -0.1299 -0.0824
  384loPI   C2B 6142   4.307   1.862   9.792  0.4067  0.2325 -0.1570
  384loPI   C3B 6143   4.314   1.992   9.393 -0.2880 -0.1086 -0.1796
  384loPI   C4B 6144   4.364   1.966   8.954  0.4300  0.1020 -0.0746
  385loPI    C1 6145   9.051   5.504  10.547  0.0631  0.1285  0.0979
  385loPI    C2 6146   9.419   5.622  10.650  0.1983 -0.0229 -0.1987
  385loPI    C3 6147   9.295   5.252  10.739  0.0096  0.1212  0.1566
  385loPI   PO4 6148   9.046   5.685  10.320  0.1336 -0.3412  0.0355
  385loPI   GL1 6149   9.147   5.817   9.848  0.0503  0.1119 -0.0067
  385loPI   GL2 6150   9.470   5.670   9.840  0.2392  0.1352 -0.0805
  385loPI   C1A 6151   8.844   5.840   9.482  0.1707  0.0250  0.3021
  385loPI   C2A 6152   8.837   5.848   9.039  0.0219 -0.1935 -0.1368
  385loPI   C3A 6153   8.713   5.708   8.571 -0.1311 -0.1562  0.0242
  385loPI   C4A 6154   8.701   5.756   8.054  0.3552  0.1146  0.1311
  385loPI   C5A 6155   8.974   5.761   7.838 -0.1632  0.0959 -0.1770
  385loPI   C6A 6156   9.066   5.647   7.459  0.0858  0.1220 -0.2131
  385loPI   C1B 6157   9.396   5.478   9.536  0.0268  0.3546 -0.1590
  385loPI   C2B 6158   9.286   5.500   9.142 -0.2935 -0.1486  0.0176
  385loPI   C3B 6159   9.107   5.508   8.708 -0.0043 -0.2883 -0.5043
  385loPI   C4B 6160   8.923   5.320   8.347  0.1689 -0.1954  0.1388
  386loPI    C1 6161  12.515   2.514  10.562  0.0546  0.0608 -0.0299
  386loPI    C2 6162  12.463   2.846  10.779  0.1469 -0.0163  0.1126
  386loPI    C3 6163  12.693   2.550  10.919 -0.0053 -0.1777  0.0262
  386loPI   PO4 6164  12.229   2.475  10.523  0.0289  0.4337 -0.0704
  386loPI   GL1 6165  12.097   2.400  10.116 -0.1113 -0.3757 -0.0741
  386loPI   GL2 6166  12.339   2.189   9.862 -0.0780  0.3734 -0.3052
  386loPI   C1A 6167  11.939   2.437   9.665  0.0848  0.2554  0.1435
  386loPI   C2A 6168  11.953   2.459   9.213 -0.2429 -0.2282 -0.0609
  386loPI   C3A 6169  11.929   2.552   8.730  0.1022  0.1174 -0.2085
  386loPI   C4A 6170  11.746   2.442   8.389 -0.1487 -0.0993  0.0214
  386loPI   C5A 6171  11.765   2.791   7.996  0.2869  0.0628  0.3452
  386loPI   C6A 6172  11.745   2.950   7.594  0.1710  0.0796  0.1522
  386loPI   C1B 6173  12.298   2.117   9.443 -0.2098  0.1820  0.2705
  386loPI   C2B 6174  12.291   2.172   8.980 -0.1155 -0.3376  0.1345
  386loPI   C3B 6175  12.218   2.233   8.518 -0.3076  0.0947  0.0325
  386loPI   C4B 6176  12.286   2.142   8.039  0.1878  0.3286 -0.3789
  387loPI    C1 6177   6.817  15.442  11.341 -0.0648 -0.3583 -0.0048
  387loPI    C2 6178   6.821  15.350  11.731 -0.0906 -0.1852  0.0373
  387loPI    C3 6179   6.479  15.459  11.554  0.0066  0.2011  0.0789
  387loPI   PO4 6180   6.849  15.193  11.148  0.0419 -0.1051 -0.1161
  387loPI   GL1 6181   6.905  15.064  10.718 -0.1979  0.0814  0.0621
  387loPI   GL2 6182   6.728  15.318  10.653 -0.2455 -0.1969  0.0146
  387loPI   C1A 6183   7.117  15.223  10.322  0.2581 -0.0281 -0.0592
  387loPI   C2A 6184   6.973  15.277   9.975 -0.2311  0.1384  0.0199
  387loPI   C3A 6185   6.937  15.338   9.530 -0.0870  0.2712 -0.3037
  387loPI   C4A 6186   6.899  15.328   9.121  0.3461  0.2010  0.2639
  387loPI   C5A 6187   6.914  15.290   8.596 -0.0377  0.0052 -0.0619
  387loPI   C6A 6188   6.663  15.182   8.188  0.3077 -0.3894 -0.1348
  387loPI   C1B 6189   6.410  15.112  10.357  0.1815 -0.0701 -0.0243
  387loPI   C2B 6190   6.466  15.176   9.900 -0.1809  0.3605  0.2069
  387loPI   C3B 6191   6.418  15.071   9.547 -0.0492 -0.0736 -0.3461
  387loPI   C4B 6192   6.351  15.115   9.162  0.0498 -0.1785 -0.1095
  388loPI    C1 6193   3.946   7.091  10.986 -0.0799 -0.1615 -0.1411
  388loPI    C2 6194   4.021   7.424  11.195  0.3479 -0.1841 -0.2503
  388loPI    C3 6195   3.747   7.164  11.325 -0.0281  0.2303 -0.1898
  388loPI   PO4 6196   3.929   7.093  10.720  0.1184  0.1214 -0.1024
  388loPI   GL1 6197   3.838   6.911  10.327  0.0713 -0.0159  0.0958
  388loPI   GL2 6198   4.024   6.594  10.326 -0.2852  0.2770 -0.1538
  388loPI   C1A 6199   3.594   7.036   9.925 -0.3261 -0.1000  0.2372
  388loPI   C2A 6200   3.753   6.975   9.505 -0.1023 -0.0620  0.0993
  388loPI   C3A 6201   3.708   6.982   9.093 -0.2638  0.3399  0.1611
  388loPI   C4A 6202   3.639   7.218   8.769  0.1360  0.1734  0.0910
  388loPI   C5A 6203   3.190   7.412   8.519  0.0387 -0.0232 -0.3239
  388loPI   C6A 6204   3.213   7.657   8.172  0.0630  0.0062  0.4012
  388loPI   C1B 6205   3.932   6.673   9.893  0.0241  0.0378  0.0345
  388loPI   C2B 6206   3.999   6.534   9.345  0.1841 -0.2289 -0.0638
  388loPI   C3B 6207   4.043   6.596   8.871 -0.0821 -0.0769  0.0801
  388loPI   C4B 6208   4.018   6.661   8.395  0.0638 -0.1514  0.1342
  389loPI    C1 6209   5.469   0.938  11.411  0.3083  0.5277  0.0207
  389loPI    C2 6210   5.106   1.099  11.460 -0.0088 -0.0992 -0.1608
  389loPI    C3 6211   5.286   0.913  11.766  0.0367 -0.0305 -0.1458
  389loPI   PO4 6212   5.528   1.182  11.214  0.0194 -0.0069  0.5184
  389loPI   GL1 6213   5.518   1.120  10.694 -0.0175  0.1557  0.1972
  389loPI   GL2 6214   5.366   1.536  10.616  0.0139 -0.0561 -0.2450
  389loPI   C1A 6215   5.723   1.287  10.267 -0.0877 -0.0421  0.0579
  389loPI   C2A 6216   5.646   1.367   9.842  0.1283  0.3408 -0.2288
  389loPI   C3A 6217   5.603   1.373   9.415  0.0142 -0.0131 -0.0116
  389loPI   C4A 6218   5.561   1.366   8.990  0.3749 -0.1154 -0.1976
  389loPI   C5A 6219   5.334   1.508   8.630  0.1013  0.0851  0.0083
  389loPI   C6A 6220   5.056   1.571   8.353  0.1634  0.0077  0.1993
  389loPI   C1B 6221   5.325   1.635  10.279  0.1572 -0.0981 -0.2408
  389loPI   C2B 6222   5.219   1.769   9.905 -0.1785 -0.1523  0.0540
  389loPI   C3B 6223   5.256   1.742   9.432 -0.1132 -0.0221  0.2664
  389loPI   C4B 6224   5.221   1.740   9.092  0.0944  0.2779 -0.0030
  390loPI    C1 6225  13.027   2.389  10.524  0.1361 -0.1197 -0.0352
  390loPI    C2 6226  12.830   2.072  10.668  0.2279 -0.1336  0.0608
  390loPI    C3 6227  13.096   2.263  10.897  0.1943 -0.0045 -0.0068
  390loPI   PO4 6228  12.845   2.343  10.251 -0.1914  0.0450 -0.0694
  390loPI   GL1 6229  12.858   2.195   9.882  0.0500  0.1873  0.0897
  390loPI   GL2 6230  13.159   2.309   9.826 -0.0563  0.1261  0.1165
  390loPI   C1A 6231  12.830   2.224   9.448  0.0948 -0.0980 -0.3206
  390loPI   C2A 6232  12.808   2.288   9.025  0.0818  0.3992  0.1472
  390loPI   C3A 6233  12.751   2.410   8.578  0.0703  0.0251  0.0607
  390loPI   C4A 6234  12.764   2.410   8.243  0.4994  0.2307  0.0069
  390loPI   C5A 6235  12.567   2.622   7.808  0.1908  0.0224 -0.0839
  390loPI   C6A 6236  12.174   2.728   7.655 -0.1895  0.0406 -0.0259
  390loPI   C1B 6237  13.241   2.489   9.418 -0.1677 -0.0663  0.1948
  390loPI   C2B 6238  13.369   2.439   8.990 -0.1269 -0.3666  0.0456
  390loPI   C3B 6239  13.245   2.450   8.546 -0.1751  0.3976  0.0792
  390loPI   C4B 6240  13.289   2.241   8.123  0.0826  0.0328 -0.0161
  391loPI    C1 6241   2.021  16.677  11.033 -0.1534 -0.1682  0.1478
  391loPI    C2 6242   1.782  16.638  11.351 -0.4170  0.0223 -0.0223
  391loPI    C3 6243   1.756  16.963  11.121  0.2881  0.2410  0.1821
  391loPI   PO4 6244   2.065  16.371  10.869 -0.0034  0.0455  0.0893
  391loPI   GL1 6245   1.846  16.533  10.469  0.2199 -0.1650 -0.0097
  391loPI   GL2 6246   1.581  16.499  10.347  0.2223 -0.2531  0.1559
  391loPI   C1A 6247   2.178  16.643  10.177  0.0886 -0.1621  0.1122
  391loPI   C2A 6248   2.143  16.647   9.745 -0.3372  0.0027  0.0297
  391loPI   C3A 6249   2.187  16.618   9.356  0.1150  0.1008 -0.1985
  391loPI   C4A 6250   2.099  16.613   8.901  0.1329  0.2404  0.1937
  391loPI   C5A 6251   2.036  16.416   8.461 -0.3192 -0.1349  0.0013
  391loPI   C6A 6252   1.715  16.449   8.261 -0.0757 -0.1758  0.1109
  391loPI   C1B 6253   1.629  16.427   9.988 -0.2634  0.1080 -0.0355
  391loPI   C2B 6254   1.688  16.464   9.575  0.1600  0.0988 -0.1166
  391loPI   C3B 6255   1.614  16.487   9.148  0.1091  0.1004 -0.1314
  391loPI   C4B 6256   1.574  16.536   8.706 -0.1893 -0.1763 -0.0414
  392loPI    C1 6257   9.765   0.462  10.624 -0.1405 -0.0087  0.0189
  392loPI    C2 6258   9.810   0.738  10.910  0.0736 -0.0495  0.0264
  392loPI    C3 6259   9.578   0.419  10.975  0.0352 -0.0041  0.1144
  392loPI   PO4 6260   9.707   0.573  10.398 -0.0311 -0.0799 -0.0997
  392loPI   GL1 6261   9.678   0.681  10.043  0.0525 -0.0241 -0.0670
  392loPI   GL2 6262   9.724   1.019  10.015 -0.2204  0.0341 -0.2491
  392loPI   C1A 6263   9.644   0.783   9.560 -0.1289  0.2038 -0.2171
  392loPI   C2A 6264   9.573   0.719   9.103 -0.0963 -0.0126 -0.0887
  392loPI   C3A 6265   9.563   0.629   8.714 -0.2270  0.0807  0.0638
  392loPI   C4A 6266   9.510   0.442   8.259  0.0105 -0.0489  0.1041
  392loPI   C5A 6267   9.042   0.328   8.095 -0.2243  0.0353 -0.0334
  392loPI   C6A 6268   8.916   0.131   7.818 -0.4629  0.0458 -0.1250
  392loPI   C1B 6269   9.792   1.304   9.682  0.0660  0.1282  0.0342
  392loPI   C2B 6270   9.704   1.199   9.245  0.0434  0.2327  0.2184
  392loPI   C3B 6271   9.639   1.200   8.690  0.3042 -0.1540 -0.3555
  392loPI   C4B 6272   9.578   0.993   8.385 -0.2216  0.1409  0.1329
  393loPI    C1 6273  14.614   1.946  10.816  0.0533  0.1898 -0.2644
  393loPI    C2 6274  14.813   1.920  11.161  0.1707  0.3190 -0.3215
  393loPI    C3 6275  14.493   2.157  11.133 -0.0576  0.0319 -0.2001
  393loPI   PO4 6276  14.766   1.905  10.666 -0.0646 -0.2202 -0.0502
  393loPI   GL1 6277  14.907   1.766  10.235  0.3302 -0.2202 -0.3032
  393loPI   GL2 6278  15.024   1.508  10.071  0.0994 -0.1396  0.1996
  393loPI   C1A 6279  14.679   1.978   9.874 -0.1017 -0.1737  0.0715
  393loPI   C2A 6280  14.841   1.991   9.405 -0.0624  0.1025  0.1637
  393loPI   C3A 6281  15.018   1.951   9.042  0.0036 -0.1969 -0.0332
  393loPI   C4A 6282  15.119   2.044   8.599  0.3915  0.0651  0.1247
  393loPI   C5A 6283  15.064   2.099   8.254  0.0760 -0.1392  0.3219
  393loPI   C6A 6284  14.902   2.093   7.768  0.1820 -0.2944  0.0699
  393loPI   C1B 6285  14.981   1.563   9.587 -0.3458 -0.1748 -0.1606
  393loPI   C2B 6286  14.950   1.499   9.147 -0.1575  0.0401  0.0419
  393loPI   C3B 6287  14.933   1.434   8.733 -0.1018 -0.0197 -0.1495
  393loPI   C4B 6288  14.883   1.640   8.301  0.0966 -0.2818 -0.2574
  394loPI    C1 6289   7.178   1.570  11.219 -0.2401 -0.4613  0.1179
  394loPI    C2 6290   6.857   1.798  11.289  0.0956  0.0980 -0.1015
  394loPI    C3 6291   7.071   1.654  11.595 -0.1567  0.0180  0.0401
  394loPI   PO4 6292   7.096   1.421  10.968  0.2729 -0.3358 -0.0252
  394loPI   GL1 6293   6.871   1.285  10.576  0.0725 -0.0358  0.0820
  394loPI   GL2 6294   6.599   1.113  10.595 -0.0386  0.1312 -0.1164
  394loPI   C1A 6295   6.929   0.895  10.333 -0.0018 -0.0348  0.0865
  394loPI   C2A 6296   6.872   0.751   9.958  0.0967 -0.0972  0.2067
  394loPI   C3A 6297   6.891   0.819   9.449 -0.1396 -0.3647 -0.1679
  394loPI   C4A 6298   6.822   0.664   8.946 -0.3403 -0.2723 -0.1972
  394loPI   C5A 6299   6.674   0.934   8.589 -0.0081  0.1868 -0.3526
  394loPI   C6A 6300   6.711   1.183   8.279 -0.3602  0.1557 -0.2079
  394loPI   C1B 6301   6.521   1.223  10.183 -0.2729  0.1740 -0.0903
  394loPI   C2B 6302   6.499   1.180   9.715  0.1231  0.4481  0.2726
  394loPI   C3B 6303   6.544   1.163   9.373 -0.0037 -0.0771  0.1111
  394loPI   C4B 6304   6.390   1.161   8.963  0.2265  0.1214 -0.0479
  395loPI    C1 6305   1.115   1.496  11.003 -0.0513 -0.1218 -0.1278
  395loPI    C2 6306   0.777   1.375  11.179 -0.1233  0.2770  0.0177
  395loPI    C3 6307   1.086   1.124  11.147 -0.3858 -0.0510 -0.0020
  395loPI   PO4 6308   1.091   1.624  10.781  0.1116  0.2222  0.1000
  395loPI   GL1 6309   1.442   1.582  10.519 -0.3182  0.1922 -0.0500
  395loPI   GL2 6310   1.079   1.389  10.363  0.0138 -0.2808 -0.1082
  395loPI   C1A 6311   1.406   1.592  10.101 -0.2424 -0.1559 -0.5463
  395loPI   C2A 6312   1.421   1.574   9.730 -0.1275 -0.0793 -0.1125
  395loPI   C3A 6313   1.459   1.693   9.311 -0.2001  0.1137 -0.1206
  395loPI   C4A 6314   1.372   1.531   8.884 -0.1771  0.2986  0.3093
  395loPI   C5A 6315   1.608   1.579   8.535 -0.1904 -0.0323  0.1609
  395loPI   C6A 6316   1.608   1.197   8.183  0.1010  0.0770  0.2590
  395loPI   C1B 6317   0.947   1.351   9.968 -0.0095  0.0759  0.1813
  395loPI   C2B 6318   0.932   1.478   9.494  0.2013 -0.0077 -0.3320
  395loPI   C3B 6319   0.838   1.326   9.059  0.0109 -0.0608  0.1070
  395loPI   C4B 6320   0.855   1.340   8.672  0.1423  0.1144  0.0145
  396loPI    C1 6321  17.441  11.922  10.866  0.3587 -0.0675 -0.0107
  396loPI    C2 6322  17.382  11.596  10.642  0.1749 -0.1503  0.1552
  396loPI    C3 6323  17.476  11.559  11.028  0.0537 -0.0066  0.1996
  396loPI   PO4 6324  17.518  12.128  10.631  0.0960  0.1650 -0.0459
  396loPI   GL1 6325  17.504  12.387  10.366  0.1936  0.0521 -0.2487
  396loPI   GL2 6326  17.405  12.632  10.479  0.0220 -0.0009 -0.1212
  396loPI   C1A 6327  17.446  12.352   9.938  0.0427  0.0811 -0.0804
  396loPI   C2A 6328  17.399  12.335   9.546 -0.3160  0.1061  0.4854
  396loPI   C3A 6329  17.396  12.457   9.047  0.4355  0.0939  0.0436
  396loPI   C4A 6330  17.517  12.359   8.644  0.0656 -0.0232 -0.0337
  396loPI   C5A 6331  17.687  12.491   8.186  0.1664 -0.0678  0.1910
  396loPI   C6A 6332  18.094  12.436   7.999  0.2669 -0.1059 -0.4125
  396loPI   C1B 6333  17.098  12.740  10.074  0.2932 -0.3087  0.2936
  396loPI   C2B 6334  17.148  12.853   9.569  0.4109  0.0004  0.0353
  396loPI   C3B 6335  17.017  12.753   9.197  0.0538  0.0184 -0.2073
  396loPI   C4B 6336  17.000  12.776   8.713  0.0646 -0.0321 -0.0756
  397loPI    C1 6337  11.951  12.257  11.006 -0.0776  0.1609 -0.1338
  397loPI    C2 6338  11.648  12.391  11.231  0.2355  0.3025  0.2138
  397loPI    C3 6339  11.748  12.003  11.239 -0.2373  0.1571 -0.2744
  397loPI   PO4 6340  11.995  12.334  10.713  0.0230 -0.1535  0.0076
  397loPI   GL1 6341  11.980  12.073  10.350  0.0637  0.1811  0.0773
  397loPI   GL2 6342  12.228  11.870  10.245 -0.4759  0.0183  0.1909
  397loPI   C1A 6343  12.230  12.228   9.952  0.1664 -0.0166  0.0745
  397loPI   C2A 6344  12.285  12.208   9.480 -0.0132 -0.3222 -0.4052
  397loPI   C3A 6345  12.239  12.174   9.028  0.1811 -0.1136 -0.2936
  397loPI   C4A 6346  12.498  12.143   8.712 -0.0064  0.0023  0.1718
  397loPI   C5A 6347  12.653  12.137   8.292  0.0684 -0.2152 -0.0640
  397loPI   C6A 6348  12.495  11.793   8.104 -0.0592 -0.1689  0.0180
  397loPI   C1B 6349  12.130  11.660   9.874  0.1116  0.3446  0.4468
  397loPI   C2B 6350  12.151  11.684   9.482 -0.2784  0.1342  0.0223
  397loPI   C3B 6351  12.280  11.616   9.110  0.3905  0.0597 -0.0106
  397loPI   C4B 6352  12.282  11.712   8.736  0.1136  0.0292  0.0837
  398loPI    C1 6353   4.772   9.152  10.872  0.1388  0.0912  0.2734
  398loPI    C2 6354   5.018   8.998  10.596  0.1732 -0.0335  0.3728
  398loPI    C3 6355   5.070   9.373  10.724 -0.1003  0.1744 -0.0990
  398loPI   PO4 6356   4.559   9.059  10.799 -0.1299 -0.0084 -0.0530
  398loPI   GL1 6357   4.607   8.721  10.511  0.1094 -0.5189  0.1301
  398loPI   GL2 6358   4.270   8.632  10.471  0.1752 -0.0624 -0.3776
  398loPI   C1A 6359   4.834   8.853  10.091  0.0237 -0.0148 -0.2016
  398loPI   C2A 6360   5.028   8.993   9.716 -0.1941  0.0560  0.3552
  398loPI   C3A 6361   4.974   8.961   9.241  0.0558 -0.1626 -0.0472
  398loPI   C4A 6362   4.941   8.921   8.849 -0.1284  0.1548 -0.1396
  398loPI   C5A 6363   4.925   9.007   8.547  0.0555  0.0506  0.3028
  398loPI   C6A 6364   4.951   8.744   8.168  0.0583 -0.1379  0.2426
  398loPI   C1B 6365   4.366   8.610  10.034 -0.1314 -0.2661  0.0577
  398loPI   C2B 6366   4.537   8.844   9.658  0.0893 -0.1522  0.2666
  398loPI   C3B 6367   4.451   8.867   9.195  0.0871 -0.1862  0.0698
  398loPI   C4B 6368   4.487   8.775   8.684  0.0414  0.2037 -0.0675
  399loPI    C1 6369   4.770   9.845  11.220  0.3340  0.1555  0.2423
  399loPI    C2 6370   4.401   9.849  11.375  0.1970 -0.0221 -0.0684
  399loPI    C3 6371   4.699   9.669  11.572  0.0524 -0.1428  0.0429
  399loPI   PO4 6372   4.698   9.731  10.855 -0.0332 -0.0425  0.3029
  399loPI   GL1 6373   4.502   9.510  10.487 -0.2009  0.1330 -0.1709
  399loPI   GL2 6374   4.522   9.188  10.295  0.0728 -0.0535 -0.1087
  399loPI   C1A 6375   4.634   9.764  10.063 -0.3598 -0.1669  0.2308
  399loPI   C2A 6376   4.742   9.804   9.587 -0.0328 -0.1362  0.2628
  399loPI   C3A 6377   4.716   9.808   9.135 -0.0100 -0.1794  0.0531
  399loPI   C4A 6378   4.647   9.951   8.707  0.0788  0.0813  0.2763
  399loPI   C5A 6379   4.809   9.863   8.264 -0.0782  0.3642 -0.1758
  399loPI   C6A 6380   4.746   9.578   7.933 -0.2272  0.0702 -0.0278
  399loPI   C1B 6381   4.652   9.284   9.912  0.1581  0.0611 -0.0036
  399loPI   C2B 6382   4.639   9.340   9.412 -0.0620  0.0789  0.3009
  399loPI   C3B 6383   4.585   9.298   8.932  0.0219  0.1116  0.4033
  399loPI   C4B 6384   4.643   9.402   8.514 -0.1982  0.1545  0.2224
  400loPI    C1 6385   3.728   6.069  11.190 -0.0822  0.2800  0.1542
  400loPI    C2 6386   3.935   5.800  11.402  0.0640  0.1273 -0.1746
  400loPI    C3 6387   3.823   6.145  11.571  0.2774  0.0597  0.1138
  400loPI   PO4 6388   3.727   5.981  10.950  0.1947  0.3837 -0.3853
  400loPI   GL1 6389   3.706   5.783  10.546  0.0175 -0.1632 -0.2929
  400loPI   GL2 6390   3.469   5.965  10.521 -0.1078  0.3899 -0.2237
  400loPI   C1A 6391   3.937   5.573  10.139  0.1249  0.0560  0.1513
  400loPI   C2A 6392   3.867   5.637   9.653 -0.0741 -0.0092 -0.2072
  400loPI   C3A 6393   3.721   5.560   9.306  0.0606 -0.3187 -0.0250
  400loPI   C4A 6394   3.708   5.648   8.917  0.1195  0.2164  0.1929
  400loPI   C5A 6395   3.847   5.652   8.433  0.0927  0.2222  0.1288
  400loPI   C6A 6396   3.681   5.390   8.089 -0.2235  0.0485  0.1645
  400loPI   C1B 6397   3.514   6.005  10.130  0.0706 -0.3327  0.0954
  400loPI   C2B 6398   3.430   5.920   9.702 -0.2092 -0.3908  0.1879
  400loPI   C3B 6399   3.423   6.054   9.266 -0.0801  0.1043 -0.1134
  400loPI   C4B 6400   3.342   6.043   8.970 -0.0197  0.0450  0.1919
  401loPI    C1 6401  13.718   4.060  10.466  0.0564  0.1376  0.0074
  401loPI    C2 6402  13.515   3.930  10.785  0.2760  0.2111  0.1794
  401loPI    C3 6403  13.744   4.256  10.814  0.1736  0.3098 -0.0973
  401loPI   PO4 6404  13.558   3.887  10.294  0.0212 -0.1809 -0.0781
  401loPI   GL1 6405  13.495   3.725   9.895 -0.2583  0.1750  0.0492
  401loPI   GL2 6406  13.855   3.664   9.863  0.3767 -0.1302  0.0114
  401loPI   C1A 6407  13.595   3.418   9.516 -0.1905 -0.0658  0.1246
  401loPI   C2A 6408  13.747   3.402   9.112  0.5781 -0.2843 -0.1610
  401loPI   C3A 6409  13.603   3.445   8.716 -0.0805  0.0990  0.0502
  401loPI   C4A 6410  13.362   3.765   8.588  0.1794 -0.0775 -0.3635
  401loPI   C5A 6411  12.935   3.824   8.661 -0.1137 -0.2807  0.1611
  401loPI   C6A 6412  12.543   3.649   8.920  0.0358  0.5133  0.3833
  401loPI   C1B 6413  13.916   3.781   9.428 -0.0591 -0.0024  0.1196
  401loPI   C2B 6414  14.058   3.730   8.960  0.2181  0.2567 -0.0156
  401loPI   C3B 6415  14.084   3.525   8.601  0.0410  0.0877  0.0074
  401loPI   C4B 6416  13.894   3.547   8.252  0.1148  0.0404  0.0115
  402loPI    C1 6417   3.444  16.781  11.214 -0.2684  0.2935  0.2032
  402loPI    C2 6418   3.404  16.853  11.605  0.0065  0.1530  0.2597
  402loPI    C3 6419   3.733  16.973  11.413 -0.0755  0.1181  0.0960
  402loPI   PO4 6420   3.249  16.751  11.098  0.0593  0.4357 -0.0316
  402loPI   GL1 6421   3.193  16.803  10.668 -0.0630  0.0464  0.1086
  402loPI   GL2 6422   2.991  16.500  10.687  0.0014  0.0732  0.0286
  402loPI   C1A 6423   3.196  16.864  10.212 -0.0137  0.1794  0.1583
  402loPI   C2A 6424   3.222  16.948   9.800  0.1488  0.0546  0.0798
  402loPI   C3A 6425   3.064  16.870   9.444 -0.0996  0.1947 -0.0436
  402loPI   C4A 6426   3.061  16.903   9.040  0.0193 -0.2211 -0.2082
  402loPI   C5A 6427   3.189  17.000   8.609  0.0966 -0.0523 -0.2493
  402loPI   C6A 6428   3.308  16.749   8.253 -0.3782  0.1232 -0.3810
  402loPI   C1B 6429   2.971  16.368  10.262  0.3439  0.2104 -0.2553
  402loPI   C2B 6430   3.005  16.470   9.853  0.2833  0.1073  0.4011
  402loPI   C3B 6431   3.070  16.303   9.418  0.1522  0.1744  0.0933
  402loPI   C4B 6432   2.921  16.464   9.033 -0.0746  0.1875 -0.1304
  403loPI    C1 6433   5.895  15.085  11.100  0.0086  0.2344  0.1958
  403loPI    C2 6434   6.057  14.813  11.344  0.1825  0.1251 -0.0371
  403loPI    C3 6435   5.668  14.904  11.376  0.1493 -0.0634  0.1201
  403loPI   PO4 6436   5.881  14.956  10.826 -0.0864  0.0330  0.0980
  403loPI   GL1 6437   5.939  15.108  10.495  0.0799  0.0168 -0.1834
  403loPI   GL2 6438   5.700  15.311  10.410  0.0207  0.1869 -0.1519
  403loPI   C1A 6439   5.976  15.029  10.046 -0.1694  0.0493  0.0581
  403loPI   C2A 6440   5.866  14.923   9.781 -0.1351 -0.0773 -0.1520
  403loPI   C3A 6441   5.904  14.967   9.397 -0.3393 -0.3412  0.0812
  403loPI   C4A 6442   5.877  14.901   8.965  0.1331 -0.3491  0.2181
  403loPI   C5A 6443   6.021  14.705   8.662  0.1502  0.1338 -0.0988
  403loPI   C6A 6444   6.376  14.944   8.553  0.0238  0.0535 -0.4372
  403loPI   C1B 6445   5.596  15.366   9.996  0.1355  0.1418  0.3111
  403loPI   C2B 6446   5.494  15.284   9.538 -0.1779 -0.2657 -0.3608
  403loPI   C3B 6447   5.482  15.296   9.038 -0.1731 -0.2022  0.1231
  403loPI   C4B 6448   5.393  15.325   8.559 -0.1540 -0.2999  0.0615
  404loPI    C1 6449  14.927   6.039  10.864  0.0695 -0.2392 -0.0992
  404loPI    C2 6450  14.546   5.936  10.930  0.0699 -0.1562  0.0378
  404loPI    C3 6451  14.832   5.824  11.187  0.0861  0.0864  0.1281
  404loPI   PO4 6452  14.924   6.108  10.626  0.1976  0.3068 -0.3488
  404loPI   GL1 6453  15.044   6.073  10.270  0.0590 -0.0529  0.1220
  404loPI   GL2 6454  15.199   6.430  10.446 -0.0456  0.3064  0.2923
  404loPI   C1A 6455  14.944   5.821   9.868 -0.0712 -0.1018  0.0404
  404loPI   C2A 6456  15.025   5.927   9.440 -0.2756  0.0051  0.2477
  404loPI   C3A 6457  15.070   5.892   8.989 -0.0736  0.0116 -0.0689
  404loPI   C4A 6458  15.135   5.987   8.529 -0.0768  0.2520 -0.0787
  404loPI   C5A 6459  15.371   5.935   8.018 -0.1395 -0.4392  0.3134
  404loPI   C6A 6460  15.350   5.855   7.599 -0.0798 -0.2106  0.0742
  404loPI   C1B 6461  15.222   6.477  10.022  0.0479  0.1344 -0.0242
  404loPI   C2B 6462  15.137   6.495   9.559 -0.0386  0.1141  0.4539
  404loPI   C3B 6463  15.113   6.437   9.124  0.0060  0.0825  0.1158
  404loPI   C4B 6464  15.334   6.448   8.679  0.0309 -0.3241 -0.2116
  405loPI    C1 6465  11.424  15.638  11.066  0.2312 -0.0096 -0.2365
  405loPI    C2 6466  11.602  15.836  11.364 -0.0421 -0.0514 -0.0411
  405loPI    C3 6467  11.338  15.547  11.446  0.0156 -0.1878 -0.3254
  405loPI   PO4 6468  11.604  15.550  10.873 -0.3067  0.0633 -0.0033
  405loPI   GL1 6469  11.610  15.726  10.477 -0.0389  0.4004 -0.0160
  405loPI   GL2 6470  11.341  15.939  10.603 -0.1335 -0.0559 -0.0354
  405loPI   C1A 6471  11.739  15.822  10.072 -0.1399 -0.0609  0.3298
  405loPI   C2A 6472  11.656  15.856   9.640 -0.2346 -0.0193 -0.3301
  405loPI   C3A 6473  11.733  15.801   9.182  0.0950  0.1758 -0.1778
  405loPI   C4A 6474  11.638  15.768   8.741 -0.1292  0.1810 -0.0517
  405loPI   C5A 6475  11.488  15.903   8.271  0.1140 -0.0766 -0.3618
  405loPI   C6A 6476  11.661  16.208   7.934 -0.0190  0.1965 -0.0989
  405loPI   C1B 6477  11.208  15.716  10.240  0.3334 -0.1727  0.1805
  405loPI   C2B 6478  11.228  15.686   9.782 -0.0185 -0.2664  0.0174
  405loPI   C3B 6479  11.192  15.635   9.341 -0.1157  0.2534  0.1506
  405loPI   C4B 6480  11.175  15.635   8.907 -0.1243 -0.1576  0.0568
  406loPI    C1 6481   2.584   8.566  10.922 -0.0569 -0.0853 -0.0990
  406loPI    C2 6482   2.553   8.204  11.088 -0.1325 -0.0502 -0.0363
  406loPI    C3 6483   2.570   8.529  11.320  0.0931 -0.0242 -0.0873
  406loPI   PO4 6484   2.646   8.547  10.739 -0.3072  0.1677 -0.3737
  406loPI   GL1 6485   2.588   8.392  10.330 -0.1100 -0.1415  0.0708
  406loPI   GL2 6486   2.400   8.141  10.163 -0.3759  0.0470  0.1436
  406loPI   C1A 6487   2.502   8.561   9.882 -0.3664 -0.0584  0.0485
  406loPI   C2A 6488   2.478   8.675   9.462 -0.1474  0.3629  0.0675
  406loPI   C3A 6489   2.642   8.740   9.029  0.2233  0.2710  0.0349
  406loPI   C4A 6490   2.579   8.672   8.643  0.1613 -0.1925 -0.0979
  406loPI   C5A 6491   2.621   8.746   8.215  0.0593 -0.0753 -0.1096
  406loPI   C6A 6492   2.302   8.948   8.033 -0.1051 -0.1041 -0.0262
  406loPI   C1B 6493   2.396   7.974   9.801 -0.2384 -0.0641 -0.1256
  406loPI   C2B 6494   2.437   8.149   9.354  0.2554 -0.2419 -0.1426
  406loPI   C3B 6495   2.514   8.194   8.870 -0.1942 -0.1019  0.1659
  406loPI   C4B 6496   2.535   8.229   8.454  0.1903  0.1979 -0.0998
  407loPI    C1 6497  10.699   0.212  10.960  0.0284  0.0593  0.0846
  407loPI    C2 6498  10.729  -0.140  11.147  0.0688  0.0428  0.0474
  407loPI    C3 6499  10.859   0.193  11.326  0.1919  0.0141  0.0116
  407loPI   PO4 6500  10.806   0.164  10.719  0.0701 -0.1736 -0.2043
  407loPI   GL1 6501  10.695  -0.010  10.236 -0.0855 -0.2917 -0.2308
  407loPI   GL2 6502  10.382  -0.187  10.159 -0.0600  0.3129  0.0271
  407loPI   C1A 6503  10.907  -0.052   9.917 -0.1037 -0.2560  0.1243
  407loPI   C2A 6504  11.197  -0.170   9.619  0.0472  0.0257 -0.1101
  407loPI   C3A 6505  11.302  -0.247   9.302  0.2308 -0.0152  0.1303
  407loPI   C4A 6506  11.188  -0.212   8.825  0.0480  0.0805  0.1526
  407loPI   C5A 6507  11.138  -0.271   8.430  0.0782  0.2201  0.0333
  407loPI   C6A 6508  11.151  -0.436   8.090 -0.1968 -0.1114 -0.1080
  407loPI   C1B 6509  10.222  -0.355   9.831 -0.0592 -0.0348  0.0527
  407loPI   C2B 6510  10.192  -0.497   9.496  0.4324 -0.2190 -0.1031
  407loPI   C3B 6511  10.179  -0.476   9.055  0.1706 -0.1592 -0.3426
  407loPI   C4B 6512  10.144  -0.534   8.650  0.0028  0.0980 -0.0439
  408loPI    C1 6513   6.729   2.837  11.192 -0.3355 -0.2333  0.2238
  408loPI    C2 6514   6.600   3.174  11.366 -0.2096 -0.0495 -0.0326
  408loPI    C3 6515   6.876   2.949  11.547 -0.0242  0.1796 -0.0269
  408loPI   PO4 6516   6.686   2.847  11.011 -0.2467 -0.1513 -0.2804
  408loPI   GL1 6517   6.722   2.879  10.592 -0.1596  0.0843 -0.1110
  408loPI   GL2 6518   6.732   3.107  10.405 -0.3960 -0.0628 -0.2430
  408loPI   C1A 6519   6.789   2.617  10.215 -0.4259 -0.1519  0.3123
  408loPI   C2A 6520   6.771   2.637   9.760 -0.3006  0.1771  0.0257
  408loPI   C3A 6521   6.726   2.731   9.369 -0.1233  0.3185  0.2462
  408loPI   C4A 6522   6.804   2.755   8.951 -0.0739  0.0880 -0.1135
  408loPI   C5A 6523   6.743   2.629   8.566 -0.5822 -0.3097 -0.1107
  408loPI   C6A 6524   6.982   2.337   8.269  0.2248  0.2196  0.0030
  408loPI   C1B 6525   6.810   3.153   9.947 -0.1954  0.1819 -0.1706
  408loPI   C2B 6526   6.888   3.291   9.596  0.1420 -0.1954 -0.0998
  408loPI   C3B 6527   6.882   3.251   9.178 -0.3203  0.0926 -0.1289
  408loPI   C4B 6528   6.891   3.199   8.697 -0.1103 -0.0689 -0.1811
  409loPI    C1 6529   9.381   8.510  10.933  0.0471 -0.0669  0.0756
  409loPI    C2 6530   9.709   8.655  11.110  0.2244 -0.2876 -0.0657
  409loPI    C3 6531   9.550   8.310  11.235 -0.1522 -0.0201  0.2200
  409loPI   PO4 6532   9.332   8.726  10.749  0.0431  0.1415  0.0904
  409loPI   GL1 6533   9.437   8.910  10.388 -0.4378 -0.0303  0.1147
  409loPI   GL2 6534   9.116   8.827  10.245  0.1742  0.0281 -0.0099
  409loPI   C1A 6535   9.673   9.028  10.034  0.0553  0.2004  0.0832
  409loPI   C2A 6536   9.645   8.952   9.669  0.0517  0.0526 -0.1683
  409loPI   C3A 6537   9.662   8.882   9.250 -0.1336  0.0261  0.2118
  409loPI   C4A 6538   9.666   8.910   8.781 -0.1328 -0.1151  0.3181
  409loPI   C5A 6539   9.767   9.004   8.412 -0.1896 -0.0258 -0.1012
  409loPI   C6A 6540  10.085   9.057   8.139  0.0799 -0.0275 -0.0389
  409loPI   C1B 6541   9.199   8.662   9.882  0.3424 -0.2058 -0.0432
  409loPI   C2B 6542   9.128   8.824   9.445  0.3925  0.0314  0.0103
  409loPI   C3B 6543   9.242   8.882   8.943  0.3807  0.0476 -0.0616
  409loPI   C4B 6544   9.290   9.058   8.428 -0.1603  0.1673  0.0347
  410loPI    C1 6545   4.683  13.618  11.334  0.0238  0.0401  0.1079
  410loPI    C2 6546   4.590  13.254  11.196 -0.1654  0.0828  0.1185
  410loPI    C3 6547   4.310  13.477  11.374 -0.0575  0.2457  0.0860
  410loPI   PO4 6548   4.740  13.772  11.063 -0.3343  0.1289 -0.0784
  410loPI   GL1 6549   4.734  13.741  10.626 -0.1787  0.0169 -0.0295
  410loPI   GL2 6550   4.826  14.061  10.559  0.1346  0.1016  0.1273
  410loPI   C1A 6551   4.625  13.562  10.130 -0.2302 -0.3328 -0.1010
  410loPI   C2A 6552   4.646  13.659   9.703 -0.3613  0.0007  0.0223
  410loPI   C3A 6553   4.698  13.639   9.361  0.2009  0.1950  0.0569
  410loPI   C4A 6554   4.594  13.703   8.986 -0.0867  0.0520 -0.0586
  410loPI   C5A 6555   4.652  13.705   8.512 -0.0735  0.0463 -0.0859
  410loPI   C6A 6556   4.706  14.003   8.203 -0.2469  0.0064 -0.2871
  410loPI   C1B 6557   4.826  14.171  10.121  0.3023 -0.2427 -0.1126
  410loPI   C2B 6558   4.817  14.132   9.705  0.2216 -0.0642 -0.0971
  410loPI   C3B 6559   4.741  14.100   9.190 -0.1585 -0.3618  0.2301
  410loPI   C4B 6560   4.633  14.122   8.729  0.0715  0.0698  0.1719
  411loPI    C1 6561   7.846   5.821  10.727  0.1478 -0.0808 -0.2409
  411loPI    C2 6562   8.215   5.666  10.732  0.1465 -0.0807 -0.1262
  411loPI    C3 6563   8.020   5.731  11.075  0.0724 -0.0028 -0.1826
  411loPI   PO4 6564   7.802   5.822  10.429 -0.0722 -0.1870  0.0071
  411loPI   GL1 6565   7.486   5.980  10.159 -0.0466 -0.4591 -0.3427
  411loPI   GL2 6566   7.411   5.574  10.166 -0.1159 -0.1164 -0.0631
  411loPI   C1A 6567   7.551   5.912   9.742 -0.3456  0.1046  0.2229
  411loPI   C2A 6568   7.505   5.937   9.307  0.0331  0.4887 -0.2111
  411loPI   C3A 6569   7.415   5.945   8.823 -0.0195  0.0534  0.0733
  411loPI   C4A 6570   7.563   5.869   8.408  0.4911 -0.1644  0.1471
  411loPI   C5A 6571   7.514   5.629   8.109 -0.2538 -0.0768  0.1452
  411loPI   C6A 6572   7.475   5.466   7.686  0.0066  0.0281 -0.0408
  411loPI   C1B 6573   7.508   5.384   9.806  0.1572 -0.0888 -0.0996
  411loPI   C2B 6574   7.349   5.459   9.387 -0.1821  0.0608 -0.0138
  411loPI   C3B 6575   7.316   5.374   8.948  0.1305 -0.0240 -0.0202
  411loPI   C4B 6576   7.337   5.372   8.502 -0.1918 -0.0610 -0.0782
  412loPI    C1 6577   7.580  15.368  10.906 -0.1884 -0.0468 -0.3091
  412loPI    C2 6578   7.766  15.585  11.186  0.0500 -0.0725 -0.4447
  412loPI    C3 6579   7.387  15.468  11.242  0.0507  0.0384 -0.1951
  412loPI   PO4 6580   7.622  15.485  10.696 -0.0294  0.2685  0.1792
  412loPI   GL1 6581   7.872  15.523  10.331  0.0413 -0.1017  0.2637
  412loPI   GL2 6582   7.527  15.421  10.229  0.2509 -0.2126 -0.0418
  412loPI   C1A 6583   7.908  15.608   9.907 -0.1440 -0.1626 -0.1829
  412loPI   C2A 6584   7.889  15.619   9.402  0.0083 -0.1316  0.0193
  412loPI   C3A 6585   7.818  15.544   8.973  0.1625  0.0931  0.1248
  412loPI   C4A 6586   7.959  15.311   8.610 -0.1567 -0.3382  0.1994
  412loPI   C5A 6587   7.901  15.088   8.240  0.2644 -0.2806  0.0225
  412loPI   C6A 6588   7.674  14.863   7.869 -0.0142 -0.0665 -0.0791
  412loPI   C1B 6589   7.393  15.474   9.707  0.2517 -0.0339  0.1141
  412loPI   C2B 6590   7.404  15.473   9.292 -0.1136  0.2453  0.1921
  412loPI   C3B 6591   7.305  15.487   8.878  0.2648  0.5341  0.1196
  412loPI   C4B 6592   7.472  15.381   8.449 -0.1138  0.2701  0.2104
  413loPI    C1 6593   5.215   2.050  11.205  0.0801  0.0924  0.1309
  413loPI    C2 6594   4.857   2.178  11.329 -0.1570 -0.1819 -0.2499
  413loPI    C3 6595   5.120   2.034  11.594 -0.2598  0.1715  0.0542
  413loPI   PO4 6596   5.178   1.983  10.920  0.2165  0.2954 -0.0728
  413loPI   GL1 6597   4.950   1.874  10.575  0.0561  0.0339 -0.1813
  413loPI   GL2 6598   4.912   2.024  10.298 -0.3075  0.0218  0.0071
  413loPI   C1A 6599   4.796   1.558  10.318 -0.2723 -0.0374  0.0831
  413loPI   C2A 6600   4.720   1.518   9.994 -0.0354  0.1373 -0.0608
  413loPI   C3A 6601   4.722   1.691   9.637 -0.0435 -0.1364  0.1235
  413loPI   C4A 6602   4.657   1.613   9.215 -0.0547  0.2489  0.0231
  413loPI   C5A 6603   4.760   1.474   8.823 -0.1612 -0.2944 -0.1467
  413loPI   C6A 6604   4.655   1.368   8.478 -0.1386  0.2040  0.0652
  413loPI   C1B 6605   4.844   2.082   9.954 -0.1249 -0.0247  0.3068
  413loPI   C2B 6606   4.876   2.220   9.530 -0.3056  0.2729 -0.0840
  413loPI   C3B 6607   4.826   2.067   9.096 -0.1443  0.0999 -0.1940
  413loPI   C4B 6608   4.911   1.946   8.649  0.0720 -0.2162  0.1792
  414loPI    C1 6609   9.145  11.678  10.750 -0.0016 -0.0876  0.0597
  414loPI    C2 6610   9.280  12.005  10.937 -0.0061 -0.1924  0.2479
  414loPI    C3 6611   9.056  11.739  11.135 -0.0672 -0.2710  0.0742
  414loPI   PO4 6612   9.188  11.766  10.508  0.1504  0.1084 -0.3166
  414loPI   GL1 6613   9.140  11.659  10.143  0.1503 -0.1871 -0.0120
  414loPI   GL2 6614   9.398  11.793  10.031  0.1866  0.2384  0.1242
  414loPI   C1A 6615   8.871  11.709   9.729  0.1672 -0.0669 -0.0571
  414loPI   C2A 6616   8.782  11.632   9.253 -0.1315 -0.1887 -0.0285
  414loPI   C3A 6617   9.033  11.559   8.918  0.1864  0.0263  0.3141
  414loPI   C4A 6618   8.853  11.464   8.474  0.1557  0.1031  0.0381
  414loPI   C5A 6619   8.874  11.649   8.087  0.1872  0.0256 -0.3587
  414loPI   C6A 6620   9.245  11.548   7.829  0.1812 -0.2730 -0.2796
  414loPI   C1B 6621   9.410  11.785   9.605 -0.1182  0.3786 -0.1018
  414loPI   C2B 6622   9.435  11.786   9.092 -0.2023 -0.0594 -0.0905
  414loPI   C3B 6623   9.330  11.860   8.613  0.1091  0.2535  0.0056
  414loPI   C4B 6624   9.346  11.850   8.206  0.2999 -0.0285 -0.0304
  415loPI    C1 6625   5.313   9.869  10.654  0.3502  0.0062 -0.3464
  415loPI    C2 6626   5.662   9.896  10.848  0.1319  0.0850  0.0472
  415loPI    C3 6627   5.342   9.744  11.033 -0.0627  0.0776 -0.2871
  415loPI   PO4 6628   5.416  10.180  10.485 -0.0101  0.2045  0.0226
  415loPI   GL1 6629   5.616  10.164  10.134 -0.0304 -0.0929  0.0426
  415loPI   GL2 6630   5.375  10.437  10.036 -0.0192  0.0778 -0.1512
  415loPI   C1A 6631   5.685  10.211   9.744  0.2319 -0.1771 -0.0258
  415loPI   C2A 6632   5.655  10.205   9.306  0.0725 -0.0966 -0.0381
  415loPI   C3A 6633   5.739  10.055   9.026 -0.1435 -0.1102 -0.0444
  415loPI   C4A 6634   5.742  10.127   8.591 -0.1521  0.0232  0.1878
  415loPI   C5A 6635   5.732  10.050   8.109 -0.2636  0.1920 -0.2801
  415loPI   C6A 6636   5.533  10.333   7.819  0.2744  0.0931  0.1152
  415loPI   C1B 6637   5.237  10.479   9.564 -0.0547 -0.0794 -0.1325
  415loPI   C2B 6638   5.237  10.516   9.146 -0.0862  0.1944 -0.2071
  415loPI   C3B 6639   5.342  10.539   8.774  0.1528 -0.1311 -0.0800
  415loPI   C4B 6640   5.304  10.460   8.355  0.1505  0.3512 -0.1000
  416loPI    C1 6641   7.171   8.385  10.921 -0.3489  0.0243  0.2094
  416loPI    C2 6642   7.301   8.730  11.077  0.0216 -0.0398  0.0542
  416loPI    C3 6643   7.496   8.389  11.155 -0.0842 -0.1475 -0.1441
  416loPI   PO4 6644   7.092   8.397  10.679  0.1109  0.0485  0.1578
  416loPI   GL1 6645   6.964   8.524  10.205 -0.2677  0.0877 -0.2707
  416loPI   GL2 6646   6.716   8.593  10.086 -0.0786 -0.2482  0.0947
  416loPI   C1A 6647   7.158   8.229   9.952  0.2788  0.0535  0.1710
  416loPI   C2A 6648   7.178   8.216   9.512 -0.2061 -0.1647 -0.1417
  416loPI   C3A 6649   7.195   8.173   9.042 -0.2381 -0.0763  0.1144
  416loPI   C4A 6650   7.186   8.190   8.658  0.0229 -0.1800  0.1045
  416loPI   C5A 6651   7.244   8.208   8.213 -0.1018 -0.0098  0.0205
  416loPI   C6A 6652   7.080   8.550   7.880  0.0123  0.0951 -0.1679
  416loPI   C1B 6653   6.791   8.520   9.683  0.5160 -0.0633  0.2802
  416loPI   C2B 6654   6.805   8.519   9.230  0.1700 -0.0923  0.4043
  416loPI   C3B 6655   6.767   8.555   8.719  0.0633 -0.2474 -0.0234
  416loPI   C4B 6656   6.772   8.517   8.238 -0.0931 -0.0727 -0.2614
  417loPI    C1 6657  15.567   5.594  10.955 -0.0323  0.1023 -0.1400
  417loPI    C2 6658  15.752   5.882  11.163  0.2312 -0.2261  0.0916
  417loPI    C3 6659  15.357   5.832  11.198  0.2308 -0.0923  0.2906
  417loPI   PO4 6660  15.775   5.617  10.688  0.2877 -0.1568  0.2019
  417loPI   GL1 6661  15.881   5.515  10.311  0.0619 -0.1208  0.0647
  417loPI   GL2 6662  15.711   5.295  10.249  0.0505  0.0465  0.4380
  417loPI   C1A 6663  15.825   5.714   9.964  0.2473 -0.3796  0.2147
  417loPI   C2A 6664  15.834   5.723   9.558  0.2723 -0.0270 -0.0035
  417loPI   C3A 6665  15.851   5.648   9.155 -0.2149 -0.4961  0.1038
  417loPI   C4A 6666  15.909   5.754   8.735  0.0702  0.0552  0.1282
  417loPI   C5A 6667  16.151   5.665   8.369 -0.2174 -0.1508  0.0359
  417loPI   C6A 6668  16.650   5.513   8.250 -0.0447 -0.0724  0.1001
  417loPI   C1B 6669  15.817   5.115   9.797 -0.1118  0.0524 -0.1830
  417loPI   C2B 6670  15.777   5.242   9.419  0.0772  0.0066  0.1374
  417loPI   C3B 6671  15.820   5.166   8.951 -0.0760 -0.0065  0.0229
  417loPI   C4B 6672  15.765   5.332   8.522  0.1985  0.0903  0.4644
  418loPI    C1 6673   3.150  15.231  11.428 -0.0620 -0.0430 -0.1285
  418loPI    C2 6674   2.832  15.229  11.671  0.1675  0.0897  0.1803
  418loPI    C3 6675   2.953  15.571  11.502  0.1916  0.0532  0.1230
  418loPI   PO4 6676   3.140  15.021  11.254 -0.0073  0.0029  0.1611
  418loPI   GL1 6677   3.348  15.025  10.789 -0.2001  0.3735 -0.0280
  418loPI   GL2 6678   3.149  14.756  10.635  0.1741  0.1127  0.1113
  418loPI   C1A 6679   3.186  15.125  10.289  0.1740 -0.3005  0.0088
  418loPI   C2A 6680   3.052  15.022   9.915  0.2301  0.1510 -0.2746
  418loPI   C3A 6681   3.164  15.005   9.512  0.2077 -0.0759  0.1337
  418loPI   C4A 6682   3.144  15.064   9.126 -0.3477  0.2536  0.3454
  418loPI   C5A 6683   3.200  15.220   8.641  0.0991 -0.1237 -0.1504
  418loPI   C6A 6684   2.858  14.981   8.639 -0.1308 -0.0262  0.1472
  418loPI   C1B 6685   3.070  14.604  10.207  0.1445  0.0786  0.0191
  418loPI   C2B 6686   2.938  14.514   9.791 -0.0224 -0.3279  0.1642
  418loPI   C3B 6687   2.997  14.496   9.378  0.1520 -0.1261 -0.2066
  418loPI   C4B 6688   2.982  14.611   8.923  0.0079  0.4323 -0.0239
  419loPI    C1 6689   6.573  16.599  10.909  0.0832  0.4135  0.1920
  419loPI    C2 6690   6.634  16.355  11.221 -0.2032 -0.1417 -0.1694
  419loPI    C3 6691   6.497  16.726  11.281  0.0455 -0.1289  0.3790
  419loPI   PO4 6692   6.506  16.422  10.730  0.1784 -0.2369  0.1088
  419loPI   GL1 6693   6.355  16.301  10.367 -0.3201  0.2059  0.3910
  419loPI   GL2 6694   6.183  16.508  10.333  0.1384 -0.2040 -0.0690
  419loPI   C1A 6695   6.171  16.044  10.045 -0.1193 -0.3884  0.2169
  419loPI   C2A 6696   6.087  15.930   9.629 -0.2848 -0.0979  0.1674
  419loPI   C3A 6697   6.119  15.996   9.191  0.0981  0.2221 -0.1408
  419loPI   C4A 6698   6.156  15.970   8.781 -0.0050 -0.0582  0.1861
  419loPI   C5A 6699   5.906  15.852   8.414 -0.0967 -0.3320  0.1924
  419loPI   C6A 6700   5.814  15.571   8.129  0.0129  0.5284  0.0874
  419loPI   C1B 6701   6.268  16.496   9.826  0.0894  0.0965  0.2258
  419loPI   C2B 6702   6.273  16.426   9.381  0.3577 -0.2386 -0.1244
  419loPI   C3B 6703   6.215  16.471   8.940  0.0615 -0.1711  0.1891
  419loPI   C4B 6704   6.353  16.470   8.489 -0.1959  0.0244 -0.0702
  420loPI    C1 6705   1.102  17.586  10.963 -0.1433  0.1297  0.1199
  420loPI    C2 6706   1.327  17.854  10.769 -0.0768 -0.0355 -0.0340
  420loPI    C3 6707   1.303  17.865  11.168  0.3363 -0.1155 -0.0028
  420loPI   PO4 6708   0.875  17.517  10.752 -0.1258 -0.1198 -0.2406
  420loPI   GL1 6709   0.755  17.443  10.413  0.1143 -0.4235 -0.0838
  420loPI   GL2 6710   0.378  17.239  10.268  0.0817 -0.2557  0.1925
  420loPI   C1A 6711   1.001  17.730  10.107 -0.1700  0.3929  0.0289
  420loPI   C2A 6712   0.936  17.821   9.773  0.0444  0.1029 -0.2854
  420loPI   C3A 6713   0.901  17.777   9.400 -0.0402 -0.1251  0.3074
  420loPI   C4A 6714   0.949  17.789   8.985 -0.2506 -0.2854  0.2225
  420loPI   C5A 6715   0.760  17.815   8.582 -0.3151 -0.0042 -0.3647
  420loPI   C6A 6716   0.629  17.817   8.202 -0.1623 -0.0181  0.0487
  420loPI   C1B 6717   0.402  17.018   9.922 -0.2536  0.2416  0.0883
  420loPI   C2B 6718   0.308  17.026   9.522 -0.0784  0.0235  0.0974
  420loPI   C3B 6719   0.268  17.055   9.038  0.2613 -0.1392 -0.0126
  420loPI   C4B 6720   0.304  17.109   8.597  0.0268 -0.0453  0.0201
  421loPI    C1 6721   2.565  14.090  11.053 -0.2157  0.2034  0.0153
  421loPI    C2 6722   2.263  13.857  11.173 -0.0610  0.0960  0.2014
  421loPI    C3 6723   2.636  13.711  11.160 -0.0168  0.2255 -0.0335
  421loPI   PO4 6724   2.445  14.190  10.768 -0.1113  0.0758 -0.1194
  421loPI   GL1 6725   2.411  14.346  10.379 -0.5284 -0.1705 -0.2668
  421loPI   GL2 6726   2.638  14.612  10.545 -0.0549 -0.0846  0.0607
  421loPI   C1A 6727   2.441  14.499   9.914  0.3723 -0.1437 -0.2114
  421loPI   C2A 6728   2.447  14.407   9.475  0.0112 -0.1057 -0.0156
  421loPI   C3A 6729   2.565  14.321   9.072 -0.3541 -0.0311 -0.3891
  421loPI   C4A 6730   2.649  14.394   8.647  0.0861 -0.1216  0.0193
  421loPI   C5A 6731   2.811  14.401   8.248 -0.2432  0.1013 -0.1786
  421loPI   C6A 6732   3.077  14.459   8.030 -0.2663 -0.1223 -0.0482
  421loPI   C1B 6733   2.653  14.948  10.315  0.0341 -0.0504  0.0282
  421loPI   C2B 6734   2.548  14.975   9.830  0.0433 -0.0298 -0.2676
  421loPI   C3B 6735   2.676  14.866   9.486 -0.0719 -0.1928  0.0118
  421loPI   C4B 6736   2.559  14.820   9.047  0.0207 -0.0681  0.0807
  422loPI    C1 6737   9.399  14.205  11.196 -0.1071 -0.0823 -0.1868
  422loPI    C2 6738   9.145  14.495  11.090  0.1244  0.0758 -0.3188
  422loPI    C3 6739   9.469  14.583  11.307 -0.0592 -0.1624  0.0625
  422loPI   PO4 6740   9.483  14.110  11.012 -0.3257 -0.0924  0.0231
  422loPI   GL1 6741   9.633  14.090  10.623  0.2331  0.2136  0.0148
  422loPI   GL2 6742   9.748  13.776  10.571 -0.1665  0.0104  0.0934
  422loPI   C1A 6743   9.449  14.159  10.271 -0.3146 -0.0826  0.0870
  422loPI   C2A 6744   9.512  14.193   9.924  0.1192  0.0389  0.0622
  422loPI   C3A 6745   9.451  14.250   9.531  0.1902  0.1437  0.1428
  422loPI   C4A 6746   9.379  14.153   9.047 -0.0842 -0.0157  0.2415
  422loPI   C5A 6747   9.440  14.054   8.629 -0.0696  0.0245 -0.2271
  422loPI   C6A 6748   9.768  13.857   8.499  0.1211  0.1396 -0.3935
  422loPI   C1B 6749   9.814  13.778  10.162  0.0975 -0.1959 -0.4265
  422loPI   C2B 6750   9.859  13.896   9.768 -0.0591 -0.0335  0.0162
  422loPI   C3B 6751   9.784  13.864   9.313 -0.1623 -0.2437  0.0712
  422loPI   C4B 6752   9.885  13.735   8.954  0.0275  0.3045  0.2128
  423loPI    C1 6753  10.507  15.266  11.074  0.1525 -0.3745 -0.2759
  423loPI    C2 6754  10.682  15.070  11.376 -0.0583  0.0084  0.1058
  423loPI    C3 6755  10.314  15.220  11.422 -0.0425  0.1848 -0.2997
  423loPI   PO4 6756  10.628  15.119  10.812  0.0348 -0.2824 -0.0044
  423loPI   GL1 6757  10.591  15.122  10.310  0.1310  0.2548 -0.1379
  423loPI   GL2 6758  10.679  15.364  10.410 -0.2843  0.4627 -0.3876
  423loPI   C1A 6759  10.626  15.000   9.905 -0.0755  0.2474 -0.0570
  423loPI   C2A 6760  10.563  14.925   9.446 -0.4705 -0.1079 -0.1397
  423loPI   C3A 6761  10.598  14.937   9.026 -0.0785 -0.0607  0.0840
  423loPI   C4A 6762  10.515  15.070   8.486 -0.0550  0.1323 -0.1100
  423loPI   C5A 6763  10.744  15.318   8.157  0.1313  0.0690 -0.0609
  423loPI   C6A 6764  10.973  15.448   7.874  0.4310 -0.0575 -0.2706
  423loPI   C1B 6765  10.720  15.551   9.960  0.1073 -0.1414  0.0414
  423loPI   C2B 6766  10.758  15.565   9.587  0.1561  0.1713  0.0728
  423loPI   C3B 6767  10.670  15.416   9.188 -0.2100 -0.2112 -0.0770
  423loPI   C4B 6768  10.643  15.500   8.849  0.0767 -0.4386 -0.3950
  424loPI    C1 6769  15.629   9.456  10.540 -0.0236  0.2087  0.0415
  424loPI    C2 6770  15.699   9.064  10.506 -0.1980  0.2056 -0.3257
  424loPI    C3 6771  15.945   9.293  10.723  0.1963 -0.0217 -0.5217
  424loPI   PO4 6772  15.360   9.423  10.496  0.1580 -0.1847  0.0860
  424loPI   GL1 6773  15.074   9.554  10.184  0.0385 -0.0450 -0.1942
  424loPI   GL2 6774  15.255   9.307  10.058 -0.1824 -0.2494  0.2068
  424loPI   C1A 6775  14.897   9.644   9.732  0.1758  0.0007 -0.0032
  424loPI   C2A 6776  15.032   9.610   9.331  0.1743  0.0055 -0.0356
  424loPI   C3A 6777  15.160   9.718   8.892  0.0972 -0.0908 -0.0673
  424loPI   C4A 6778  15.144   9.769   8.431 -0.0692  0.1520  0.3637
  424loPI   C5A 6779  15.060   9.763   8.005  0.1754  0.0810 -0.1606
  424loPI   C6A 6780  14.855   9.973   7.692  0.0190  0.0618  0.0505
  424loPI   C1B 6781  15.390   9.325   9.590  0.2720  0.3834 -0.0637
  424loPI   C2B 6782  15.444   9.315   9.165 -0.1243 -0.1515 -0.1780
  424loPI   C3B 6783  15.548   9.303   8.733  0.0252  0.1017 -0.0597
  424loPI   C4B 6784  15.710   9.215   8.271  0.2523  0.3195 -0.1504
  425loPI    C1 6785  10.086  11.861  10.892 -0.0356  0.0559 -0.3015
  425loPI    C2 6786  10.047  12.254  10.830  0.1724  0.1105 -0.0989
  425loPI    C3 6787   9.828  12.073  11.112  0.4268  0.1746  0.1439
  425loPI   PO4 6788  10.098  11.811  10.604  0.2331  0.0203 -0.1255
  425loPI   GL1 6789  10.118  12.021  10.307 -0.0556  0.0758 -0.0944
  425loPI   GL2 6790   9.878  11.918  10.070 -0.1751 -0.0033 -0.1913
  425loPI   C1A 6791  10.378  12.017   9.937  0.1073 -0.4437 -0.0774
  425loPI   C2A 6792  10.382  12.064   9.454  0.0701 -0.0658  0.0666
  425loPI   C3A 6793  10.428  11.959   9.040  0.0765  0.2095 -0.1392
  425loPI   C4A 6794  10.347  11.991   8.509 -0.3096  0.3114  0.0107
  425loPI   C5A 6795  10.079  12.210   8.317  0.0018 -0.0249 -0.1701
  425loPI   C6A 6796   9.761  12.340   8.029 -0.1593  0.2695 -0.2617
  425loPI   C1B 6797   9.905  11.970   9.629 -0.0029  0.1157  0.1772
  425loPI   C2B 6798   9.925  11.871   9.210 -0.1208  0.2577 -0.1264
  425loPI   C3B 6799   9.900  11.963   8.821  0.2065  0.0144  0.1196
  425loPI   C4B 6800   9.850  11.778   8.398  0.0851  0.1819  0.1697
  426loPI    C1 6801  10.503   6.571  10.540 -0.1762 -0.0034  0.0325
  426loPI    C2 6802  10.208   6.827  10.453 -0.2590  0.0240  0.3804
  426loPI    C3 6803  10.454   6.902  10.760  0.2154  0.0839 -0.0028
  426loPI   PO4 6804  10.391   6.297  10.389 -0.2209 -0.0465 -0.2003
  426loPI   GL1 6805  10.277   6.060   9.872 -0.1113  0.3778  0.0751
  426loPI   GL2 6806   9.948   6.019   9.681  0.0409  0.1795  0.1879
  426loPI   C1A 6807  10.379   6.296   9.518  0.0934 -0.1395 -0.3469
  426loPI   C2A 6808  10.316   6.434   9.160  0.0927  0.4023  0.0488
  426loPI   C3A 6809  10.312   6.360   8.778  0.0400 -0.1380 -0.3389
  426loPI   C4A 6810  10.489   6.240   8.456 -0.1571  0.0241 -0.0656
  426loPI   C5A 6811  10.422   6.274   8.146  0.0817  0.3225  0.1687
  426loPI   C6A 6812  10.024   6.279   8.063  0.4386 -0.4078  0.0124
  426loPI   C1B 6813   9.885   6.248   9.361  0.3207  0.2820  0.4287
  426loPI   C2B 6814   9.795   6.191   8.997 -0.2865  0.0287 -0.1443
  426loPI   C3B 6815   9.861   6.177   8.545 -0.1823  0.2544  0.1187
  426loPI   C4B 6816   9.541   6.161   8.238 -0.1746  0.2233 -0.0194
  427loPI    C1 6817  11.254   4.777  10.167 -0.1999  0.1026  0.4374
  427loPI    C2 6818  11.492   4.964  10.428  0.1544  0.0458  0.1634
  427loPI    C3 6819  11.396   4.580  10.485  0.2687  0.0203  0.1860
  427loPI   PO4 6820  11.097   4.909  10.046  0.1307 -0.0475  0.1913
  427loPI   GL1 6821  10.980   4.893   9.506 -0.0489  0.3222 -0.0289
  427loPI   GL2 6822  10.664   4.863   9.595  0.2247 -0.0389  0.0372
  427loPI   C1A 6823  10.999   5.108   9.123  0.1497  0.2221  0.0409
  427loPI   C2A 6824  10.921   5.125   8.726  0.1434 -0.1256 -0.0838
  427loPI   C3A 6825  11.109   4.997   8.318  0.2403 -0.1793 -0.0835
  427loPI   C4A 6826  11.287   5.110   7.874  0.3962  0.0498 -0.0858
  427loPI   C5A 6827  11.521   5.280   7.780 -0.1208  0.0594  0.1150
  427loPI   C6A 6828  11.756   5.497   7.483  0.0676 -0.0415 -0.1844
  427loPI   C1B 6829  10.573   4.915   9.165  0.2395 -0.0658 -0.1186
  427loPI   C2B 6830  10.428   4.913   8.760 -0.1539 -0.2559  0.1441
  427loPI   C3B 6831  10.357   4.877   8.369  0.1150  0.3668  0.0712
  427loPI   C4B 6832  10.287   4.835   7.945 -0.1057  0.0282 -0.3399
  428loPI    C1 6833  12.266   9.067  10.897 -0.3769  0.0224 -0.1795
  428loPI    C2 6834  11.905   9.022  11.063 -0.1767  0.1017  0.2941
  428loPI    C3 6835  12.188   9.230  11.254  0.1503 -0.0347 -0.0297
  428loPI   PO4 6836  12.188   8.849  10.601 -0.0238 -0.1790 -0.1118
  428loPI   GL1 6837  11.844   8.705  10.401  0.0243  0.2794 -0.0042
  428loPI   GL2 6838  11.622   8.969  10.330 -0.2270  0.0847 -0.1427
  428loPI   C1A 6839  11.772   8.550  10.113 -0.2926  0.2570  0.0610
  428loPI   C2A 6840  11.983   8.461   9.638  0.3109  0.0035 -0.0624
  428loPI   C3A 6841  12.006   8.715   9.167  0.2510  0.3121  0.0698
  428loPI   C4A 6842  12.066   8.728   8.693  0.0920  0.0340  0.0964
  428loPI   C5A 6843  12.162   8.792   8.205  0.1248 -0.2384  0.2150
  428loPI   C6A 6844  12.486   8.962   7.971  0.2849 -0.3697  0.0000
  428loPI   C1B 6845  11.398   8.923   9.901  0.4014 -0.1089  0.0787
  428loPI   C2B 6846  11.442   9.039   9.470 -0.2139  0.2703  0.2056
  428loPI   C3B 6847  11.566   9.158   8.966 -0.0198  0.1320 -0.1028
  428loPI   C4B 6848  11.738   9.074   8.727  0.0300 -0.1859  0.2147
  429loPI    C1 6849  14.513   8.869  10.560 -0.2265 -0.0036  0.0753
  429loPI    C2 6850  14.777   8.682  10.796 -0.3603 -0.3296 -0.0265
  429loPI    C3 6851  14.655   9.053  10.886  0.1979 -0.1361 -0.0287
  429loPI   PO4 6852  14.547   8.853  10.294 -0.1068  0.0496 -0.1318
  429loPI   GL1 6853  14.658   8.741   9.919 -0.1370 -0.1375  0.4889
  429loPI   GL2 6854  14.954   8.888   9.933 -0.1294 -0.1448 -0.2396
  429loPI   C1A 6855  14.743   8.568   9.548  0.2527 -0.4255 -0.0711
  429loPI   C2A 6856  14.777   8.668   9.088  0.2767 -0.1227 -0.0751
  429loPI   C3A 6857  14.801   8.639   8.654  0.2038 -0.1428 -0.0411
  429loPI   C4A 6858  14.867   8.688   8.196  0.2662 -0.0556 -0.1262
  429loPI   C5A 6859  15.115   8.384   7.903 -0.0042 -0.2492  0.1540
  429loPI   C6A 6860  14.941   8.005   7.904  0.3185 -0.2027  0.1047
  429loPI   C1B 6861  15.284   8.842   9.772 -0.2298  0.1059  0.0152
  429loPI   C2B 6862  15.256   8.885   9.360  0.2501 -0.0571 -0.0917
  429loPI   C3B 6863  15.300   8.874   8.910  0.2425  0.1518 -0.0488
  429loPI   C4B 6864  15.352   8.902   8.487  0.0998 -0.0405  0.0802
  430loPI    C1 6865   3.927  17.624  10.868  0.1053 -0.0011 -0.3064
  430loPI    C2 6866   3.861  17.933  10.622  0.0813  0.3369  0.1132
  430loPI    C3 6867   3.738  17.949  11.003  0.2225 -0.1279  0.1858
  430loPI   PO4 6868   3.853  17.440  10.700  0.1243 -0.0230  0.0373
  430loPI   GL1 6869   3.560  17.389  10.429 -0.0560 -0.1329  0.1681
  430loPI   GL2 6870   3.683  17.093  10.360  0.1675 -0.2379  0.0863
  430loPI   C1A 6871   3.330  17.416  10.119  0.0864  0.0431 -0.2574
  430loPI   C2A 6872   3.160  17.412   9.702  0.0494 -0.0870  0.0847
  430loPI   C3A 6873   3.237  17.414   9.335  0.0121  0.1664  0.1037
  430loPI   C4A 6874   3.232  17.445   8.874  0.0498 -0.2442  0.2464
  430loPI   C5A 6875   3.208  17.654   8.476  0.0353 -0.0134  0.0060
  430loPI   C6A 6876   3.492  17.799   8.213 -0.2502 -0.3764 -0.0796
  430loPI   C1B 6877   3.663  17.074   9.982  0.0256  0.0365  0.0401
  430loPI   C2B 6878   3.718  17.099   9.587 -0.1306 -0.1110 -0.0132
  430loPI   C3B 6879   3.625  17.092   9.137  0.2654 -0.3127 -0.0280
  430loPI   C4B 6880   3.665  16.880   8.710 -0.0682 -0.1563  0.1767
  431loPI    C1 6881  16.972   7.928  11.032  0.0502  0.0455 -0.1141
  431loPI    C2 6882  16.708   7.980  11.328  0.2286 -0.0700  0.0674
  431loPI    C3 6883  17.037   7.760  11.389  0.2171 -0.1789 -0.2472
  431loPI   PO4 6884  16.859   7.971  10.817  0.0862  0.2261 -0.3389
  431loPI   GL1 6885  16.787   7.844  10.332  0.3029 -0.2762  0.0547
  431loPI   GL2 6886  16.914   8.109  10.378 -0.2247  0.1661  0.1347
  431loPI   C1A 6887  16.834   7.899   9.887  0.0213 -0.0443  0.0849
  431loPI   C2A 6888  16.955   7.873   9.563 -0.5357  0.2683 -0.0032
  431loPI   C3A 6889  16.961   7.916   9.174 -0.0136  0.1461 -0.1286
  431loPI   C4A 6890  16.942   7.933   8.665  0.0202  0.2093 -0.2757
  431loPI   C5A 6891  16.998   8.139   8.272  0.0570  0.2878  0.0787
  431loPI   C6A 6892  17.107   8.558   8.166  0.0140 -0.0093 -0.4326
  431loPI   C1B 6893  17.044   8.342   9.946 -0.0601 -0.0797 -0.0282
  431loPI   C2B 6894  17.065   8.342   9.457  0.0176  0.2991  0.0537
  431loPI   C3B 6895  17.108   8.527   9.059  0.0531 -0.0209  0.0086
  431loPI   C4B 6896  17.097   8.424   8.673  0.1760  0.0209  0.0727
  432loPI    C1 6897   9.956   1.538  10.624  0.0047  0.0996 -0.1200
  432loPI    C2 6898   9.720   1.817  10.786  0.0212 -0.0249  0.1221
  432loPI    C3 6899  10.109   1.805  10.879  0.0676  0.0102 -0.0638
  432loPI   PO4 6900   9.735   1.577  10.317 -0.3059  0.4880 -0.2183
  432loPI   GL1 6901   9.586   1.770  10.001  0.2121 -0.1770 -0.0020
  432loPI   GL2 6902   9.869   1.759   9.860 -0.1563 -0.0462 -0.1554
  432loPI   C1A 6903   9.367   1.752   9.722  0.1295 -0.2357 -0.0795
  432loPI   C2A 6904   9.392   1.608   9.396  0.1193  0.0345 -0.2213
  432loPI   C3A 6905   9.351   1.584   9.018  0.0234  0.1866  0.1689
  432loPI   C4A 6906   9.250   1.723   8.568  0.2179  0.0198 -0.3452
  432loPI   C5A 6907   9.400   1.433   8.280 -0.0384  0.0971  0.2040
  432loPI   C6A 6908   9.752   1.415   8.019  0.2438  0.1292 -0.0423
  432loPI   C1B 6909   9.900   1.771   9.488 -0.0449 -0.0919  0.0791
  432loPI   C2B 6910   9.804   1.804   9.103  0.1515  0.0881 -0.0037
  432loPI   C3B 6911   9.773   1.785   8.767  0.4075 -0.0080 -0.0998
  432loPI   C4B 6912   9.711   1.780   8.396  0.1616  0.1457 -0.1992
  433loPI    C1 6913  16.155  11.929  10.398  0.0849  0.0680  0.1810
  433loPI    C2 6914  16.163  12.083  10.768 -0.2462  0.1781  0.1460
  433loPI    C3 6915  15.847  11.870  10.646 -0.1055  0.0770 -0.0503
  433loPI   PO4 6916  16.522  11.862  10.464 -0.0856 -0.2799  0.3633
  433loPI   GL1 6917  16.750  11.813  10.108 -0.0241 -0.0021 -0.3264
  433loPI   GL2 6918  16.838  11.575   9.977  0.1663 -0.0478  0.0441
  433loPI   C1A 6919  16.570  11.957   9.732  0.1639 -0.3087 -0.0827
  433loPI   C2A 6920  16.479  12.086   9.221  0.0179  0.0230  0.2087
  433loPI   C3A 6921  16.426  12.167   8.807 -0.1085 -0.0959 -0.3601
  433loPI   C4A 6922  16.485  12.098   8.339 -0.0868 -0.2361 -0.2682
  433loPI   C5A 6923  16.688  12.088   8.026 -0.1389  0.1511 -0.2781
  433loPI   C6A 6924  16.568  12.270   7.733  0.2954  0.1639  0.0376
  433loPI   C1B 6925  16.895  11.668   9.504 -0.1275 -0.2163  0.0662
  433loPI   C2B 6926  16.891  11.679   9.052 -0.2134 -0.0848  0.0402
  433loPI   C3B 6927  16.856  11.714   8.601 -0.1988  0.0859 -0.0743
  433loPI   C4B 6928  17.112  11.789   8.303 -0.0937  0.0057 -0.4120
  434loPI    C1 6929   9.461   1.386  10.744 -0.0354 -0.3284 -0.1597
  434loPI    C2 6930   9.375   1.260  11.114 -0.1310  0.1153 -0.0253
  434loPI    C3 6931   9.756   1.278  10.992 -0.0972 -0.0006  0.0619
  434loPI   PO4 6932   9.263   1.326  10.576 -0.0691 -0.0722 -0.1365
  434loPI   GL1 6933   8.915   1.351  10.225  0.1987 -0.3143 -0.0758
  434loPI   GL2 6934   8.883   1.570  10.084 -0.0482  0.0691 -0.1039
  434loPI   C1A 6935   8.820   0.966   9.951 -0.0547  0.0605 -0.2149
  434loPI   C2A 6936   8.734   0.874   9.551  0.2792 -0.3151 -0.3253
  434loPI   C3A 6937   8.716   0.895   9.099  0.0455  0.3168 -0.1230
  434loPI   C4A 6938   8.692   0.918   8.664  0.2841  0.2852 -0.1828
  434loPI   C5A 6939   8.682   0.738   8.206  0.2361  0.0538  0.1334
  434loPI   C6A 6940   8.599   0.516   7.804  0.2290  0.3423  0.0055
  434loPI   C1B 6941   8.774   1.633   9.598  0.1327  0.0746  0.1463
  434loPI   C2B 6942   8.859   1.559   9.179 -0.3498  0.0336  0.1163
  434loPI   C3B 6943   8.756   1.434   8.793  0.0610  0.3579 -0.0520
  434loPI   C4B 6944   8.913   1.356   8.320 -0.3334 -0.0219 -0.1520
  435loPI    C1 6945  12.267   4.779  10.240  0.0389 -0.0962 -0.2772
  435loPI    C2 6946  12.634   4.854  10.380 -0.0334 -0.1883 -0.0333
  435loPI    C3 6947  12.492   4.480  10.381 -0.2021 -0.1249  0.0589
  435loPI   PO4 6948  12.254   4.859   9.951 -0.2177  0.2967 -0.0020
  435loPI   GL1 6949  12.479   4.875   9.555 -0.2397 -0.1185 -0.1001
  435loPI   GL2 6950  12.333   4.618   9.473 -0.2199  0.2028 -0.1252
  435loPI   C1A 6951  12.722   4.959   9.201 -0.2067 -0.0708  0.3174
  435loPI   C2A 6952  12.808   4.829   8.776  0.0388  0.1498 -0.1696
  435loPI   C3A 6953  12.796   4.634   8.380  0.1670 -0.1287  0.6247
  435loPI   C4A 6954  12.844   4.521   7.956  0.0002 -0.2521  0.2794
  435loPI   C5A 6955  13.092   4.295   7.668  0.1664 -0.0870  0.7425
  435loPI   C6A 6956  13.320   3.966   7.702 -0.2383  0.0835  0.1393
  435loPI   C1B 6957  12.339   4.528   9.041  0.0314 -0.1727 -0.3949
  435loPI   C2B 6958  12.295   4.505   8.598  0.0690 -0.2380 -0.1769
  435loPI   C3B 6959  12.323   4.563   8.247  0.2184 -0.1071 -0.1826
  435loPI   C4B 6960  12.347   4.576   7.750 -0.1398  0.2298 -0.1288
  436loPI    C1 6961   1.596  17.501  11.008 -0.0683  0.1503  0.0228
  436loPI    C2 6962   1.854  17.399  11.297  0.0086 -0.2763 -0.1889
  436loPI    C3 6963   1.461  17.382  11.365  0.0282  0.0349  0.0216
  436loPI   PO4 6964   1.607  17.432  10.790 -0.3251  0.0939  0.3004
  436loPI   GL1 6965   1.712  17.599  10.452  0.1947  0.1176 -0.3507
  436loPI   GL2 6966   1.846  17.432  10.328  0.0405  0.0673  0.0020
  436loPI   C1A 6967   1.499  17.905  10.227 -0.0667 -0.2048  0.0768
  436loPI   C2A 6968   1.453  17.904   9.804 -0.0154 -0.0280 -0.0014
  436loPI   C3A 6969   1.414  17.981   9.474  0.0861 -0.0733 -0.0187
  436loPI   C4A 6970   1.432  17.903   9.030  0.2998  0.4053 -0.2263
  436loPI   C5A 6971   1.430  17.781   8.672  0.0949 -0.1994 -0.0621
  436loPI   C6A 6972   1.301  17.529   8.463  0.4261  0.0335  0.1165
  436loPI   C1B 6973   1.838  17.480   9.880 -0.2461 -0.0627  0.2373
  436loPI   C2B 6974   1.833  17.507   9.418  0.0859  0.0479 -0.1706
  436loPI   C3B 6975   1.853  17.559   9.031 -0.1000  0.4385  0.2456
  436loPI   C4B 6976   1.857  17.557   8.565  0.0188 -0.0725  0.0597
  437loPI    C1 6977  11.048   3.566  10.055  0.1032  0.0319 -0.0532
  437loPI    C2 6978  11.285   3.529  10.375 -0.1432  0.1179  0.1423
  437loPI    C3 6979  11.153   3.890  10.265 -0.1141  0.0805 -0.0170
  437loPI   PO4 6980  11.074   3.500   9.832 -0.2520 -0.0289 -0.0183
  437loPI   GL1 6981  10.942   3.462   9.510 -0.4086 -0.3481  0.0080
  437loPI   GL2 6982  11.122   3.122   9.382 -0.2746  0.3629 -0.0709
  437loPI   C1A 6983  10.731   3.424   9.101  0.2114 -0.1359 -0.2473
  437loPI   C2A 6984  10.680   3.440   8.697 -0.2397  0.0222  0.2578
  437loPI   C3A 6985  10.698   3.492   8.290 -0.1112  0.2126  0.1545
  437loPI   C4A 6986  10.594   3.599   7.883 -0.1903  0.0296  0.1990
  437loPI   C5A 6987  10.423   3.800   7.556 -0.0096  0.1154 -0.0409
  437loPI   C6A 6988  10.618   4.052   7.267 -0.0079 -0.0758 -0.2369
  437loPI   C1B 6989  11.073   3.066   8.885  0.0993  0.0504 -0.1170
  437loPI   C2B 6990  10.955   3.060   8.459  0.0657  0.0779  0.0530
  437loPI   C3B 6991  10.823   3.088   8.025 -0.1509  0.2135  0.2204
  437loPI   C4B 6992  10.983   3.360   7.648  0.0211 -0.3003  0.0166
  438loPI    C1 6993   3.085  11.332  11.210  0.0774 -0.2093  0.0218
  438loPI    C2 6994   3.401  11.277  10.970  0.1415 -0.0807  0.0757
  438loPI    C3 6995   3.449  11.452  11.327  0.0087 -0.0588  0.0832
  438loPI   PO4 6996   2.943  11.394  11.115  0.0332  0.1644 -0.0752
  438loPI   GL1 6997   2.973  11.429  10.605  0.0732 -0.1232  0.3809
  438loPI   GL2 6998   2.674  11.565  10.696  0.0314 -0.2610 -0.1759
  438loPI   C1A 6999   3.275  11.154  10.332  0.2070 -0.0025 -0.0995
  438loPI   C2A 7000   3.277  11.234   9.895 -0.1515  0.0208  0.0400
  438loPI   C3A 7001   3.198  11.315   9.471 -0.0417 -0.0611  0.1970
  438loPI   C4A 7002   3.263  11.244   9.082  0.2024  0.0418  0.1053
  438loPI   C5A 7003   3.226  11.273   8.636  0.2337  0.1157  0.2436
  438loPI   C6A 7004   3.195  11.117   8.276 -0.0448 -0.0515 -0.1121
  438loPI   C1B 7005   2.799  11.597  10.162 -0.1747  0.1349 -0.0430
  438loPI   C2B 7006   2.858  11.566   9.785 -0.0994 -0.0768 -0.3025
  438loPI   C3B 7007   2.818  11.629   9.317 -0.2203  0.2748  0.0506
  438loPI   C4B 7008   2.911  11.592   8.922 -0.0576 -0.1822 -0.2383
  439loPI    C1 7009   0.470   3.734  11.414 -0.1492 -0.0298 -0.2597
  439loPI    C2 7010   0.813   3.935  11.456 -0.1261 -0.0534 -0.3333
  439loPI    C3 7011   0.466   4.112  11.546 -0.0839 -0.0803 -0.1107
  439loPI   PO4 7012   0.491   3.665  11.246 -0.2207 -0.3422  0.0711
  439loPI   GL1 7013   0.350   3.679  10.735 -0.0576  0.0267 -0.0301
  439loPI   GL2 7014   0.323   3.404  10.668  0.0557  0.0618 -0.3001
  439loPI   C1A 7015   0.477   3.749  10.313 -0.0421 -0.2331  0.1610
  439loPI   C2A 7016   0.686   3.735   9.952  0.0683  0.0620  0.1011
  439loPI   C3A 7017   0.605   3.649   9.593 -0.1770 -0.2479  0.1055
  439loPI   C4A 7018   0.643   3.702   9.081  0.2569  0.2131 -0.0172
  439loPI   C5A 7019   0.700   3.773   8.617  0.0545  0.1143 -0.0310
  439loPI   C6A 7020   0.670   4.066   8.288 -0.0903  0.0367 -0.1633
  439loPI   C1B 7021   0.486   3.228  10.254 -0.0435  0.2846 -0.1002
  439loPI   C2B 7022   0.474   3.198   9.821 -0.2436  0.1814  0.0101
  439loPI   C3B 7023   0.511   3.137   9.439  0.0123  0.1486  0.2945
  439loPI   C4B 7024   0.471   3.024   9.047  0.1858  0.2925 -0.0232
  440loPI    C1 7025  16.621  15.719  10.956 -0.0205 -0.0043  0.1188
  440loPI    C2 7026  16.946  15.797  11.175 -0.0482 -0.0495  0.1763
  440loPI    C3 7027  16.643  15.590  11.334 -0.0512 -0.1180  0.0822
  440loPI   PO4 7028  16.697  15.873  10.742 -0.0226 -0.0106 -0.3142
  440loPI   GL1 7029  16.969  15.695  10.377  0.0465  0.0436  0.1564
  440loPI   GL2 7030  16.991  15.978  10.203  0.0394  0.0082 -0.4259
  440loPI   C1A 7031  17.250  15.716   9.947 -0.1540 -0.2475 -0.1455
  440loPI   C2A 7032  17.251  15.770   9.500 -0.1397  0.0884 -0.1797
  440loPI   C3A 7033  17.224  15.725   9.004  0.2957 -0.2406 -0.2075
  440loPI   C4A 7034  17.150  15.781   8.606 -0.2500  0.1158 -0.1427
  440loPI   C5A 7035  17.093  16.095   8.307 -0.3262  0.1481 -0.1342
  440loPI   C6A 7036  16.924  16.421   8.011  0.0480  0.1998 -0.0784
  440loPI   C1B 7037  16.796  16.115   9.855 -0.1589  0.2004 -0.2690
  440loPI   C2B 7038  16.887  16.165   9.464  0.1240 -0.0706  0.3105
  440loPI   C3B 7039  16.784  16.098   9.068 -0.2022 -0.0405  0.2725
  440loPI   C4B 7040  16.729  16.049   8.653 -0.1300  0.2164  0.2238
  441loPI    C1 7041  14.140  11.822  10.841 -0.1576  0.0100  0.0188
  441loPI    C2 7042  13.749  11.797  10.918 -0.1598  0.1048  0.0395
  441loPI    C3 7043  14.004  11.898  11.209 -0.1140 -0.0058  0.0384
  441loPI   PO4 7044  14.190  11.990  10.661 -0.3902  0.4463  0.1401
  441loPI   GL1 7045  13.883  12.150  10.358  0.0311 -0.1123 -0.1751
  441loPI   GL2 7046  13.684  12.487  10.260  0.1019 -0.0125 -0.2656
  441loPI   C1A 7047  14.106  12.252   9.965 -0.0763  0.0296  0.0731
  441loPI   C2A 7048  14.102  12.337   9.582 -0.2874  0.3460  0.2002
  441loPI   C3A 7049  14.168  12.349   9.207 -0.1272 -0.0647 -0.0023
  441loPI   C4A 7050  14.191  12.378   8.776 -0.0076  0.1246 -0.0022
  441loPI   C5A 7051  14.120  12.228   8.449  0.0450 -0.0592  0.0866
  441loPI   C6A 7052  13.861  11.994   8.167 -0.0037  0.2329  0.0402
  441loPI   C1B 7053  13.736  12.544   9.838  0.0494 -0.0346 -0.0584
  441loPI   C2B 7054  13.795  12.667   9.420 -0.0740 -0.4056 -0.1329
  441loPI   C3B 7055  13.836  12.691   8.960 -0.3573  0.0882 -0.2596
  441loPI   C4B 7056  13.912  12.737   8.514 -0.3512  0.4480  0.1193
  442loPI    C1 7057  14.228   9.935  10.859  0.0408 -0.1108 -0.1517
  442loPI    C2 7058  14.521   9.877  11.125 -0.0372  0.0995 -0.0176
  442loPI    C3 7059  14.380   9.569  10.912 -0.1194 -0.1131  0.3372
  442loPI   PO4 7060  14.281  10.111  10.716  0.2552  0.1973  0.1340
  442loPI   GL1 7061  14.407  10.180  10.300  0.0947 -0.3123  0.1222
  442loPI   GL2 7062  14.504   9.822  10.136  0.0118 -0.0023 -0.2022
  442loPI   C1A 7063  14.096  10.233   9.997 -0.3786 -0.1420  0.3110
  442loPI   C2A 7064  14.101  10.353   9.606  0.4741 -0.1038  0.1405
  442loPI   C3A 7065  14.084  10.410   9.225  0.0177 -0.0704 -0.0522
  442loPI   C4A 7066  14.286  10.261   8.791 -0.1479  0.0545  0.0292
  442loPI   C5A 7067  14.376  10.239   8.392 -0.0770  0.3296 -0.0862
  442loPI   C6A 7068  14.715  10.219   8.128 -0.2370 -0.4601  0.2005
  442loPI   C1B 7069  14.529   9.933   9.821  0.0276  0.0287  0.0241
  442loPI   C2B 7070  14.581  10.072   9.433  0.3696 -0.1203  0.0883
  442loPI   C3B 7071  14.778   9.985   9.106  0.2795 -0.2947  0.2871
  442loPI   C4B 7072  14.815  10.021   8.728 -0.0245  0.1566 -0.1237
  443loPI    C1 7073   4.062  15.307  11.293 -0.1057  0.0161 -0.0411
  443loPI    C2 7074   4.381  15.325  11.534 -0.1421 -0.1825  0.0237
  443loPI    C3 7075   4.012  15.354  11.687 -0.1594 -0.0874 -0.0352
  443loPI   PO4 7076   4.132  15.304  11.068 -0.2786 -0.0171 -0.0296
  443loPI   GL1 7077   4.338  15.396  10.721  0.2641  0.1106  0.1786
  443loPI   GL2 7078   4.367  15.090  10.662 -0.0652 -0.3841  0.2667
  443loPI   C1A 7079   4.172  15.386  10.208 -0.0704  0.0969 -0.3316
  443loPI   C2A 7080   4.091  15.362   9.789 -0.1198  0.1338  0.0155
  443loPI   C3A 7081   4.152  15.343   9.337  0.3846  0.1441  0.0838
  443loPI   C4A 7082   4.113  15.380   8.818 -0.3491 -0.3364  0.2414
  443loPI   C5A 7083   4.208  15.373   8.447 -0.0560 -0.3096  0.1398
  443loPI   C6A 7084   4.457  14.909   8.418  0.0690  0.0479  0.3586
  443loPI   C1B 7085   4.163  14.840  10.365  0.1013  0.0531 -0.3016
  443loPI   C2B 7086   4.030  14.902   9.929 -0.0049  0.0237 -0.2199
  443loPI   C3B 7087   4.065  14.788   9.507 -0.2323 -0.0581 -0.0835
  443loPI   C4B 7088   3.898  14.780   9.115 -0.1138  0.0940  0.1055
  444loPI    C1 7089   0.794   3.003  11.405  0.1751 -0.0364  0.1535
  444loPI    C2 7090   1.043   2.983  11.717  0.0188 -0.0173  0.2806
  444loPI    C3 7091   0.651   2.923  11.769 -0.0149  0.0361  0.0962
  444loPI   PO4 7092   1.038   3.002  11.145 -0.1927 -0.0959  0.2758
  444loPI   GL1 7093   0.987   3.145  10.758  0.2693  0.2884  0.2009
  444loPI   GL2 7094   1.276   3.150  10.595 -0.2641 -0.1117 -0.1567
  444loPI   C1A 7095   0.912   2.842  10.403 -0.1594 -0.3085 -0.0874
  444loPI   C2A 7096   0.905   2.874   9.978 -0.0816  0.2362  0.0532
  444loPI   C3A 7097   0.851   2.778   9.653  0.0999  0.1456 -0.0923
  444loPI   C4A 7098   0.895   2.822   9.256  0.2761 -0.1234 -0.1163
  444loPI   C5A 7099   0.849   2.838   8.856 -0.0607 -0.0271 -0.2059
  444loPI   C6A 7100   0.772   2.486   8.510  0.0164 -0.2293  0.4802
  444loPI   C1B 7101   1.429   2.839  10.343  0.0476  0.1204 -0.1519
  444loPI   C2B 7102   1.415   2.952   9.967 -0.2058  0.2807  0.0246
  444loPI   C3B 7103   1.335   2.956   9.537 -0.1165  0.0520 -0.0670
  444loPI   C4B 7104   1.357   2.992   9.152  0.0223  0.3785 -0.2700
  445loPI    C1 7105   9.606   2.487  10.665  0.1987 -0.1160  0.0603
  445loPI    C2 7106   9.435   2.606  11.007  0.1887 -0.0937  0.0476
  445loPI    C3 7107   9.815   2.703  10.929  0.2163 -0.1675  0.0889
  445loPI   PO4 7108   9.436   2.199  10.670  0.1749 -0.0807  0.0563
  445loPI   GL1 7109   9.260   2.234  10.190  0.0792  0.2998  0.1078
  445loPI   GL2 7110   8.920   2.061  10.165  0.1022  0.2895 -0.0103
  445loPI   C1A 7111   9.508   2.235   9.768  0.1690  0.1372  0.0485
  445loPI   C2A 7112   9.450   2.089   9.352  0.0604 -0.0876 -0.0886
  445loPI   C3A 7113   9.372   2.053   8.995 -0.1706 -0.1782 -0.1928
  445loPI   C4A 7114   9.399   2.183   8.679 -0.4937 -0.4157 -0.1415
  445loPI   C5A 7115   9.287   2.088   8.198  0.2489 -0.0518 -0.0921
  445loPI   C6A 7116   9.160   1.859   7.856  0.1351 -0.3371 -0.0616
  445loPI   C1B 7117   9.036   2.073   9.707  0.1272 -0.4568 -0.1581
  445loPI   C2B 7118   8.936   2.079   9.385 -0.0922 -0.1539 -0.0755
  445loPI   C3B 7119   8.877   1.966   8.953 -0.0771 -0.1701 -0.3641
  445loPI   C4B 7120   8.824   1.960   8.475 -0.1752  0.0180 -0.3733
  446loPI    C1 7121   7.768   8.981  11.089  0.1727  0.0298  0.0940
  446loPI    C2 7122   8.121   9.149  11.002  0.0097  0.2077 -0.2447
  446loPI    C3 7123   7.925   9.255  11.335  0.3158  0.0378 -0.0052
  446loPI   PO4 7124   7.645   8.978  10.762 -0.0448  0.1650 -0.4222
  446loPI   GL1 7125   7.718   8.956  10.284  0.2151 -0.1408 -0.0244
  446loPI   GL2 7126   7.419   8.763  10.055  0.0215 -0.1999  0.1049
  446loPI   C1A 7127   7.904   8.836   9.809 -0.0746  0.2886 -0.4235
  446loPI   C2A 7128   7.894   8.831   9.444 -0.1195  0.1687  0.0551
  446loPI   C3A 7129   7.753   8.777   9.092  0.0647 -0.1275 -0.2217
  446loPI   C4A 7130   7.788   8.840   8.611  0.0310 -0.3561  0.0145
  446loPI   C5A 7131   7.856   8.635   8.183  0.0015  0.1420  0.1559
  446loPI   C6A 7132   7.644   8.308   7.965 -0.2164  0.0784  0.0262
  446loPI   C1B 7133   7.245   8.698   9.686  0.0135 -0.2413 -0.2160
  446loPI   C2B 7134   7.302   8.638   9.280  0.2717 -0.1464 -0.2502
  446loPI   C3B 7135   7.272   8.682   8.843  0.0924 -0.2776 -0.1335
  446loPI   C4B 7136   7.268   8.639   8.401  0.1397 -0.1407 -0.0597
  447loPI    C1 7137   5.607  16.981  11.128 -0.0446 -0.0445  0.0345
  447loPI    C2 7138   5.474  16.778  11.447  0.0390 -0.0457  0.0691
  447loPI    C3 7139   5.858  16.888  11.426 -0.0422  0.2594  0.1304
  447loPI   PO4 7140   5.438  16.914  10.917 -0.1280 -0.4759  0.0382
  447loPI   GL1 7141   5.605  16.759  10.525  0.1396 -0.0791 -0.0700
  447loPI   GL2 7142   5.873  16.881  10.319  0.1374  0.0372  0.2070
  447loPI   C1A 7143   5.412  16.645  10.153 -0.0085  0.0021 -0.1298
  447loPI   C2A 7144   5.441  16.638   9.702 -0.1816  0.3786 -0.1107
  447loPI   C3A 7145   5.378  16.684   9.341  0.0421 -0.0801  0.0259
  447loPI   C4A 7146   5.336  16.625   8.928  0.1906  0.1539 -0.2039
  447loPI   C5A 7147   5.111  16.440   8.635 -0.1595 -0.1705  0.0637
  447loPI   C6A 7148   4.688  16.434   8.485  0.0563 -0.1071 -0.1905
  447loPI   C1B 7149   5.885  16.787   9.966  0.0961  0.1723 -0.2986
  447loPI   C2B 7150   5.906  16.762   9.608 -0.4134  0.1493  0.2311
  447loPI   C3B 7151   5.811  16.770   9.139 -0.2369 -0.1774  0.0136
  447loPI   C4B 7152   5.813  16.694   8.675 -0.0410  0.2030  0.1422
  448loPI    C1 7153   1.376   9.763  10.869  0.1679  0.0146 -0.0240
  448loPI    C2 7154   1.283   9.497  11.153  0.0170  0.2598  0.1613
  448loPI    C3 7155   1.374   9.873  11.254  0.2466  0.2772 -0.0967
  448loPI   PO4 7156   1.153   9.888  10.684 -0.0089  0.0154  0.2105
  448loPI   GL1 7157   1.029   9.971  10.302 -0.0881  0.3988  0.2123
  448loPI   GL2 7158   1.169  10.291  10.344  0.2365 -0.5316  0.0014
  448loPI   C1A 7159   1.058  10.118   9.930 -0.2036  0.1085 -0.0901
  448loPI   C2A 7160   1.120  10.172   9.491 -0.4250 -0.3033 -0.2214
  448loPI   C3A 7161   1.130  10.184   9.062  0.0757  0.0036  0.1808
  448loPI   C4A 7162   1.117  10.291   8.614 -0.0802 -0.3572 -0.1636
  448loPI   C5A 7163   1.078  10.360   8.221 -0.0911 -0.0530  0.2116
  448loPI   C6A 7164   0.911  10.190   7.857  0.6236 -0.0998  0.0120
  448loPI   C1B 7165   1.148  10.593   9.998 -0.1245 -0.0368  0.2658
  448loPI   C2B 7166   1.175  10.648   9.615  0.0037  0.1829  0.2014
  448loPI   C3B 7167   1.293  10.653   9.160  0.1232  0.0644  0.1734
  448loPI   C4B 7168   1.232  10.827   8.813  0.0993  0.1014  0.1277
  449loPI    C1 7169   5.093   8.057  10.530  0.2780  0.1001  0.1121
  449loPI    C2 7170   5.075   8.454  10.574  0.0010  0.0996  0.0236
  449loPI    C3 7171   5.080   8.217  10.896  0.1279  0.1727  0.0760
  449loPI   PO4 7172   5.300   7.948  10.398 -0.1466 -0.1582  0.0496
  449loPI   GL1 7173   5.390   7.917  10.027  0.0234 -0.0853  0.1086
  449loPI   GL2 7174   5.326   8.125   9.888 -0.1415  0.2562 -0.0880
  449loPI   C1A 7175   5.574   7.722   9.633  0.1418  0.0060  0.1294
  449loPI   C2A 7176   5.677   7.800   9.138  0.4578  0.3012 -0.2217
  449loPI   C3A 7177   5.624   7.789   8.781  0.0646 -0.0451 -0.1206
  449loPI   C4A 7178   5.555   7.623   8.359  0.1553 -0.0583 -0.1722
  449loPI   C5A 7179   5.506   7.861   8.043  0.0178  0.4271 -0.0007
  449loPI   C6A 7180   5.237   8.241   8.017  0.0214  0.2805 -0.0600
  449loPI   C1B 7181   5.358   8.100   9.485 -0.1537 -0.3603  0.1554
  449loPI   C2B 7182   5.239   8.126   8.943 -0.2816 -0.0116  0.1311
  449loPI   C3B 7183   5.259   8.009   8.491  0.0600  0.0489 -0.1794
  449loPI   C4B 7184   5.045   7.823   8.163  0.0366  0.1714 -0.1961
  450loPI    C1 7185   1.292  13.956  10.919 -0.0274  0.0700  0.1080
  450loPI    C2 7186   0.961  13.976  11.143  0.1369 -0.1101  0.3721
  450loPI    C3 7187   1.299  14.151  11.269  0.2246 -0.1928  0.2536
  450loPI   PO4 7188   1.176  14.152  10.622  0.1254 -0.2802  0.2776
  450loPI   GL1 7189   1.029  14.361  10.161  0.0027 -0.2683  0.1074
  450loPI   GL2 7190   0.797  14.146  10.233 -0.0131  0.0612 -0.1721
  450loPI   C1A 7191   1.069  14.460   9.692  0.0079  0.0575 -0.0428
  450loPI   C2A 7192   1.124  14.435   9.187  0.1687  0.0717  0.0227
  450loPI   C3A 7193   1.207  14.408   8.814  0.2057  0.0475 -0.0546
  450loPI   C4A 7194   1.294  14.385   8.429 -0.3540 -0.2465  0.0859
  450loPI   C5A 7195   1.269  14.134   8.208 -0.0617  0.1376 -0.1166
  450loPI   C6A 7196   1.114  13.652   8.101  0.0630  0.1509  0.2194
  450loPI   C1B 7197   1.009  13.944   9.878 -0.0221 -0.2657  0.2024
  450loPI   C2B 7198   1.048  13.927   9.408  0.4768  0.0921 -0.0995
  450loPI   C3B 7199   0.959  13.941   9.070 -0.0962 -0.0659  0.0591
  450loPI   C4B 7200   1.038  13.962   8.643  0.4720  0.2245 -0.0152
  451loPI    C1 7201   8.205   6.803  10.781  0.0739 -0.0612 -0.1498
  451loPI    C2 7202   8.519   7.038  10.858 -0.0104 -0.0011  0.0138
  451loPI    C3 7203   8.435   6.730  11.100 -0.2366  0.1479  0.1283
  451loPI   PO4 7204   8.188   6.596  10.587 -0.0579 -0.3075 -0.0893
  451loPI   GL1 7205   8.225   6.542  10.022 -0.1212 -0.2572 -0.3806
  451loPI   GL2 7206   8.310   6.799  10.044  0.0464 -0.1672 -0.0710
  451loPI   C1A 7207   8.048   6.608   9.618 -0.2864 -0.0471  0.1316
  451loPI   C2A 7208   8.120   6.626   9.252 -0.1755 -0.2222 -0.1513
  451loPI   C3A 7209   8.191   6.609   8.830  0.0898  0.1152  0.1797
  451loPI   C4A 7210   8.041   6.531   8.431  0.1599  0.1149  0.2568
  451loPI   C5A 7211   8.086   6.642   7.939 -0.0544  0.0994 -0.0894
  451loPI   C6A 7212   7.747   6.539   7.674 -0.1258 -0.0653 -0.2451
  451loPI   C1B 7213   8.217   7.070   9.732  0.0235 -0.1829  0.2190
  451loPI   C2B 7214   8.246   7.099   9.258  0.0274 -0.0122 -0.3426
  451loPI   C3B 7215   8.213   7.098   8.869 -0.3498 -0.0409  0.2428
  451loPI   C4B 7216   8.297   7.081   8.458  0.0904 -0.0986  0.2431
  452loPI    C1 7217   5.014   4.362  11.225  0.0261 -0.0158 -0.0824
  452loPI    C2 7218   5.144   4.599  11.520  0.0661  0.1325 -0.2180
  452loPI    C3 7219   4.989   4.240  11.605 -0.0895  0.2488 -0.0032
  452loPI   PO4 7220   5.011   4.520  10.918 -0.1150 -0.1858 -0.2336
  452loPI   GL1 7221   4.907   4.580  10.506 -0.0306  0.0003 -0.1940
  452loPI   GL2 7222   5.110   4.395  10.179  0.0229  0.0445  0.1292
  452loPI   C1A 7223   5.131   4.907  10.264 -0.1532  0.3184  0.1730
  452loPI   C2A 7224   5.177   5.063   9.839  0.0466  0.2358 -0.0476
  452loPI   C3A 7225   5.016   5.091   9.334 -0.2714 -0.1433 -0.2402
  452loPI   C4A 7226   4.909   4.993   8.969  0.0621 -0.0104  0.1248
  452loPI   C5A 7227   4.949   5.058   8.621 -0.1777  0.3223  0.2566
  452loPI   C6A 7228   5.063   4.946   8.220  0.1668 -0.2298 -0.1691
  452loPI   C1B 7229   5.069   4.558   9.701  0.1751 -0.1178 -0.1822
  452loPI   C2B 7230   4.968   4.553   9.291  0.1446  0.2521  0.1388
  452loPI   C3B 7231   4.903   4.503   8.957  0.1574 -0.1443  0.0360
  452loPI   C4B 7232   4.707   4.571   8.529  0.2499 -0.1666 -0.0693
  453loPI    C1 7233  14.576   2.409  10.395 -0.0610 -0.2253 -0.1191
  453loPI    C2 7234  14.442   2.782  10.445  0.1218 -0.1570 -0.1298
  453loPI    C3 7235  14.406   2.515  10.741 -0.3211 -0.2311 -0.2430
  453loPI   PO4 7236  14.793   2.544  10.212 -0.2873  0.2806 -0.0716
  453loPI   GL1 7237  14.782   2.579   9.818  0.1916  0.3322  0.4050
  453loPI   GL2 7238  15.007   2.801   9.870 -0.1427  0.1444 -0.0538
  453loPI   C1A 7239  14.749   2.489   9.388  0.1893  0.3507 -0.1331
  453loPI   C2A 7240  14.719   2.381   9.057  0.0341 -0.2469  0.0009
  453loPI   C3A 7241  14.686   2.339   8.626  0.1739  0.0532 -0.2722
  453loPI   C4A 7242  14.460   2.216   8.230 -0.0076 -0.0407 -0.0138
  453loPI   C5A 7243  14.212   2.412   7.955 -0.0022  0.2228 -0.0033
  453loPI   C6A 7244  14.005   2.840   7.814 -0.1220  0.1102  0.0624
  453loPI   C1B 7245  15.116   2.862   9.432  0.0037  0.3533  0.1728
  453loPI   C2B 7246  14.910   2.841   8.962 -0.0746  0.3206 -0.2870
  453loPI   C3B 7247  14.694   2.841   8.633 -0.1327  0.1173 -0.1845
  453loPI   C4B 7248  14.478   2.740   8.252 -0.0853 -0.1155 -0.0243
  454loPI    C1 7249  14.328   8.447  10.777 -0.0669 -0.2320 -0.0576
  454loPI    C2 7250  14.384   8.201  11.087  0.3947 -0.1170 -0.0431
  454loPI    C3 7251  14.433   8.595  11.133  0.0312 -0.0551 -0.1589
  454loPI   PO4 7252  14.432   8.368  10.538 -0.2589  0.0080 -0.1654
  454loPI   GL1 7253  14.407   8.378  10.136 -0.1621  0.0289 -0.2730
  454loPI   GL2 7254  14.643   8.186  10.102 -0.4301  0.0236  0.1763
  454loPI   C1A 7255  14.327   8.448   9.724  0.0487  0.1209 -0.1964
  454loPI   C2A 7256  14.309   8.515   9.337  0.1188 -0.1682 -0.1110
  454loPI   C3A 7257  14.264   8.545   8.893  0.2488 -0.3957  0.3563
  454loPI   C4A 7258  14.311   8.712   8.448 -0.0882 -0.0408 -0.0413
  454loPI   C5A 7259  14.383   8.941   8.056 -0.1177  0.2124  0.0419
  454loPI   C6A 7260  14.655   9.427   7.865  0.2141  0.0916  0.1148
  454loPI   C1B 7261  14.712   8.130   9.699  0.1696  0.1458 -0.0331
  454loPI   C2B 7262  14.683   8.077   9.281  0.2824 -0.3852  0.1714
  454loPI   C3B 7263  14.723   8.132   8.749 -0.1622 -0.0124 -0.1383
  454loPI   C4B 7264  14.677   8.143   8.271 -0.2790 -0.1792  0.1319
  455loPI    C1 7265   4.687   7.180  10.768 -0.0825  0.2662  0.1284
  455loPI    C2 7266   4.337   7.372  10.733 -0.1336  0.1791  0.1582
  455loPI    C3 7267   4.421   7.166  11.066 -0.1449  0.0194  0.0637
  455loPI   PO4 7268   4.739   7.189  10.508  0.0585  0.1218  0.0371
  455loPI   GL1 7269   4.571   7.322  10.241 -0.0346 -0.2244 -0.0156
  455loPI   GL2 7270   4.182   7.229  10.252  0.1211 -0.0908  0.0183
  455loPI   C1A 7271   4.637   7.360   9.739 -0.0628 -0.2434  0.0636
  455loPI   C2A 7272   4.617   7.490   9.282  0.2843 -0.1763  0.0147
  455loPI   C3A 7273   4.685   7.396   8.891  0.1945  0.0850  0.4645
  455loPI   C4A 7274   4.479   7.345   8.530 -0.0080 -0.0082  0.0853
  455loPI   C5A 7275   4.409   7.014   8.097 -0.0154 -0.1100 -0.2047
  455loPI   C6A 7276   4.716   6.799   7.869 -0.4208 -0.1087 -0.0262
  455loPI   C1B 7277   4.178   7.261   9.864  0.0186  0.0070  0.3867
  455loPI   C2B 7278   4.126   7.271   9.380 -0.2657 -0.0315 -0.0927
  455loPI   C3B 7279   4.188   7.289   9.043  0.0051  0.0850 -0.0451
  455loPI   C4B 7280   4.066   7.065   8.656 -0.3661  0.1073 -0.0457
  456loPI    C1 7281   0.010   1.089  10.945 -0.1365  0.2454  0.2654
  456loPI    C2 7282   0.179   0.813  11.179 -0.0980  0.0308 -0.0109
  456loPI    C3 7283   0.286   1.197  11.214  0.0322 -0.0230  0.2029
  456loPI   PO4 7284  -0.020   0.906  10.696 -0.0198  0.0296  0.1177
  456loPI   GL1 7285  -0.157   0.974  10.395  0.1653  0.0916  0.0204
  456loPI   GL2 7286  -0.417   0.995  10.317 -0.0770  0.1638 -0.0783
  456loPI   C1A 7287  -0.054   1.033   9.931  0.1185 -0.0964 -0.0927
  456loPI   C2A 7288  -0.115   1.033   9.441  0.0705  0.3385 -0.0299
  456loPI   C3A 7289  -0.104   1.088   8.977 -0.2428 -0.0143 -0.0782
  456loPI   C4A 7290  -0.188   1.129   8.583 -0.1544  0.0303  0.1444
  456loPI   C5A 7291   0.049   1.253   8.129 -0.1218  0.1518 -0.1574
  456loPI   C6A 7292  -0.155   1.476   7.882 -0.0742 -0.1634 -0.0173
  456loPI   C1B 7293  -0.508   0.948   9.870 -0.3956 -0.2357  0.0299
  456loPI   C2B 7294  -0.597   0.880   9.483  0.0230 -0.3253  0.2381
  456loPI   C3B 7295  -0.583   0.884   9.079 -0.0157 -0.2631  0.3051
  456loPI   C4B 7296  -0.724   1.030   8.608 -0.2631 -0.2633 -0.0771
  457loPI    C1 7297  14.988   4.046  10.440 -0.1566  0.2400 -0.0083
  457loPI    C2 7298  15.205   4.245  10.169 -0.1584 -0.0726 -0.2455
  457loPI    C3 7299  14.830   4.360  10.249 -0.0104  0.2908 -0.0469
  457loPI   PO4 7300  14.975   3.781  10.309 -0.1430  0.3204  0.2825
  457loPI   GL1 7301  15.278   3.788   9.975  0.0113 -0.1291  0.0122
  457loPI   GL2 7302  15.516   3.577   9.958 -0.1813  0.3241 -0.2680
  457loPI   C1A 7303  15.507   4.151   9.712 -0.0373 -0.4240 -0.1902
  457loPI   C2A 7304  15.593   4.115   9.278  0.1180  0.0068  0.2794
  457loPI   C3A 7305  15.609   4.074   8.842  0.0582 -0.1263  0.2701
  457loPI   C4A 7306  15.636   4.269   8.431  0.0532  0.3131 -0.0517
  457loPI   C5A 7307  15.866   4.431   8.107 -0.1187  0.0775 -0.1923
  457loPI   C6A 7308  15.981   4.730   7.857  0.4183  0.1502 -0.0075
  457loPI   C1B 7309  15.561   3.676   9.475  0.0430  0.1623  0.0280
  457loPI   C2B 7310  15.574   3.663   9.033 -0.0311  0.1728 -0.0824
  457loPI   C3B 7311  15.420   3.546   8.694  0.2129 -0.0749 -0.0245
  457loPI   C4B 7312  15.408   3.508   8.337 -0.1025 -0.1155 -0.0199
  458loPI    C1 7313  12.453  12.686  11.228  0.1518 -0.0032 -0.0867
  458loPI    C2 7314  12.486  13.084  11.252  0.2692  0.0052 -0.3492
  458loPI    C3 7315  12.755  12.849  11.433  0.0157  0.0373  0.0840
  458loPI   PO4 7316  12.358  12.611  10.925  0.0118 -0.2231  0.3617
  458loPI   GL1 7317  12.405  12.636  10.521  0.3522  0.2066 -0.1917
  458loPI   GL2 7318  12.768  12.763  10.507  0.3040  0.0516 -0.1799
  458loPI   C1A 7319  12.411  12.683  10.013 -0.1327  0.0012  0.0892
  458loPI   C2A 7320  12.406  12.732   9.580 -0.0623  0.1736  0.0665
  458loPI   C3A 7321  12.424  12.678   9.117 -0.0407 -0.0066 -0.0343
  458loPI   C4A 7322  12.515  12.660   8.741  0.1711  0.0739 -0.2244
  458loPI   C5A 7323  12.445  12.586   8.360  0.3414  0.0213 -0.1134
  458loPI   C6A 7324  12.059  12.237   8.237  0.1279 -0.0971 -0.1970
  458loPI   C1B 7325  12.945  12.852  10.130 -0.2502 -0.0379 -0.2256
  458loPI   C2B 7326  12.928  12.798   9.726 -0.0920 -0.1062 -0.3038
  458loPI   C3B 7327  12.919  12.844   9.360 -0.2964 -0.3446  0.1113
  458loPI   C4B 7328  12.942  12.880   8.937  0.0909 -0.2346 -0.1898
  459loPI    C1 7329   3.433   7.991  10.857 -0.0612 -0.1738  0.1986
  459loPI    C2 7330   3.739   7.871  11.085  0.1196 -0.1328 -0.0193
  459loPI    C3 7331   3.638   8.257  11.074  0.2500 -0.1021 -0.1735
  459loPI   PO4 7332   3.447   7.995  10.670  0.1259  0.1644  0.1211
  459loPI   GL1 7333   3.320   8.239  10.282  0.1456 -0.2642  0.1642
  459loPI   GL2 7334   3.069   8.280  10.177 -0.3228  0.1674  0.0872
  459loPI   C1A 7335   3.428   8.377   9.873  0.0798  0.1257 -0.0703
  459loPI   C2A 7336   3.411   8.385   9.455 -0.1443 -0.0340 -0.0306
  459loPI   C3A 7337   3.497   8.512   9.051 -0.1941  0.1210  0.4027
  459loPI   C4A 7338   3.560   8.506   8.558  0.2200 -0.1481 -0.0368
  459loPI   C5A 7339   3.541   8.178   8.271  0.0930 -0.4665  0.1855
  459loPI   C6A 7340   3.341   8.025   7.929  0.0848 -0.0097  0.1390
  459loPI   C1B 7341   2.881   8.224   9.843 -0.1578 -0.0204  0.1378
  459loPI   C2B 7342   2.936   8.257   9.407 -0.1365 -0.1237  0.1517
  459loPI   C3B 7343   2.944   8.318   8.960 -0.2396 -0.1642  0.0019
  459loPI   C4B 7344   3.087   8.362   8.560  0.1160  0.1887 -0.2899
  460loPI    C1 7345  17.766  12.561  10.839 -0.1248  0.1396 -0.0798
  460loPI    C2 7346  17.876  12.203  10.977  0.0170  0.1474 -0.1713
  460loPI    C3 7347  17.550  12.382  11.125  0.0754  0.0843  0.0385
  460loPI   PO4 7348  17.901  12.711  10.718  0.1243  0.0756  0.2736
  460loPI   GL1 7349  17.793  12.829  10.235 -0.2477 -0.1582  0.0814
  460loPI   GL2 7350  18.093  12.672  10.149 -0.0612  0.0917  0.3414
  460loPI   C1A 7351  17.589  12.865   9.858 -0.0412  0.1003 -0.0247
  460loPI   C2A 7352  17.588  12.942   9.414  0.2293  0.2897 -0.0862
  460loPI   C3A 7353  17.516  12.945   8.938 -0.2676 -0.3182  0.0017
  460loPI   C4A 7354  17.436  12.893   8.527  0.0478  0.1318 -0.0839
  460loPI   C5A 7355  17.251  12.776   8.139 -0.1259  0.5999 -0.0006
  460loPI   C6A 7356  16.924  12.567   7.910 -0.0113 -0.3845  0.4508
  460loPI   C1B 7357  17.884  12.450   9.715 -0.0596  0.0968  0.2920
  460loPI   C2B 7358  17.872  12.537   9.233  0.1039 -0.1099  0.0924
  460loPI   C3B 7359  17.931  12.648   8.827  0.3998  0.1158  0.3409
  460loPI   C4B 7360  17.952  12.863   8.381  0.0954 -0.1006 -0.0656
  461loPI    C1 7361   4.297   6.104  11.138 -0.1066 -0.0042  0.1126
  461loPI    C2 7362   4.653   6.203  11.293  0.0664 -0.3523 -0.0501
  461loPI    C3 7363   4.354   6.091  11.534  0.0348  0.0273  0.0941
  461loPI   PO4 7364   4.280   5.947  11.022 -0.4137  0.1948  0.3365
  461loPI   GL1 7365   4.215   5.914  10.570 -0.1409 -0.0388  0.2728
  461loPI   GL2 7366   4.438   5.895  10.495  0.2668 -0.2904 -0.1803
  461loPI   C1A 7367   4.020   6.071  10.211  0.2735  0.2903 -0.2098
  461loPI   C2A 7368   3.869   6.173   9.856  0.0284  0.2042 -0.1120
  461loPI   C3A 7369   3.868   6.068   9.469  0.1016 -0.3051  0.1902
  461loPI   C4A 7370   3.872   6.157   9.035  0.0661  0.1266 -0.0703
  461loPI   C5A 7371   3.695   6.134   8.594  0.1049  0.2852 -0.5067
  461loPI   C6A 7372   3.664   6.275   8.191  0.1181 -0.0297 -0.1604
  461loPI   C1B 7373   4.382   5.748  10.103  0.1330 -0.1180  0.0635
  461loPI   C2B 7374   4.372   5.764   9.680 -0.0857 -0.2603 -0.0449
  461loPI   C3B 7375   4.223   5.752   9.267  0.3340  0.0158  0.0012
  461loPI   C4B 7376   4.275   5.824   8.843 -0.1980  0.1920  0.0967
  462loPI    C1 7377  10.815  17.594  10.552 -0.0501 -0.1067 -0.1865
  462loPI    C2 7378  10.582  17.608  10.876  0.0467 -0.0743 -0.1177
  462loPI    C3 7379  10.620  17.931  10.643  0.1308 -0.0366 -0.0523
  462loPI   PO4 7380  10.751  17.430  10.445 -0.2850  0.0179 -0.2302
  462loPI   GL1 7381  10.486  17.331  10.174  0.0647 -0.1132  0.0522
  462loPI   GL2 7382  10.218  17.394  10.114  0.3028 -0.1854  0.0714
  462loPI   C1A 7383  10.625  17.392   9.789  0.0555  0.0311  0.1370
  462loPI   C2A 7384  10.524  17.374   9.326 -0.0528 -0.1773 -0.2787
  462loPI   C3A 7385  10.501  17.334   8.828  0.0369  0.0997 -0.3434
  462loPI   C4A 7386  10.523  17.287   8.466  0.1111  0.3559  0.3344
  462loPI   C5A 7387  10.415  17.427   8.071  0.3210 -0.1469  0.2744
  462loPI   C6A 7388  10.288  17.435   7.716 -0.1376  0.2058  0.0318
  462loPI   C1B 7389  10.155  17.214   9.614  0.1230  0.2413 -0.0738
  462loPI   C2B 7390  10.093  17.197   9.132  0.0687  0.0990  0.0622
  462loPI   C3B 7391  10.046  17.190   8.744  0.1830  0.2007  0.3592
  462loPI   C4B 7392  10.014  17.159   8.311 -0.2236 -0.3012  0.0113
  463loPI    C1 7393   8.514  15.737  11.002 -0.1994  0.2179 -0.2821
  463loPI    C2 7394   8.177  15.896  11.148 -0.2059  0.0191 -0.0760
  463loPI    C3 7395   8.498  15.854  11.384 -0.1700 -0.1723 -0.1576
  463loPI   PO4 7396   8.560  15.730  10.724 -0.0543  0.1551 -0.0708
  463loPI   GL1 7397   8.326  15.673  10.477 -0.3246 -0.3568 -0.0644
  463loPI   GL2 7398   8.474  15.789  10.242 -0.1223  0.1172  0.4662
  463loPI   C1A 7399   8.277  15.266  10.209 -0.3100  0.0218 -0.4116
  463loPI   C2A 7400   8.259  15.303   9.773  0.1728 -0.3890  0.1016
  463loPI   C3A 7401   8.318  15.302   9.364 -0.1126 -0.1175  0.5141
  463loPI   C4A 7402   8.265  15.207   8.985  0.1448 -0.0107  0.1521
  463loPI   C5A 7403   8.364  15.018   8.509  0.0585  0.0132  0.1876
  463loPI   C6A 7404   8.351  14.591   8.430  0.0739 -0.0005 -0.3281
  463loPI   C1B 7405   8.437  15.728   9.918 -0.0093 -0.0654 -0.2636
  463loPI   C2B 7406   8.385  15.801   9.553 -0.2003  0.1071  0.0436
  463loPI   C3B 7407   8.373  15.701   9.099  0.2517  0.0859  0.0174
  463loPI   C4B 7408   8.333  15.697   8.649 -0.3447 -0.0045  0.0822
  464loPI    C1 7409  12.954  15.933  10.930 -0.0284 -0.1335 -0.0456
  464loPI    C2 7410  13.045  15.967  11.318  0.1285  0.0185 -0.0945
  464loPI    C3 7411  12.690  15.817  11.208  0.1879 -0.2760  0.1032
  464loPI   PO4 7412  13.148  15.826  10.721  0.0998  0.0331 -0.0909
  464loPI   GL1 7413  13.262  15.911  10.319  0.2297  0.3912  0.0033
  464loPI   GL2 7414  13.285  16.205  10.100  0.0838  0.2809  0.1626
  464loPI   C1A 7415  13.188  15.755   9.953 -0.0794  0.3849  0.1940
  464loPI   C2A 7416  13.132  15.731   9.548  0.1741  0.4893 -0.1397
  464loPI   C3A 7417  13.135  15.715   9.158 -0.2469  0.3987 -0.1401
  464loPI   C4A 7418  13.143  15.645   8.820  0.0999 -0.1273  0.0040
  464loPI   C5A 7419  12.835  15.734   8.559  0.0058  0.1123 -0.0727
  464loPI   C6A 7420  12.506  15.719   8.221 -0.0801 -0.0825  0.0065
  464loPI   C1B 7421  13.278  16.228   9.627 -0.1932 -0.0103 -0.1032
  464loPI   C2B 7422  13.205  16.196   9.159 -0.0306 -0.0015 -0.0065
  464loPI   C3B 7423  13.164  16.186   8.682  0.0785  0.1272 -0.4077
  464loPI   C4B 7424  13.245  16.143   8.140 -0.1553 -0.1768  0.2174
  465loPI    C1 7425   8.671   2.264  10.975 -0.1210  0.1810 -0.1395
  465loPI    C2 7426   8.937   2.171  10.691 -0.0957  0.1997 -0.1221
  465loPI    C3 7427   9.063   2.284  11.053 -0.1288  0.0064 -0.0490
  465loPI   PO4 7428   8.505   2.446  10.838 -0.0275  0.1512  0.0570
  465loPI   GL1 7429   8.606   2.433  10.361 -0.0804 -0.1163 -0.2350
  465loPI   GL2 7430   8.850   2.643  10.237 -0.0217 -0.1077  0.0968
  465loPI   C1A 7431   8.201   2.356  10.039  0.0289  0.2139  0.2388
  465loPI   C2A 7432   8.180   2.279   9.620  0.3103 -0.2059  0.4120
  465loPI   C3A 7433   7.952   2.185   9.154 -0.1743  0.0933 -0.3635
  465loPI   C4A 7434   8.032   2.055   8.795 -0.0283 -0.0840 -0.1403
  465loPI   C5A 7435   8.018   2.234   8.420  0.0612 -0.0532  0.0642
  465loPI   C6A 7436   8.021   2.202   8.007 -0.0307  0.0073  0.0524
  465loPI   C1B 7437   8.705   2.458   9.803  0.1530  0.4932 -0.2036
  465loPI   C2B 7438   8.651   2.436   9.311  0.1522  0.1746  0.1141
  465loPI   C3B 7439   8.441   2.290   8.962 -0.1498 -0.3384  0.0664
  465loPI   C4B 7440   8.503   2.331   8.461 -0.3900 -0.0428  0.0349
  466loPI    C1 7441  17.321   7.615  10.825  0.2473 -0.0166  0.0734
  466loPI    C2 7442  17.277   7.401  11.160  0.0641  0.0356  0.0834
  466loPI    C3 7443  16.971   7.439  10.904  0.1867  0.0400 -0.0639
  466loPI   PO4 7444  17.493   7.468  10.679  0.3740 -0.2086  0.0220
  466loPI   GL1 7445  17.635   7.727  10.322 -0.3385  0.0884  0.0592
  466loPI   GL2 7446  17.392   7.921  10.410 -0.2944  0.2497 -0.2251
  466loPI   C1A 7447  17.717   7.467   9.936  0.0890  0.4576 -0.1990
  466loPI   C2A 7448  17.836   7.629   9.549  0.2400 -0.0336  0.1408
  466loPI   C3A 7449  17.774   7.700   9.171 -0.2509  0.2202 -0.1658
  466loPI   C4A 7450  17.842   7.736   8.728 -0.1095 -0.0314  0.1703
  466loPI   C5A 7451  17.803   7.807   8.360  0.3762  0.2662 -0.0788
  466loPI   C6A 7452  18.052   7.617   8.068  0.1811 -0.0774 -0.0721
  466loPI   C1B 7453  17.364   7.938   9.942 -0.1831 -0.1552 -0.2871
  466loPI   C2B 7454  17.448   7.974   9.512 -0.0401  0.4264  0.5172
  466loPI   C3B 7455  17.386   8.031   9.068  0.0244  0.2902  0.2250
  466loPI   C4B 7456  17.391   8.019   8.645  0.0805 -0.0148 -0.2331
  467loPI    C1 7457  10.516  10.837  11.108 -0.1558  0.0812  0.0239
  467loPI    C2 7458  10.607  11.209  10.992 -0.1575 -0.0070 -0.2704
  467loPI    C3 7459  10.759  11.062  11.332 -0.0882  0.2313 -0.1962
  467loPI   PO4 7460  10.520  10.728  10.794 -0.0207  0.0608 -0.2432
  467loPI   GL1 7461  10.779  10.799  10.486 -0.0167  0.2924 -0.1069
  467loPI   GL2 7462  10.706  11.130  10.363  0.5231 -0.1956 -0.2822
  467loPI   C1A 7463  10.942  10.774  10.057 -0.0701 -0.1598  0.2367
  467loPI   C2A 7464  11.028  10.808   9.698  0.0899  0.4343  0.2000
  467loPI   C3A 7465  11.045  10.838   9.360 -0.1630 -0.2137  0.3157
  467loPI   C4A 7466  11.158  10.901   8.936 -0.4109 -0.2055  0.0965
  467loPI   C5A 7467  11.094  10.933   8.441  0.2085  0.0641  0.0550
  467loPI   C6A 7468  10.729  10.968   8.123 -0.3144  0.2893  0.4568
  467loPI   C1B 7469  10.726  11.221   9.921 -0.3052  0.0660  0.3846
  467loPI   C2B 7470  10.657  11.218   9.491 -0.1539 -0.0302 -0.1811
  467loPI   C3B 7471  10.691  11.195   9.032 -0.0303 -0.0512 -0.1941
  467loPI   C4B 7472  10.723  11.223   8.666  0.2248 -0.0493 -0.1207
  468loPI    C1 7473  12.396  17.750  10.696  0.1349  0.1535 -0.0337
  468loPI    C2 7474  12.557  17.960  10.997 -0.0848  0.1116  0.1159
  468loPI    C3 7475  12.598  17.562  10.986  0.1842  0.1412 -0.0758
  468loPI   PO4 7476  12.501  17.885  10.452 -0.1838  0.1886 -0.0083
  468loPI   GL1 7477  12.688  17.799  10.113 -0.0724 -0.1055 -0.1476
  468loPI   GL2 7478  12.722  18.079   9.949 -0.1191  0.0929 -0.1934
  468loPI   C1A 7479  12.651  17.513   9.859  0.0986  0.0085 -0.2236
  468loPI   C2A 7480  12.662  17.426   9.442 -0.1407 -0.0754 -0.1740
  468loPI   C3A 7481  12.626  17.502   9.018 -0.1391 -0.0641  0.2032
  468loPI   C4A 7482  12.459  17.520   8.615  0.0658  0.0309 -0.1760
  468loPI   C5A 7483  12.207  17.744   8.224 -0.0029 -0.2738 -0.3881
  468loPI   C6A 7484  12.472  17.899   7.880 -0.0100  0.1270  0.2597
  468loPI   C1B 7485  12.752  18.032   9.456 -0.0636 -0.2851  0.0706
  468loPI   C2B 7486  12.813  18.073   9.007  0.2385 -0.0414  0.1351
  468loPI   C3B 7487  12.799  18.078   8.610  0.1882 -0.3420 -0.3152
  468loPI   C4B 7488  12.688  17.823   8.324  0.2955 -0.0316 -0.2833
  469loPI    C1 7489  15.208  11.507  10.958  0.1156  0.0734 -0.2543
  469loPI    C2 7490  15.501  11.764  11.047  0.0333  0.0861 -0.0143
  469loPI    C3 7491  15.547  11.373  11.120  0.0371  0.0723 -0.0890
  469loPI   PO4 7492  15.045  11.673  10.756 -0.0354  0.0006 -0.0549
  469loPI   GL1 7493  15.161  11.982  10.394 -0.1335 -0.0700  0.0010
  469loPI   GL2 7494  14.904  11.691  10.281 -0.0628 -0.1745 -0.0861
  469loPI   C1A 7495  15.034  12.019   9.982 -0.1913  0.1393  0.0780
  469loPI   C2A 7496  15.065  12.051   9.573  0.3409  0.2592 -0.1203
  469loPI   C3A 7497  15.067  12.044   9.120 -0.1042 -0.1157 -0.0072
  469loPI   C4A 7498  15.088  12.171   8.676  0.0702 -0.0384  0.2482
  469loPI   C5A 7499  15.014  12.073   8.246 -0.1139 -0.1196 -0.2362
  469loPI   C6A 7500  15.208  11.890   7.952 -0.0082  0.0375 -0.0548
  469loPI   C1B 7501  14.967  11.548   9.790 -0.0942  0.1951 -0.0485
  469loPI   C2B 7502  14.912  11.569   9.339 -0.0246  0.0558 -0.3250
  469loPI   C3B 7503  14.937  11.531   8.900 -0.0295 -0.0338 -0.2748
  469loPI   C4B 7504  15.006  11.627   8.381 -0.1383  0.2085 -0.3384
  470loPI    C1 7505   5.967   8.011  10.537 -0.1703  0.3411  0.4750
  470loPI    C2 7506   5.684   7.759  10.666  0.1715 -0.2219  0.1628
  470loPI    C3 7507   6.024   7.800  10.872  0.1787 -0.1283  0.1328
  470loPI   PO4 7508   5.820   7.918  10.227  0.1198 -0.3056 -0.0450
  470loPI   GL1 7509   5.836   8.145   9.776  0.1319  0.1260  0.2634
  470loPI   GL2 7510   5.706   8.350   9.765 -0.2121 -0.0571 -0.1236
  470loPI   C1A 7511   6.165   7.929   9.513  0.3752 -0.1159  0.1006
  470loPI   C2A 7512   6.139   7.860   8.987  0.0702  0.1508  0.0954
  470loPI   C3A 7513   6.080   7.889   8.591 -0.1247 -0.0390 -0.0498
  470loPI   C4A 7514   5.987   7.878   8.191  0.0311  0.1349  0.0362
  470loPI   C5A 7515   6.014   7.956   7.660 -0.0477 -0.2725 -0.2739
  470loPI   C6A 7516   6.027   7.832   7.195  0.1780  0.3155  0.1964
  470loPI   C1B 7517   5.841   8.280   9.323  0.0486 -0.0057  0.0539
  470loPI   C2B 7518   5.764   8.274   8.886 -0.1428  0.1279 -0.0251
  470loPI   C3B 7519   5.707   8.152   8.445  0.1098 -0.1807  0.2269
  470loPI   C4B 7520   5.847   8.323   8.045  0.3681 -0.0893 -0.0620
  471loPI    C1 7521   6.369   0.710  11.128  0.1139  0.1190 -0.0576
  471loPI    C2 7522   6.734   0.594  11.240  0.0712  0.0711  0.0330
  471loPI    C3 7523   6.525   0.847  11.469  0.0035  0.0120  0.0368
  471loPI   PO4 7524   6.352   0.768  10.872  0.2032 -0.1374 -0.2515
  471loPI   GL1 7525   6.060   0.862  10.495 -0.1076 -0.2138 -0.0603
  471loPI   GL2 7526   5.963   0.541  10.387 -0.1821 -0.1878 -0.4081
  471loPI   C1A 7527   6.087   0.943  10.037  0.3663  0.3192 -0.2251
  471loPI   C2A 7528   6.017   1.021   9.568 -0.2485 -0.1209 -0.0009
  471loPI   C3A 7529   5.932   1.054   9.120  0.0812 -0.1305 -0.2251
  471loPI   C4A 7530   5.964   1.209   8.680  0.1800 -0.1281  0.1200
  471loPI   C5A 7531   6.119   1.187   8.294 -0.0562  0.0795  0.4847
  471loPI   C6A 7532   5.943   1.561   8.008  0.0626 -0.0856  0.2864
  471loPI   C1B 7533   5.852   0.551   9.982  0.1786  0.2651 -0.1289
  471loPI   C2B 7534   5.919   0.553   9.539 -0.1102 -0.0963 -0.1578
  471loPI   C3B 7535   5.866   0.478   9.111 -0.2256 -0.0785 -0.2030
  471loPI   C4B 7536   5.887   0.722   8.695  0.0243  0.0384  0.1365
  472loPI    C1 7537   3.571  12.156  11.085 -0.0170 -0.2327 -0.2675
  472loPI    C2 7538   3.906  11.992  11.229 -0.0805 -0.1045  0.0350
  472loPI    C3 7539   3.557  11.926  11.412 -0.1711  0.0253 -0.0888
  472loPI   PO4 7540   3.617  12.232  10.810 -0.0161 -0.0123  0.0678
  472loPI   GL1 7541   3.920  12.556  10.534  0.2635  0.3287 -0.1106
  472loPI   GL2 7542   4.225  12.676  10.488  0.0721 -0.0429  0.0054
  472loPI   C1A 7543   3.890  12.343  10.151 -0.2920  0.0601  0.1993
  472loPI   C2A 7544   3.996  12.465   9.810 -0.0069  0.2543 -0.2294
  472loPI   C3A 7545   3.951  12.487   9.390 -0.0819  0.0299  0.0048
  472loPI   C4A 7546   3.999  12.470   8.926 -0.0997 -0.2792  0.1236
  472loPI   C5A 7547   3.948  12.571   8.568 -0.0734 -0.1122 -0.2431
  472loPI   C6A 7548   3.776  12.506   8.239  0.0138 -0.0906  0.2419
  472loPI   C1B 7549   4.041  12.843  10.135  0.0664  0.0697  0.0883
  472loPI   C2B 7550   4.086  12.954   9.701 -0.1641 -0.1164 -0.1238
  472loPI   C3B 7551   4.043  12.976   9.231  0.1393 -0.0472 -0.2880
  472loPI   C4B 7552   4.009  13.013   8.787 -0.0103 -0.0961 -0.2789
  473loPI    C1 7553   8.402   6.169  10.935 -0.1299 -0.0892 -0.1095
  473loPI    C2 7554   8.206   6.165  11.284 -0.3064 -0.0262 -0.2066
  473loPI    C3 7555   8.469   5.876  11.200 -0.1254  0.0588  0.0546
  473loPI   PO4 7556   8.235   6.142  10.774 -0.2133 -0.1768 -0.0019
  473loPI   GL1 7557   8.210   6.109  10.278 -0.3508  0.1201  0.2864
  473loPI   GL2 7558   8.276   5.795  10.193 -0.4268 -0.0887 -0.1707
  473loPI   C1A 7559   7.973   6.134   9.839 -0.0181  0.0020  0.1322
  473loPI   C2A 7560   7.942   6.140   9.478  0.0945 -0.1748  0.1670
  473loPI   C3A 7561   8.001   6.142   9.082  0.1928  0.2348  0.3126
  473loPI   C4A 7562   7.987   6.016   8.631 -0.3443 -0.1036 -0.1614
  473loPI   C5A 7563   7.982   5.728   8.220  0.1412 -0.3698 -0.3936
  473loPI   C6A 7564   7.987   5.428   7.857  0.1411  0.2264  0.2960
  473loPI   C1B 7565   8.027   5.573   9.874  0.1017 -0.0626  0.1920
  473loPI   C2B 7566   7.834   5.618   9.430 -0.1115 -0.2030 -0.0127
  473loPI   C3B 7567   7.776   5.605   9.000  0.0526  0.0543  0.1077
  473loPI   C4B 7568   7.780   5.542   8.674 -0.2133  0.0241  0.1356
  474loPI    C1 7569   1.292  13.144  11.131 -0.1919 -0.1017 -0.0231
  474loPI    C2 7570   0.968  13.326  10.983 -0.1735  0.0142  0.0778
  474loPI    C3 7571   1.203  13.517  11.244 -0.0101 -0.0606 -0.0134
  474loPI   PO4 7572   1.401  13.005  10.851 -0.2310  0.1382  0.1721
  474loPI   GL1 7573   1.343  13.179  10.436 -0.1731 -0.2503  0.2866
  474loPI   GL2 7574   1.606  13.187  10.355  0.0812  0.7234 -0.1646
  474loPI   C1A 7575   1.237  13.123   9.982  0.0064 -0.0479  0.0322
  474loPI   C2A 7576   1.201  13.137   9.485 -0.0519 -0.1670 -0.3634
  474loPI   C3A 7577   1.230  13.106   9.088  0.2439  0.2948 -0.0181
  474loPI   C4A 7578   1.208  13.066   8.674  0.2198  0.1996 -0.1538
  474loPI   C5A 7579   1.451  12.999   8.317 -0.1522  0.1573 -0.2035
  474loPI   C6A 7580   1.757  12.591   8.246  0.0697 -0.2975 -0.0919
  474loPI   C1B 7581   1.829  13.243   9.897  0.1970 -0.1046 -0.1178
  474loPI   C2B 7582   1.734  13.214   9.495 -0.0954 -0.5133 -0.1254
  474loPI   C3B 7583   1.728  13.194   9.052 -0.0759 -0.1842  0.1514
  474loPI   C4B 7584   1.788  13.292   8.626 -0.2107  0.0661 -0.2014
  475loPI    C1 7585   6.947  14.509  11.214 -0.0084 -0.0956  0.0434
  475loPI    C2 7586   6.595  14.693  11.259  0.1113  0.1491 -0.0022
  475loPI    C3 7587   6.919  14.836  11.444  0.2316  0.0577 -0.1405
  475loPI   PO4 7588   7.003  14.527  10.959 -0.1904 -0.1407 -0.1685
  475loPI   GL1 7589   6.693  14.617  10.795 -0.2068  0.0181 -0.3002
  475loPI   GL2 7590   6.427  14.872  10.773  0.1221 -0.0661  0.0943
  475loPI   C1A 7591   6.809  14.699  10.313 -0.0745  0.0159  0.1503
  475loPI   C2A 7592   6.767  14.769   9.819  0.1579 -0.2057  0.1014
  475loPI   C3A 7593   6.827  14.856   9.435  0.0364  0.2438  0.4210
  475loPI   C4A 7594   6.773  14.793   8.944 -0.2048 -0.2326 -0.1588
  475loPI   C5A 7595   6.871  14.791   8.501  0.2487 -0.2856  0.1144
  475loPI   C6A 7596   7.133  14.956   8.223  0.0418 -0.1892 -0.1343
  475loPI   C1B 7597   6.287  14.642  10.392  0.0452  0.1382 -0.0706
  475loPI   C2B 7598   6.315  14.656  10.000  0.0691  0.1259  0.0392
  475loPI   C3B 7599   6.358  14.592   9.595  0.1577 -0.2818  0.0822
  475loPI   C4B 7600   6.180  14.582   9.132  0.3074  0.0774  0.3428
  476loPI    C1 7601   0.777  10.231  10.657 -0.0347  0.0668 -0.0080
  476loPI    C2 7602   0.566  10.103  10.972  0.1208 -0.0226  0.0612
  476loPI    C3 7603   0.711  10.476  10.967  0.0885 -0.0097  0.0800
  476loPI   PO4 7604   0.631  10.258  10.425  0.0159  0.1693 -0.0804
  476loPI   GL1 7605   0.358  10.555  10.237 -0.0370  0.0157 -0.0193
  476loPI   GL2 7606   0.586  10.402   9.897  0.1840 -0.2831 -0.1921
  476loPI   C1A 7607   0.263  10.785   9.804  0.2000  0.0182 -0.0569
  476loPI   C2A 7608   0.333  10.860   9.389 -0.0861 -0.1471  0.3929
  476loPI   C3A 7609   0.440  10.903   8.966 -0.3887 -0.1542  0.1139
  476loPI   C4A 7610   0.310  10.931   8.597  0.0942  0.0392 -0.4590
  476loPI   C5A 7611  -0.180  10.767   8.474  0.0247 -0.4945  0.1899
  476loPI   C6A 7612  -0.590  10.690   8.281 -0.2843  0.0323 -0.4126
  476loPI   C1B 7613   0.696  10.413   9.513  0.2598 -0.0518  0.2396
  476loPI   C2B 7614   0.795  10.524   9.100 -0.0405 -0.0062  0.2092
  476loPI   C3B 7615   0.721  10.616   8.697 -0.0571  0.0048  0.1025
  476loPI   C4B 7616   0.657  10.742   8.317  0.2446  0.1964  0.0746
  477loPI    C1 7617   6.348  12.783  11.223 -0.0912 -0.1240  0.1820
  477loPI    C2 7618   6.632  12.774  11.505  0.1918  0.0752 -0.0901
  477loPI    C3 7619   6.352  13.060  11.511  0.1211  0.0036  0.0590
  477loPI   PO4 7620   6.478  12.791  10.950  0.0432 -0.1016  0.1469
  477loPI   GL1 7621   6.449  12.697  10.523  0.0521  0.2587 -0.0063
  477loPI   GL2 7622   6.252  12.996  10.505 -0.0050  0.1736  0.1984
  477loPI   C1A 7623   6.358  12.692  10.155 -0.2056 -0.1232  0.3161
  477loPI   C2A 7624   6.284  12.688   9.722 -0.0784  0.1435 -0.1008
  477loPI   C3A 7625   6.230  12.734   9.275  0.0964  0.2905 -0.5537
  477loPI   C4A 7626   6.258  12.688   8.849 -0.2269  0.0327 -0.1359
  477loPI   C5A 7627   6.114  12.812   8.418  0.0117 -0.0376 -0.1155
  477loPI   C6A 7628   6.295  13.043   8.157 -0.0744  0.4197 -0.0681
  477loPI   C1B 7629   6.472  13.173  10.121 -0.0183 -0.0091 -0.2161
  477loPI   C2B 7630   6.419  13.169   9.697  0.0790  0.3250  0.4226
  477loPI   C3B 7631   6.372  13.238   9.269  0.0645 -0.3174 -0.0640
  477loPI   C4B 7632   6.342  13.215   8.777 -0.1363  0.2961  0.2492
  478loPI    C1 7633   5.126  13.281  10.748  0.0697  0.0935 -0.0876
  478loPI    C2 7634   5.056  13.389  11.127 -0.0860 -0.0460 -0.0753
  478loPI    C3 7635   5.430  13.317  11.005  0.0066  0.3649 -0.0483
  478loPI   PO4 7636   4.861  13.077  10.734  0.0915  0.0793 -0.1179
  478loPI   GL1 7637   4.738  12.849  10.427  0.3288 -0.0202  0.1729
  478loPI   GL2 7638   5.041  13.099  10.255  0.1270  0.3172 -0.0856
  478loPI   C1A 7639   4.535  12.889  10.000  0.0843  0.1001 -0.0830
  478loPI   C2A 7640   4.579  13.041   9.594 -0.1514 -0.1764  0.0157
  478loPI   C3A 7641   4.545  13.214   9.169 -0.0191  0.1459  0.2261
  478loPI   C4A 7642   4.552  13.217   8.687  0.0339 -0.4963 -0.3715
  478loPI   C5A 7643   4.336  13.147   8.307  0.3422 -0.0967 -0.0693
  478loPI   C6A 7644   3.876  13.053   8.314 -0.1918 -0.4099  0.0097
  478loPI   C1B 7645   5.009  13.134   9.767 -0.2861  0.3634  0.2108
  478loPI   C2B 7646   5.002  13.246   9.375  0.3136  0.4065 -0.0151
  478loPI   C3B 7647   5.025  13.310   8.980 -0.0338  0.1442 -0.0683
  478loPI   C4B 7648   5.187  13.333   8.497  0.1125 -0.0776 -0.0306
  479loPI    C1 7649  12.799   5.376  10.561 -0.0138  0.2462  0.0772
  479loPI    C2 7650  13.041   5.068  10.641  0.0695  0.2778 -0.0495
  479loPI    C3 7651  12.962   5.340  10.924 -0.3725 -0.1065  0.2107
  479loPI   PO4 7652  12.858   5.418  10.163 -0.0816  0.2558  0.1945
  479loPI   GL1 7653  13.086   5.488   9.801 -0.0901  0.4700  0.3709
  479loPI   GL2 7654  13.111   5.837   9.804 -0.0071  0.1266 -0.1232
  479loPI   C1A 7655  13.130   5.232   9.389 -0.1365  0.3686 -0.0225
  479loPI   C2A 7656  13.053   5.247   8.909 -0.2512 -0.0432 -0.3072
  479loPI   C3A 7657  13.038   5.139   8.417  0.1794  0.2880 -0.1741
  479loPI   C4A 7658  13.119   5.052   8.007  0.5144  0.0185 -0.2037
  479loPI   C5A 7659  12.954   5.019   7.618 -0.4194 -0.0374  0.3129
  479loPI   C6A 7660  12.569   5.005   7.466  0.1482  0.0750  0.3042
  479loPI   C1B 7661  13.158   5.810   9.298 -0.0558  0.1117  0.0045
  479loPI   C2B 7662  13.227   5.807   8.828 -0.2331  0.1684  0.0262
  479loPI   C3B 7663  13.136   5.641   8.497 -0.2187  0.1106  0.0413
  479loPI   C4B 7664  13.061   5.559   8.171  0.2421  0.1278 -0.0918
  480loPI    C1 7665  11.019   8.217  10.788 -0.1868  0.1086 -0.2833
  480loPI    C2 7666  11.130   8.542  10.992  0.0223 -0.1063 -0.0477
  480loPI    C3 7667  10.812   8.557  10.750 -0.1055  0.2095  0.1333
  480loPI   PO4 7668  11.234   8.122  10.669 -0.0832 -0.4766 -0.0686
  480loPI   GL1 7669  11.164   8.107  10.227  0.1778  0.1582  0.1822
  480loPI   GL2 7670  10.981   7.984  10.071 -0.2513 -0.1845 -0.2142
  480loPI   C1A 7671  11.347   8.291   9.992 -0.2034 -0.1698 -0.0332
  480loPI   C2A 7672  11.429   8.492   9.643  0.2204 -0.0901  0.1103
  480loPI   C3A 7673  11.435   8.603   9.260 -0.0292 -0.0064  0.0247
  480loPI   C4A 7674  11.485   8.653   8.749 -0.0468 -0.2462  0.3392
  480loPI   C5A 7675  11.705   8.795   8.295  0.0210  0.0937 -0.0740
  480loPI   C6A 7676  11.765   9.031   7.903 -0.0055  0.2082  0.0624
  480loPI   C1B 7677  10.769   7.863   9.653 -0.1567  0.1543 -0.0016
  480loPI   C2B 7678  10.931   7.872   9.204 -0.0257  0.2200  0.0079
  480loPI   C3B 7679  10.897   7.813   8.711 -0.1156  0.0103  0.2838
  480loPI   C4B 7680  11.055   7.997   8.239 -0.1003  0.0491 -0.0722
  481loPI    C1 7681   9.596  13.652  11.247 -0.0457 -0.0498  0.0521
  481loPI    C2 7682   9.281  13.731  11.481 -0.1717 -0.2813 -0.0360
  481loPI    C3 7683   9.641  13.668  11.644 -0.1432  0.0974  0.0583
  481loPI   PO4 7684   9.547  13.628  11.028 -0.0868 -0.1417  0.0885
  481loPI   GL1 7685   9.255  13.724  10.641  0.1485  0.0392 -0.0605
  481loPI   GL2 7686   9.083  14.061  10.646 -0.2447 -0.4000  0.0295
  481loPI   C1A 7687   9.337  13.739  10.133  0.2629  0.0137  0.3729
  481loPI   C2A 7688   9.406  13.747   9.697  0.2797  0.0987 -0.3785
  481loPI   C3A 7689   9.295  13.703   9.233  0.0235  0.2942 -0.1152
  481loPI   C4A 7690   9.370  13.569   8.852  0.2071  0.2123 -0.1286
  481loPI   C5A 7691   9.427  13.514   8.406  0.0436  0.0429 -0.1335
  481loPI   C6A 7692   9.407  13.148   8.105  0.1239  0.0899  0.1945
  481loPI   C1B 7693   8.886  13.963  10.223 -0.1749 -0.1149 -0.0816
  481loPI   C2B 7694   8.983  14.004   9.887  0.1616  0.2346 -0.1992
  481loPI   C3B 7695   8.955  14.045   9.520 -0.1995 -0.2577 -0.1331
  481loPI   C4B 7696   8.872  14.008   9.219 -0.0690  0.0748 -0.0782
  482loPI    C1 7697   3.718   6.691  11.013  0.1761  0.1737 -0.0189
  482loPI    C2 7698   3.577   6.542  11.357  0.2900 -0.0675 -0.0748
  482loPI    C3 7699   3.972   6.560  11.293  0.3004  0.6689  0.1095
  482loPI   PO4 7700   3.616   6.573  10.786  0.3520  0.2527  0.1414
  482loPI   GL1 7701   3.526   6.458  10.432 -0.0660 -0.0991  0.0375
  482loPI   GL2 7702   3.180   6.364  10.371  0.0215  0.0735 -0.0449
  482loPI   C1A 7703   3.480   6.544  10.052 -0.1003 -0.0585  0.0782
  482loPI   C2A 7704   3.497   6.485   9.683  0.0951  0.0319 -0.2196
  482loPI   C3A 7705   3.439   6.590   9.340  0.1670 -0.1905  0.0670
  482loPI   C4A 7706   3.525   6.531   8.899  0.0796 -0.4283  0.2102
  482loPI   C5A 7707   3.487   6.613   8.507 -0.0788 -0.1543  0.2279
  482loPI   C6A 7708   3.377   7.031   8.262 -0.0087 -0.0291 -0.0925
  482loPI   C1B 7709   3.065   6.297   9.914  0.1476  0.2548  0.1102
  482loPI   C2B 7710   3.051   6.291   9.474  0.3554  0.0049  0.0245
  482loPI   C3B 7711   3.036   6.463   9.048 -0.2267  0.1435  0.1020
  482loPI   C4B 7712   3.098   6.386   8.688  0.1269  0.0324 -0.0135
  483loPI    C1 7713  14.763  14.131  10.812 -0.1705  0.0034  0.1663
  483loPI    C2 7714  14.840  14.029  11.191 -0.0496 -0.2312  0.0809
  483loPI    C3 7715  14.544  13.847  10.991 -0.3120  0.1045  0.1548
  483loPI   PO4 7716  14.988  14.152  10.730  0.1439  0.0454  0.1419
  483loPI   GL1 7717  15.263  13.955  10.351 -0.2331  0.0337  0.3666
  483loPI   GL2 7718  15.468  14.124  10.284 -0.1688  0.1716 -0.2287
  483loPI   C1A 7719  15.060  13.908   9.901 -0.1161 -0.1013  0.0666
  483loPI   C2A 7720  14.931  13.915   9.455 -0.1287  0.1821 -0.2121
  483loPI   C3A 7721  15.023  14.003   8.932  0.2414 -0.0259  0.0528
  483loPI   C4A 7722  15.071  14.118   8.595 -0.0088 -0.2463  0.3066
  483loPI   C5A 7723  14.976  14.011   8.206  0.0325  0.2807 -0.0381
  483loPI   C6A 7724  14.865  13.644   7.964 -0.2945 -0.0687 -0.1981
  483loPI   C1B 7725  15.576  14.168   9.877 -0.1087 -0.1190 -0.0672
  483loPI   C2B 7726  15.575  14.094   9.444  0.0096 -0.1370  0.1078
  483loPI   C3B 7727  15.540  14.167   9.002  0.1958 -0.0399  0.1907
  483loPI   C4B 7728  15.513  14.215   8.571  0.1464 -0.2736  0.1563
  484loPI    C1 7729  10.599   4.938  10.256  0.1371 -0.0333 -0.1737
  484loPI    C2 7730  10.861   4.699  10.441  0.0203 -0.0111  0.0235
  484loPI    C3 7731  10.621   4.937  10.655 -0.0452  0.0921 -0.1618
  484loPI   PO4 7732  10.367   4.811  10.106 -0.4299 -0.0563  0.0890
  484loPI   GL1 7733  10.097   4.931   9.745 -0.1330 -0.0912 -0.2137
  484loPI   GL2 7734  10.020   4.703   9.742  0.3946  0.3892  0.2159
  484loPI   C1A 7735  10.127   5.227   9.234  0.0929 -0.1110  0.0479
  484loPI   C2A 7736  10.111   5.241   8.767  0.0699 -0.0975 -0.2635
  484loPI   C3A 7737  10.035   5.214   8.314 -0.0021 -0.1009  0.2856
  484loPI   C4A 7738  10.157   5.321   7.952 -0.1390 -0.1146 -0.1702
  484loPI   C5A 7739  10.234   5.527   7.606 -0.2596 -0.0145 -0.1129
  484loPI   C6A 7740  10.176   5.860   7.383 -0.2011 -0.1306 -0.0168
  484loPI   C1B 7741  10.092   4.715   9.230  0.1200  0.2120  0.0550
  484loPI   C2B 7742   9.941   4.742   8.852 -0.1769 -0.1929 -0.0973
  484loPI   C3B 7743   9.848   4.775   8.440  0.1054  0.1999  0.0948
  484loPI   C4B 7744   9.782   4.790   8.031 -0.0619 -0.0357 -0.0832
  485loPI    C1 7745   5.519   0.396  11.233  0.0011  0.0048 -0.1037
  485loPI    C2 7746   5.640   0.068  11.039  0.1096  0.0850 -0.1727
  485loPI    C3 7747   5.669   0.086  11.437  0.0453 -0.0131 -0.1631
  485loPI   PO4 7748   5.556   0.551  11.070  0.0224 -0.4979 -0.2328
  485loPI   GL1 7749   5.513   0.604  10.647 -0.0706 -0.1131 -0.2883
  485loPI   GL2 7750   5.478   0.307  10.630  0.2953  0.0344  0.0212
  485loPI   C1A 7751   5.542   0.802  10.269  0.3426  0.1155  0.2505
  485loPI   C2A 7752   5.486   0.864   9.903  0.1569 -0.0412  0.0858
  485loPI   C3A 7753   5.550   0.892   9.532 -0.2920 -0.1804 -0.2098
  485loPI   C4A 7754   5.489   0.799   9.139  0.3063  0.0757 -0.1461
  485loPI   C5A 7755   5.394   0.782   8.623 -0.1954 -0.0122 -0.0187
  485loPI   C6A 7756   5.455   0.778   8.174 -0.2143 -0.0353 -0.2226
  485loPI   C1B 7757   5.505   0.299  10.289 -0.2383  0.3165  0.4882
  485loPI   C2B 7758   5.342   0.414   9.810 -0.2655 -0.3214 -0.2090
  485loPI   C3B 7759   5.378   0.402   9.415  0.0192 -0.1796  0.1575
  485loPI   C4B 7760   5.291   0.363   8.957  0.2819 -0.2025  0.2610
  486loPI    C1 7761   8.798   4.029  10.460 -0.0297  0.1066  0.0535
  486loPI    C2 7762   8.538   3.847  10.705  0.0790  0.0279  0.1114
  486loPI    C3 7763   8.607   4.240  10.742  0.1536  0.0015  0.2594
  486loPI   PO4 7764   8.773   3.950  10.226  0.3798  0.0378 -0.3278
  486loPI   GL1 7765   8.570   3.847   9.800 -0.1652 -0.2626  0.2073
  486loPI   GL2 7766   8.646   3.580   9.864  0.0428  0.0109  0.0022
  486loPI   C1A 7767   8.450   3.702   9.399  0.0994  0.1067  0.3554
  486loPI   C2A 7768   8.356   3.618   8.959  0.0606 -0.1387 -0.0393
  486loPI   C3A 7769   8.342   3.587   8.482 -0.1601  0.2067  0.0008
  486loPI   C4A 7770   8.317   3.492   8.025  0.0667  0.0462  0.2972
  486loPI   C5A 7771   8.090   3.520   7.577  0.1429  0.1955 -0.0011
  486loPI   C6A 7772   8.139   3.088   7.571 -0.0038 -0.2075 -0.4675
  486loPI   C1B 7773   8.440   3.243   9.659  0.1738 -0.3050  0.0115
  486loPI   C2B 7774   8.291   3.213   9.279 -0.0599 -0.1067 -0.4086
  486loPI   C3B 7775   8.120   3.205   8.837 -0.0259  0.0262  0.1547
  486loPI   C4B 7776   8.127   3.153   8.464  0.1654 -0.0692  0.1362
  487loPI    C1 7777  13.333   9.692  10.503 -0.0069 -0.0490 -0.1014
  487loPI    C2 7778  13.081   9.929  10.301  0.0207 -0.0114 -0.0918
  487loPI    C3 7779  13.176  10.014  10.680  0.2311  0.1068 -0.1693
  487loPI   PO4 7780  13.574   9.627  10.316  0.2361  0.0720  0.0101
  487loPI   GL1 7781  13.676   9.668   9.907 -0.0856  0.0333  0.0037
  487loPI   GL2 7782  14.000   9.703   9.930 -0.1664  0.1202  0.2671
  487loPI   C1A 7783  13.590   9.720   9.463 -0.0523 -0.0146 -0.5744
  487loPI   C2A 7784  13.744   9.627   9.061 -0.0086 -0.0771 -0.1643
  487loPI   C3A 7785  13.686   9.550   8.584  0.0618  0.0369  0.0552
  487loPI   C4A 7786  13.610   9.552   8.119  0.1189 -0.2392  0.1821
  487loPI   C5A 7787  13.324   9.601   7.773 -0.1168  0.1552  0.1117
  487loPI   C6A 7788  13.099   9.746   7.386  0.0877 -0.1061 -0.1501
  487loPI   C1B 7789  14.036   9.867   9.549  0.0057 -0.4610 -0.0395
  487loPI   C2B 7790  14.214   9.878   9.151 -0.0671 -0.1600  0.1780
  487loPI   C3B 7791  14.146   9.792   8.705  0.1168  0.1213 -0.0047
  487loPI   C4B 7792  14.038   9.756   8.265 -0.1279 -0.1327 -0.2152
  488loPI    C1 7793   0.838   9.318  11.009  0.0984  0.0522  0.2201
  488loPI    C2 7794   0.886   9.713  11.058 -0.0465  0.0937  0.0361
  488loPI    C3 7795   0.525   9.547  11.105 -0.0207  0.0096 -0.0579
  488loPI   PO4 7796   1.042   9.305  10.782 -0.3053  0.0462  0.2500
  488loPI   GL1 7797   1.053   9.474  10.428 -0.0334 -0.0484  0.1691
  488loPI   GL2 7798   1.381   9.627  10.281 -0.2454  0.2987 -0.1705
  488loPI   C1A 7799   0.893   9.587  10.015 -0.0055 -0.0600 -0.2626
  488loPI   C2A 7800   0.867   9.611   9.595  0.2601 -0.0771 -0.2939
  488loPI   C3A 7801   1.023   9.680   9.250  0.0148  0.1726  0.0220
  488loPI   C4A 7802   1.016   9.790   8.819 -0.1783  0.0963  0.0044
  488loPI   C5A 7803   1.009   9.858   8.411  0.0959  0.0792  0.2200
  488loPI   C6A 7804   1.220   9.848   8.104 -0.2301 -0.0370  0.1039
  488loPI   C1B 7805   1.458   9.749   9.902 -0.2333 -0.1881 -0.1773
  488loPI   C2B 7806   1.463   9.769   9.434 -0.0513 -0.0134  0.0663
  488loPI   C3B 7807   1.497   9.887   9.015 -0.4095  0.1814 -0.1527
  488loPI   C4B 7808   1.498   9.903   8.610  0.0451 -0.3783  0.1322
  489loPI    C1 7809  17.554   9.375  11.088  0.1336  0.1214  0.0881
  489loPI    C2 7810  17.877   9.148  11.151  0.1129 -0.0182 -0.2802
  489loPI    C3 7811  17.528   9.051  11.320  0.1766 -0.0794 -0.1826
  489loPI   PO4 7812  17.582   9.450  10.881 -0.0311  0.2884  0.0187
  489loPI   GL1 7813  17.568   9.431  10.394 -0.3056  0.1560  0.4512
  489loPI   GL2 7814  17.869   9.332  10.390 -0.0110 -0.0140  0.0105
  489loPI   C1A 7815  17.347   9.640  10.078  0.1510  0.0849 -0.1984
  489loPI   C2A 7816  17.319   9.584   9.695 -0.1391 -0.0497 -0.4237
  489loPI   C3A 7817  17.269   9.440   9.267 -0.0117  0.1128 -0.0924
  489loPI   C4A 7818  17.314   9.558   8.840 -0.0856 -0.1648 -0.0582
  489loPI   C5A 7819  17.229   9.376   8.329  0.1722 -0.2884  0.3045
  489loPI   C6A 7820  17.221   9.080   7.973  0.1004  0.3684 -0.1885
  489loPI   C1B 7821  17.764   9.418   9.963  0.3809 -0.0416  0.0484
  489loPI   C2B 7822  17.755   9.571   9.478 -0.0892 -0.2705 -0.0352
  489loPI   C3B 7823  17.796   9.710   9.036  0.3110  0.0691 -0.3623
  489loPI   C4B 7824  17.720   9.815   8.618  0.1665  0.0700 -0.2402
  490loPI    C1 7825  14.721  18.077  10.531 -0.0810  0.1358  0.0122
  490loPI    C2 7826  14.357  18.185  10.405  0.0082  0.0671 -0.3130
  490loPI    C3 7827  14.627  18.464  10.503 -0.0988  0.1193 -0.1636
  490loPI   PO4 7828  14.720  17.838  10.396  0.2497  0.1116  0.2381
  490loPI   GL1 7829  14.469  17.627  10.091 -0.2459 -0.0502 -0.0756
  490loPI   GL2 7830  14.215  17.710  10.291  0.0338  0.1836  0.0542
  490loPI   C1A 7831  14.394  17.672   9.618 -0.0879 -0.0345 -0.1481
  490loPI   C2A 7832  14.432  17.581   9.127 -0.1055 -0.0456 -0.1751
  490loPI   C3A 7833  14.386  17.575   8.721 -0.1434  0.1624 -0.0342
  490loPI   C4A 7834  14.213  17.683   8.364  0.0961  0.1113 -0.0758
  490loPI   C5A 7835  14.161  18.088   8.176  0.0299 -0.2723  0.2882
  490loPI   C6A 7836  13.913  18.316   7.741  0.0690  0.2123  0.1665
  490loPI   C1B 7837  14.047  17.933   9.880 -0.0861 -0.3118 -0.2547
  490loPI   C2B 7838  14.013  17.857   9.429  0.0841 -0.2408  0.1714
  490loPI   C3B 7839  14.066  17.879   9.031 -0.0781 -0.0310 -0.0882
  490loPI   C4B 7840  13.981  18.028   8.645 -0.2692 -0.0469  0.1142
  491loPI    C1 7841   5.475  17.541  10.984  0.1036 -0.0564  0.2441
  491loPI    C2 7842   5.350  17.844  11.214 -0.2055 -0.1057  0.1462
  491loPI    C3 7843   5.328  17.468  11.349  0.0762 -0.0959  0.2252
  491loPI   PO4 7844   5.361  17.641  10.765  0.3932  0.2084  0.0313
  491loPI   GL1 7845   5.163  17.507  10.366  0.0456  0.0111  0.0124
  491loPI   GL2 7846   5.412  17.304  10.393 -0.1568  0.0090 -0.1292
  491loPI   C1A 7847   5.212  17.559   9.953 -0.3809  0.1599 -0.1628
  491loPI   C2A 7848   5.186  17.491   9.454  0.0506  0.1305 -0.0267
  491loPI   C3A 7849   5.074  17.523   8.943  0.0446 -0.0784 -0.1199
  491loPI   C4A 7850   5.034  17.565   8.466  0.0301 -0.0138 -0.4074
  491loPI   C5A 7851   5.012  17.956   8.274  0.3453  0.0574  0.0117
  491loPI   C6A 7852   4.949  18.251   8.050  0.2193  0.1170 -0.0325
  491loPI   C1B 7853   5.480  17.075   9.976 -0.0189 -0.2953  0.0049
  491loPI   C2B 7854   5.577  17.143   9.571  0.3784  0.0190 -0.0183
  491loPI   C3B 7855   5.473  17.123   9.084  0.1776 -0.2508  0.2040
  491loPI   C4B 7856   5.359  17.216   8.620  0.1054  0.1212  0.3179
  492loPI    C1 7857  17.346  15.442  11.303  0.1406  0.2165 -0.0199
  492loPI    C2 7858  17.477  15.586  11.652  0.0009  0.0571  0.0997
  492loPI    C3 7859  17.094  15.479  11.611  0.0481 -0.0544 -0.0601
  492loPI   PO4 7860  17.443  15.693  11.095  0.2464  0.3503  0.1860
  492loPI   GL1 7861  17.507  15.640  10.607 -0.1203 -0.0756 -0.0867
  492loPI   GL2 7862  17.289  15.341  10.399  0.2566 -0.2092  0.1458
  492loPI   C1A 7863  17.636  15.801  10.254 -0.1114 -0.0210  0.1688
  492loPI   C2A 7864  17.731  15.834   9.798 -0.3031 -0.0340 -0.1857
  492loPI   C3A 7865  17.716  15.947   9.489  0.2095 -0.3063  0.3932
  492loPI   C4A 7866  17.696  15.917   9.054 -0.0154  0.2600 -0.1028
  492loPI   C5A 7867  17.609  15.936   8.576  0.0553 -0.3026 -0.2691
  492loPI   C6A 7868  17.515  15.818   8.207 -0.0440  0.1316 -0.1618
  492loPI   C1B 7869  17.140  15.246   9.943 -0.0068 -0.1865  0.0625
  492loPI   C2B 7870  17.134  15.202   9.549 -0.2051  0.0287  0.0435
  492loPI   C3B 7871  17.145  15.306   9.170 -0.1417 -0.1582  0.1082
  492loPI   C4B 7872  17.046  15.257   8.699 -0.0955 -0.2441  0.1672
  493loPI    C1 7873   9.036   6.937  10.801  0.0650  0.1525 -0.0886
  493loPI    C2 7874   8.981   7.250  11.044  0.1595 -0.0631  0.2168
  493loPI    C3 7875   8.901   6.880  11.174  0.0330 -0.1673 -0.1461
  493loPI   PO4 7876   9.227   7.141  10.600  0.1596 -0.0406 -0.4390
  493loPI   GL1 7877   9.397   7.047  10.200 -0.2482 -0.3338 -0.0149
  493loPI   GL2 7878   9.763   7.059  10.101  0.0491  0.1797  0.0458
  493loPI   C1A 7879   9.277   7.335   9.911  0.2577  0.1825 -0.1325
  493loPI   C2A 7880   9.224   7.418   9.460  0.1255 -0.0171 -0.0331
  493loPI   C3A 7881   9.170   7.386   8.934 -0.1792  0.0360  0.0365
  493loPI   C4A 7882   9.312   7.428   8.584 -0.1797 -0.2768  0.4026
  493loPI   C5A 7883   9.337   7.775   8.171 -0.0359  0.0472  0.0592
  493loPI   C6A 7884   9.352   8.265   8.096 -0.2242  0.2127  0.0135
  493loPI   C1B 7885   9.598   7.035   9.674 -0.0287  0.0367 -0.2333
  493loPI   C2B 7886   9.555   7.049   9.304 -0.3616 -0.0615 -0.0567
  493loPI   C3B 7887   9.650   7.063   8.896  0.2972  0.1475 -0.2190
  493loPI   C4B 7888   9.655   7.097   8.467 -0.0671 -0.1534  0.2933
  494loPI    C1 7889   7.529   7.466  10.731 -0.0402  0.0505 -0.2774
  494loPI    C2 7890   7.196   7.440  10.951  0.0737 -0.2015 -0.1311
  494loPI    C3 7891   7.546   7.323  11.104  0.1742 -0.2660 -0.4049
  494loPI   PO4 7892   7.475   7.299  10.402 -0.4377 -0.0461 -0.0593
  494loPI   GL1 7893   7.303   7.234  10.019 -0.2611  0.4519 -0.0432
  494loPI   GL2 7894   7.478   7.527  10.013  0.1419  0.1631  0.0764
  494loPI   C1A 7895   7.263   7.278   9.586 -0.0539  0.4281  0.0582
  494loPI   C2A 7896   7.393   7.443   9.137 -0.2429 -0.0884 -0.1186
  494loPI   C3A 7897   7.420   7.322   8.728 -0.2356  0.2690  0.3463
  494loPI   C4A 7898   7.407   7.299   8.319  0.1339 -0.0391 -0.0322
  494loPI   C5A 7899   7.608   7.358   7.931  0.2092 -0.1147  0.1359
  494loPI   C6A 7900   7.815   7.510   7.621 -0.0190 -0.2239  0.1615
  494loPI   C1B 7901   7.520   7.842   9.728 -0.3374  0.0640  0.0016
  494loPI   C2B 7902   7.610   7.892   9.316 -0.1715  0.0626 -0.1143
  494loPI   C3B 7903   7.596   7.875   8.767 -0.0443  0.2471 -0.2016
  494loPI   C4B 7904   7.497   7.793   8.436 -0.0587  0.0970  0.1022
  495loPI    C1 7905   6.203   2.992  10.881  0.0583  0.1306  0.0962
  495loPI    C2 7906   5.833   3.128  10.947  0.1162  0.4663 -0.2346
  495loPI    C3 7907   6.126   3.212  11.206 -0.0621  0.0752  0.1059
  495loPI   PO4 7908   6.209   3.040  10.607 -0.2395 -0.0001 -0.0209
  495loPI   GL1 7909   6.298   2.903  10.154 -0.2137  0.2132 -0.4664
  495loPI   GL2 7910   6.027   2.688  10.258  0.0696  0.1331  0.1772
  495loPI   C1A 7911   6.403   2.970   9.709  0.2671 -0.0333  0.0647
  495loPI   C2A 7912   6.424   3.120   9.339  0.1937 -0.0420  0.0922
  495loPI   C3A 7913   6.466   3.111   8.928 -0.0633  0.0789 -0.0989
  495loPI   C4A 7914   6.420   3.126   8.562 -0.0362  0.1417 -0.0377
  495loPI   C5A 7915   6.551   3.098   8.214  0.2148 -0.1797  0.3117
  495loPI   C6A 7916   6.513   3.034   7.735 -0.0577 -0.0200  0.2639
  495loPI   C1B 7917   5.918   2.901   9.913  0.2892  0.1474  0.0632
  495loPI   C2B 7918   5.956   2.857   9.401  0.1725  0.0164 -0.1029
  495loPI   C3B 7919   5.941   2.892   9.005  0.1184 -0.1980 -0.0454
  495loPI   C4B 7920   5.944   2.898   8.600 -0.2832 -0.2579 -0.1494
  496loPI    C1 7921   7.841  11.424  10.831  0.1417 -0.0906  0.0790
  496loPI    C2 7922   7.701  11.280  11.177 -0.2736  0.0249 -0.0362
  496loPI    C3 7923   7.760  11.034  10.868  0.0642 -0.0726  0.1019
  496loPI   PO4 7924   7.718  11.586  10.737  0.1165  0.0569 -0.0900
  496loPI   GL1 7925   7.654  11.596  10.315  0.0797 -0.0950 -0.1141
  496loPI   GL2 7926   7.834  11.446  10.051 -0.2162  0.1579  0.0782
  496loPI   C1A 7927   7.427  11.714   9.978 -0.1934  0.0550 -0.2804
  496loPI   C2A 7928   7.377  11.734   9.531  0.3108 -0.2603  0.1062
  496loPI   C3A 7929   7.358  11.688   9.141  0.0414  0.1643  0.0410
  496loPI   C4A 7930   7.389  11.646   8.747 -0.1647 -0.1780  0.1244
  496loPI   C5A 7931   7.594  11.785   8.378 -0.1815 -0.0343  0.2427
  496loPI   C6A 7932   7.905  11.729   7.932  0.0554  0.1994 -0.1741
  496loPI   C1B 7933   8.033  11.197   9.791  0.0321  0.3737  0.1210
  496loPI   C2B 7934   7.876  11.362   9.485  0.4731 -0.0596 -0.1658
  496loPI   C3B 7935   7.872  11.289   9.083 -0.2392  0.3405 -0.2335
  496loPI   C4B 7936   7.832  11.421   8.789  0.0900 -0.2592  0.2030
  497loPI    C1 7937  11.736  16.510  10.875  0.2010 -0.0367  0.0444
  497loPI    C2 7938  11.779  16.328  11.229 -0.0518 -0.0586  0.0658
  497loPI    C3 7939  11.997  16.652  11.143 -0.0140 -0.0329  0.2552
  497loPI   PO4 7940  11.612  16.334  10.675 -0.2352  0.0234  0.4118
  497loPI   GL1 7941  11.677  16.239  10.346  0.1811 -0.3492  0.0304
  497loPI   GL2 7942  11.969  16.475  10.275  0.3062 -0.0335  0.2460
  497loPI   C1A 7943  11.417  16.161   9.973 -0.1015 -0.1385 -0.1986
  497loPI   C2A 7944  11.262  16.185   9.572  0.1338  0.2757 -0.0833
  497loPI   C3A 7945  11.315  16.100   9.171  0.2604 -0.1552 -0.0735
  497loPI   C4A 7946  11.229  16.098   8.697  0.1076 -0.0534  0.1133
  497loPI   C5A 7947  10.923  15.918   8.307  0.1242 -0.2826  0.3778
  497loPI   C6A 7948  10.764  16.096   7.871 -0.0498 -0.0129 -0.0411
  497loPI   C1B 7949  11.834  16.318   9.822 -0.0627  0.2933  0.3810
  497loPI   C2B 7950  11.720  16.300   9.331  0.0711  0.1939  0.2789
  497loPI   C3B 7951  11.812  16.353   9.014 -0.0329 -0.1406 -0.1549
  497loPI   C4B 7952  11.702  16.219   8.611 -0.2247  0.0073  0.0788
  498loPI    C1 7953   8.707   3.126  10.780  0.1145 -0.0869 -0.0739
  498loPI    C2 7954   8.420   3.361  10.930 -0.0593 -0.1049 -0.3704
  498loPI    C3 7955   8.805   3.462  10.975 -0.1091 -0.0704  0.0125
  498loPI   PO4 7956   8.668   2.976  10.525  0.2075  0.3062  0.0735
  498loPI   GL1 7957   8.570   3.095  10.145 -0.0654 -0.0869 -0.1948
  498loPI   GL2 7958   8.310   2.964  10.055 -0.1287  0.2161 -0.2179
  498loPI   C1A 7959   8.808   2.935   9.807  0.0311  0.1779 -0.0655
  498loPI   C2A 7960   8.694   2.907   9.422 -0.1339 -0.0228  0.0125
  498loPI   C3A 7961   8.661   2.811   8.958 -0.1018  0.0155 -0.0552
  498loPI   C4A 7962   8.608   2.836   8.542  0.1174  0.1874  0.2136
  498loPI   C5A 7963   8.743   2.653   8.143 -0.1874 -0.1284 -0.2432
  498loPI   C6A 7964   9.064   2.389   7.870 -0.2644  0.1267  0.2252
  498loPI   C1B 7965   8.242   2.776   9.675  0.1847 -0.2765 -0.0443
  498loPI   C2B 7966   8.189   2.698   9.257 -0.2012 -0.2036  0.2137
  498loPI   C3B 7967   8.097   2.670   8.863  0.0650  0.1333 -0.2735
  498loPI   C4B 7968   8.173   2.683   8.360 -0.4117 -0.1613 -0.4109
  499loPI    C1 7969   7.317   3.884  10.473  0.1592  0.0399 -0.0331
  499loPI    C2 7970   7.218   4.002  10.842 -0.0553 -0.1443 -0.0300
  499loPI    C3 7971   7.603   3.962  10.742  0.0021 -0.2259  0.2166
  499loPI   PO4 7972   7.209   4.011  10.335 -0.3072  0.4720  0.5188
  499loPI   GL1 7973   7.268   3.972   9.947  0.1084 -0.3188 -0.1214
  499loPI   GL2 7974   7.353   4.315   9.945  0.4261 -0.0879  0.0921
  499loPI   C1A 7975   7.312   3.659   9.634 -0.1717  0.0773  0.0740
  499loPI   C2A 7976   7.353   3.388   9.277 -0.1314 -0.1403 -0.3392
  499loPI   C3A 7977   7.304   3.463   8.834  0.0898  0.1290  0.1848
  499loPI   C4A 7978   7.301   3.392   8.451 -0.2509  0.3004 -0.0565
  499loPI   C5A 7979   7.516   3.279   8.042  0.0477  0.0691  0.1350
  499loPI   C6A 7980   7.661   3.272   7.646  0.5034 -0.0332 -0.0913
  499loPI   C1B 7981   7.237   4.417   9.508  0.0598 -0.1353  0.0710
  499loPI   C2B 7982   7.142   4.253   9.116 -0.3307 -0.3302 -0.1652
  499loPI   C3B 7983   7.067   4.275   8.736  0.0814  0.0624 -0.1516
  499loPI   C4B 7984   6.956   4.086   8.359 -0.0742 -0.4306  0.0176
  500loPI    C1 7985   0.763   8.167  11.082  0.0043  0.1554  0.1428
  500loPI    C2 7986   0.704   8.270  11.464 -0.1336 -0.0718  0.1847
  500loPI    C3 7987   0.758   7.886  11.366  0.2149  0.0170  0.0122
  500loPI   PO4 7988   0.990   8.319  10.992 -0.2511  0.0664  0.1876
  500loPI   GL1 7989   1.201   8.453  10.653 -0.4769 -0.2945  0.1413
  500loPI   GL2 7990   1.332   8.167  10.583 -0.1886 -0.1856 -0.1495
  500loPI   C1A 7991   1.196   8.586  10.175 -0.2375  0.0370  0.0600
  500loPI   C2A 7992   1.215   8.635   9.749 -0.1771  0.0862  0.0471
  500loPI   C3A 7993   1.197   8.635   9.279 -0.2576 -0.0641 -0.0538
  500loPI   C4A 7994   1.294   8.835   8.991 -0.0027 -0.0591  0.1849
  500loPI   C5A 7995   1.296   8.973   8.515  0.3228  0.0134  0.5323
  500loPI   C6A 7996   1.085   8.868   8.141  0.0781 -0.0048  0.0538
  500loPI   C1B 7997   1.165   8.088  10.195  0.0571  0.1593  0.0283
  500loPI   C2B 7998   1.139   8.091   9.760  0.1127 -0.1935 -0.0054
  500loPI   C3B 7999   1.026   8.125   9.289 -0.3399  0.1109  0.0172
  500loPI   C4B 8000   1.127   8.243   8.902  0.0428 -0.1259  0.0843
  501loPI    C1 8001   7.552  12.045  10.993  0.2061 -0.0914  0.3427
  501loPI    C2 8002   7.379  11.714  11.137  0.1579 -0.1614  0.1279
  501loPI    C3 8003   7.429  12.033  11.374 -0.1127 -0.1991  0.2393
  501loPI   PO4 8004   7.414  12.042  10.754  0.1736 -0.0155 -0.2087
  501loPI   GL1 8005   7.356  12.013  10.416  0.1714 -0.0414  0.0055
  501loPI   GL2 8006   7.563  12.274  10.313  0.1546 -0.1065 -0.0176
  501loPI   C1A 8007   7.023  11.998  10.117 -0.1820 -0.0671 -0.2751
  501loPI   C2A 8008   6.930  12.060   9.628  0.0353 -0.2184 -0.0228
  501loPI   C3A 8009   6.960  11.958   9.274 -0.0456  0.0376 -0.2197
  501loPI   C4A 8010   7.002  12.051   8.759  0.0204  0.4074 -0.1730
  501loPI   C5A 8011   7.167  12.093   8.358 -0.0569 -0.1230 -0.0521
  501loPI   C6A 8012   6.913  11.970   8.010 -0.0013 -0.0237  0.1485
  501loPI   C1B 8013   7.577  12.196   9.907 -0.1810 -0.1506  0.0934
  501loPI   C2B 8014   7.463  12.199   9.552  0.0400  0.3050 -0.1012
  501loPI   C3B 8015   7.562  12.226   9.149  0.2260 -0.2357 -0.1240
  501loPI   C4B 8016   7.528  12.150   8.800  0.0713 -0.0198  0.0593
  502loPI    C1 8017  13.343   7.428  10.470  0.3091  0.1462  0.1629
  502loPI    C2 8018  13.441   7.061  10.344  0.1532  0.1184  0.1207
  502loPI    C3 8019  13.205   7.106  10.664 -0.0935  0.1746 -0.0666
  502loPI   PO4 8020  13.203   7.538  10.304 -0.2875 -0.1374 -0.1261
  502loPI   GL1 8021  13.243   7.840   9.917  0.0736 -0.1272  0.0389
  502loPI   GL2 8022  13.049   7.550   9.774  0.0504  0.1188  0.2123
  502loPI   C1A 8023  13.260   8.129   9.623 -0.4730 -0.1339 -0.3301
  502loPI   C2A 8024  13.325   8.161   9.177  0.3315  0.0968  0.1918
  502loPI   C3A 8025  13.097   8.106   8.693 -0.4185  0.0854 -0.1861
  502loPI   C4A 8026  13.225   8.159   8.261 -0.1593  0.1612 -0.1041
  502loPI   C5A 8027  13.085   8.174   7.783 -0.0326  0.0611  0.2236
  502loPI   C6A 8028  12.693   8.275   7.558 -0.1462  0.0544  0.0426
  502loPI   C1B 8029  13.253   7.674   9.350  0.0008  0.3315  0.0002
  502loPI   C2B 8030  13.123   7.684   8.981 -0.2538 -0.0267  0.1301
  502loPI   C3B 8031  13.093   7.539   8.467 -0.0515  0.0462 -0.0147
  502loPI   C4B 8032  13.072   7.509   7.957 -0.6925  0.0248  0.2007
  503loPI    C1 8033  14.292  12.334  11.019 -0.0979 -0.1911 -0.1922
  503loPI    C2 8034  14.174  12.716  11.030  0.1107 -0.1298  0.0013
  503loPI    C3 8035  14.028  12.454  11.295  0.1997 -0.1152  0.0652
  503loPI   PO4 8036  14.452  12.392  10.777  0.2322  0.2637  0.1134
  503loPI   GL1 8037  14.202  12.611  10.433  0.0557 -0.1674 -0.1100
  503loPI   GL2 8038  14.502  12.421  10.238 -0.1155  0.2726 -0.1415
  503loPI   C1A 8039  14.270  12.747  10.006  0.0024  0.2264 -0.2115
  503loPI   C2A 8040  14.282  12.786   9.627  0.1196  0.3043  0.1826
  503loPI   C3A 8041  14.322  12.830   9.220 -0.0468  0.2006 -0.0583
  503loPI   C4A 8042  14.353  12.828   8.770 -0.2433 -0.1945 -0.2561
  503loPI   C5A 8043  14.339  12.809   8.306  0.2077 -0.1451  0.0485
  503loPI   C6A 8044  14.079  12.950   8.053  0.1234  0.0251  0.4058
  503loPI   C1B 8045  14.674  12.476   9.818  0.0206  0.3106 -0.1896
  503loPI   C2B 8046  14.620  12.437   9.395 -0.0999  0.2484 -0.3956
  503loPI   C3B 8047  14.719  12.484   9.000  0.1881  0.0228  0.3276
  503loPI   C4B 8048  14.679  12.473   8.503 -0.0809  0.0497 -0.2421
  504loPI    C1 8049  16.784   6.052  10.741 -0.1718 -0.1197 -0.0272
  504loPI    C2 8050  16.598   6.019  11.093 -0.0552 -0.1577  0.0312
  504loPI    C3 8051  16.996   5.979  11.072 -0.0252  0.1553 -0.0569
  504loPI   PO4 8052  16.595   5.909  10.608 -0.1110 -0.5728  0.1924
  504loPI   GL1 8053  16.258   6.005  10.287  0.2968 -0.2685  0.0827
  504loPI   GL2 8054  16.484   6.221  10.176 -0.1067  0.2035 -0.0240
  504loPI   C1A 8055  16.304   5.815  10.032  0.1464  0.1346  0.2499
  504loPI   C2A 8056  16.403   5.858   9.582  0.0061 -0.0305 -0.0687
  504loPI   C3A 8057  16.332   5.776   9.229 -0.2553 -0.1556 -0.0370
  504loPI   C4A 8058  16.404   5.795   8.834  0.0819 -0.1836  0.2209
  504loPI   C5A 8059  16.594   5.959   8.399  0.0183  0.0486  0.1378
  504loPI   C6A 8060  16.857   5.937   8.027 -0.0907 -0.1195  0.1057
  504loPI   C1B 8061  16.517   6.266   9.825  0.0824 -0.0506  0.0551
  504loPI   C2B 8062  16.537   6.292   9.301  0.0101 -0.0865  0.0994
  504loPI   C3B 8063  16.609   6.356   8.890  0.1041 -0.1537  0.1187
  504loPI   C4B 8064  16.732   6.410   8.472  0.3353 -0.0357 -0.1808
  505loPI    C1 8065  12.801   7.883  10.795  0.0448 -0.0467  0.0954
  505loPI    C2 8066  12.943   7.509  10.788  0.1321 -0.0149  0.1503
  505loPI    C3 8067  13.196   7.818  10.810  0.0671  0.0530 -0.0397
  505loPI   PO4 8068  12.590   7.883  10.526  0.2023  0.1812 -0.0067
  505loPI   GL1 8069  12.572   8.113  10.105 -0.2718  0.1871  0.3125
  505loPI   GL2 8070  12.825   8.051   9.884  0.0607  0.1562 -0.0776
  505loPI   C1A 8071  12.429   8.297   9.755 -0.1891  0.0621  0.0529
  505loPI   C2A 8072  12.326   8.293   9.312  0.0200 -0.1080  0.0945
  505loPI   C3A 8073  12.340   8.381   8.947  0.0413  0.3781  0.1442
  505loPI   C4A 8074  12.358   8.350   8.434  0.0835 -0.0968  0.0145
  505loPI   C5A 8075  12.408   8.394   7.974 -0.1196  0.0684 -0.3299
  505loPI   C6A 8076  12.242   8.694   7.546  0.1644 -0.2170 -0.1175
  505loPI   C1B 8077  12.760   7.980   9.459  0.0919 -0.0127 -0.3399
  505loPI   C2B 8078  12.636   7.946   9.032  0.0892 -0.1621 -0.1258
  505loPI   C3B 8079  12.568   7.945   8.604  0.5152  0.2926  0.0074
  505loPI   C4B 8080  12.787   7.877   8.202  0.0655 -0.0017 -0.2206
  506loPI    C1 8081   2.499  17.929  11.260 -0.0291 -0.0114  0.1435
  506loPI    C2 8082   2.282  17.600  11.325  0.0173 -0.1189 -0.2261
  506loPI    C3 8083   2.204  17.934  11.530 -0.1550 -0.3037  0.0151
  506loPI   PO4 8084   2.439  17.923  10.960 -0.0627  0.0764 -0.0494
  506loPI   GL1 8085   2.396  17.952  10.660 -0.2868 -0.0480  0.3034
  506loPI   GL2 8086   2.132  17.908  10.467 -0.3000 -0.2182  0.2080
  506loPI   C1A 8087   2.538  18.089  10.171  0.1818 -0.0364  0.0185
  506loPI   C2A 8088   2.503  18.174   9.774 -0.1652 -0.2225 -0.1674
  506loPI   C3A 8089   2.430  18.196   9.399  0.3413  0.1270  0.1121
  506loPI   C4A 8090   2.449  18.176   8.986  0.2417  0.1942  0.0852
  506loPI   C5A 8091   2.633  18.173   8.521  0.1282 -0.0937  0.0004
  506loPI   C6A 8092   3.014  18.119   8.318  0.1637 -0.0804  0.0064
  506loPI   C1B 8093   2.021  17.889  10.122  0.0417  0.2472  0.4382
  506loPI   C2B 8094   1.995  18.020   9.715  0.1272 -0.0368 -0.2641
  506loPI   C3B 8095   1.908  18.103   9.286 -0.0891 -0.0028  0.2143
  506loPI   C4B 8096   1.899  18.054   8.833 -0.0792  0.1887 -0.2641
  507loPI    C1 8097   0.973  15.859  10.800  0.0235  0.1206  0.2859
  507loPI    C2 8098   1.346  15.871  10.946 -0.0195 -0.0268  0.4106
  507loPI    C3 8099   1.036  15.961  11.182 -0.0641  0.0945  0.3074
  507loPI   PO4 8100   0.920  16.062  10.660 -0.0002 -0.2193  0.3866
  507loPI   GL1 8101   1.344  16.088  10.459  0.2012  0.3436  0.3363
  507loPI   GL2 8102   1.488  15.981  10.228  0.1618 -0.2045 -0.0280
  507loPI   C1A 8103   1.138  16.325  10.088 -0.1683  0.0137 -0.1380
  507loPI   C2A 8104   1.204  16.281   9.665  0.0203  0.1579 -0.1756
  507loPI   C3A 8105   1.111  16.367   9.300 -0.1205 -0.1326  0.1139
  507loPI   C4A 8106   1.066  16.408   8.873 -0.2441 -0.2931 -0.0668
  507loPI   C5A 8107   0.937  16.519   8.413  0.0090  0.1523 -0.0107
  507loPI   C6A 8108   0.519  16.674   8.235 -0.0832 -0.0903 -0.3603
  507loPI   C1B 8109   1.529  15.907   9.779  0.1428  0.4261  0.0514
  507loPI   C2B 8110   1.472  15.964   9.339  0.1489 -0.2532 -0.2541
  507loPI   C3B 8111   1.434  15.969   8.931 -0.2777 -0.1758  0.1709
  507loPI   C4B 8112   1.602  16.046   8.660 -0.2643  0.1396  0.1586
  508loPI    C1 8113  11.592   3.604   9.951  0.2263  0.0406 -0.1198
  508loPI    C2 8114  11.771   3.326  10.175 -0.1079 -0.2328 -0.1828
  508loPI    C3 8115  11.743   3.702  10.308 -0.0591 -0.3301  0.1103
  508loPI   PO4 8116  11.612   3.561   9.712  0.0894 -0.2362 -0.1197
  508loPI   GL1 8117  11.403   3.588   9.355  0.3215  0.0987  0.1103
  508loPI   GL2 8118  11.601   3.361   9.261  0.1737  0.2225 -0.1264
  508loPI   C1A 8119  11.180   3.604   8.983 -0.2423 -0.1732  0.1445
  508loPI   C2A 8120  11.209   3.509   8.607  0.4049  0.0542 -0.3990
  508loPI   C3A 8121  11.245   3.548   8.218 -0.1153 -0.1578  0.0642
  508loPI   C4A 8122  11.421   3.572   7.785  0.0738 -0.0203  0.0728
  508loPI   C5A 8123  11.728   3.675   7.451  0.2753  0.2760  0.1080
  508loPI   C6A 8124  12.076   3.505   7.153 -0.0090 -0.1397 -0.0105
  508loPI   C1B 8125  11.591   3.247   8.804  0.0937  0.2665  0.0349
  508loPI   C2B 8126  11.485   3.172   8.399  0.1676 -0.0686  0.0483
  508loPI   C3B 8127  11.422   3.111   7.971  0.3488 -0.0455 -0.0808
  508loPI   C4B 8128  11.211   2.938   7.704  0.1395 -0.1716  0.1386
  509loPI    C1 8129  11.396  17.445  10.669 -0.0436  0.0006 -0.1748
  509loPI    C2 8130  11.605  17.785  10.690 -0.1637  0.0706 -0.1046
  509loPI    C3 8131  11.624  17.520  10.989 -0.0190 -0.0151 -0.1885
  509loPI   PO4 8132  11.296  17.592  10.374  0.0797 -0.2119  0.1478
  509loPI   GL1 8133  11.128  17.574   9.989  0.2862  0.2237 -0.0161
  509loPI   GL2 8134  10.786  17.726  10.064  0.0197  0.3095 -0.1286
  509loPI   C1A 8135  11.059  17.513   9.560 -0.1532 -0.0514 -0.1320
  509loPI   C2A 8136  11.219  17.485   9.116 -0.3900  0.1648  0.0065
  509loPI   C3A 8137  11.028  17.481   8.746  0.2657  0.0072 -0.0086
  509loPI   C4A 8138  10.974  17.426   8.371  0.2340 -0.1723 -0.1144
  509loPI   C5A 8139  10.827  17.262   7.975  0.0418  0.1939  0.1280
  509loPI   C6A 8140  10.530  17.023   7.722 -0.0115 -0.1032  0.0124
  509loPI   C1B 8141  10.664  17.829   9.594 -0.2251  0.3338  0.1661
  509loPI   C2B 8142  10.788  17.742   9.202  0.2341 -0.0926  0.0985
  509loPI   C3B 8143  10.718  17.838   8.751  0.0642  0.1487 -0.2924
  509loPI   C4B 8144  10.617  17.840   8.345  0.4880 -0.1040 -0.1163
  510loPI    C1 8145   9.129   5.990  10.775  0.1360  0.1046  0.1267
  510loPI    C2 8146   8.871   6.087  11.065  0.0808  0.1038  0.0783
  510loPI    C3 8147   8.987   5.707  11.019 -0.1207  0.0584 -0.0706
  510loPI   PO4 8148   9.086   6.159  10.598  0.3504 -0.1893 -0.1431
  510loPI   GL1 8149   9.037   6.219  10.165  0.0204 -0.0904  0.3222
  510loPI   GL2 8150   8.748   6.042  10.060 -0.1688 -0.0180  0.0001
  510loPI   C1A 8151   8.927   6.256   9.663 -0.3308 -0.3416  0.1414
  510loPI   C2A 8152   9.009   6.359   9.236  0.0189  0.0407  0.2117
  510loPI   C3A 8153   9.030   6.277   8.786 -0.1348 -0.0847 -0.0014
  510loPI   C4A 8154   8.959   6.144   8.340 -0.0425  0.0485 -0.3438
  510loPI   C5A 8155   8.763   6.228   7.971  0.1300  0.0510 -0.3077
  510loPI   C6A 8156   8.658   5.976   7.516 -0.3424  0.0623  0.2029
  510loPI   C1B 8157   8.464   6.066   9.747 -0.0194 -0.2480  0.0674
  510loPI   C2B 8158   8.433   6.272   9.313 -0.4084  0.2364 -0.0586
  510loPI   C3B 8159   8.522   6.236   8.922  0.0273 -0.1397 -0.3174
  510loPI   C4B 8160   8.456   6.190   8.502  0.0281 -0.1534 -0.2120
  511loPI    C1 8161   2.276  12.250  10.811 -0.0515  0.0441 -0.1277
  511loPI    C2 8162   2.248  11.854  10.857 -0.0241  0.0562 -0.0037
  511loPI    C3 8163   1.972  12.094  11.019 -0.1275  0.0795 -0.2115
  511loPI   PO4 8164   2.169  12.348  10.610  0.0391  0.2221  0.0591
  511loPI   GL1 8165   2.005  12.490  10.269  0.0602  0.0887 -0.0792
  511loPI   GL2 8166   1.719  12.721  10.444 -0.2095 -0.1842 -0.0958
  511loPI   C1A 8167   2.035  12.260   9.923  0.0309  0.0092  0.1007
  511loPI   C2A 8168   2.070  12.204   9.436  0.0818 -0.1226  0.1588
  511loPI   C3A 8169   2.154  12.336   9.061 -0.3098  0.1652  0.2212
  511loPI   C4A 8170   2.088  12.483   8.611 -0.2990 -0.0355  0.1376
  511loPI   C5A 8171   2.251  12.779   8.342  0.1164 -0.0693  0.0036
  511loPI   C6A 8172   2.572  12.786   8.052  0.2071  0.0227 -0.4423
  511loPI   C1B 8173   1.552  12.718  10.039  0.2023  0.0679 -0.3983
  511loPI   C2B 8174   1.584  12.748   9.684 -0.1906 -0.0959 -0.1762
  511loPI   C3B 8175   1.628  12.717   9.201  0.1432  0.1722  0.3650
  511loPI   C4B 8176   1.628  12.687   8.726  0.1444  0.0795  0.0179
  512loPI    C1 8177   7.905   9.707  10.509 -0.1217  0.0811 -0.0718
  512loPI    C2 8178   8.023   9.326  10.530  0.2113  0.1809 -0.0826
  512loPI    C3 8179   7.633   9.413  10.512  0.1186 -0.1448  0.2159
  512loPI   PO4 8180   7.985   9.812  10.320 -0.1779  0.0148 -0.2532
  512loPI   GL1 8181   7.729   9.849   9.992 -0.0144  0.0694  0.2026
  512loPI   GL2 8182   7.458   9.783  10.019  0.4329 -0.0491  0.2881
  512loPI   C1A 8183   8.026   9.845   9.666  0.2038 -0.2146  0.0328
  512loPI   C2A 8184   8.075   9.824   9.157 -0.1121 -0.4972 -0.1862
  512loPI   C3A 8185   7.994   9.937   8.760  0.2264 -0.1454  0.0108
  512loPI   C4A 8186   7.864   9.919   8.321 -0.2032  0.1081 -0.2273
  512loPI   C5A 8187   7.918  10.050   7.857  0.0574 -0.0449  0.0714
  512loPI   C6A 8188   7.804  10.083   7.433 -0.1294  0.2591  0.2436
  512loPI   C1B 8189   7.475   9.693   9.515 -0.1973 -0.2906  0.3003
  512loPI   C2B 8190   7.499   9.719   9.038 -0.0465 -0.1903  0.3742
  512loPI   C3B 8191   7.468   9.735   8.633 -0.1965 -0.1329  0.1180
  512loPI   C4B 8192   7.235   9.902   8.314 -0.4526  0.2973  0.0578
  513loPI    C1 8193   5.147   1.517  11.151 -0.1413  0.1362  0.1253
  513loPI    C2 8194   4.949   1.593  11.490 -0.1135 -0.1258  0.2019
  513loPI    C3 8195   5.348   1.563  11.494 -0.0935  0.1069  0.1014
  513loPI   PO4 8196   5.074   1.349  11.013 -0.3122  0.2075  0.0452
  513loPI   GL1 8197   4.926   1.140  10.567 -0.0525  0.1103 -0.0218
  513loPI   GL2 8198   4.604   1.137  10.737  0.0939 -0.1574  0.2461
  513loPI   C1A 8199   5.192   1.193  10.181 -0.1583 -0.1012 -0.3451
  513loPI   C2A 8200   5.120   1.219   9.834 -0.2822 -0.0470 -0.0550
  513loPI   C3A 8201   5.133   1.248   9.377 -0.1032 -0.0506 -0.1334
  513loPI   C4A 8202   5.134   1.085   8.943 -0.0504  0.2894  0.0282
  513loPI   C5A 8203   5.046   1.053   8.427  0.2364  0.1875  0.2292
  513loPI   C6A 8204   4.972   0.719   8.166 -0.1178  0.1025 -0.0265
  513loPI   C1B 8205   4.612   1.030  10.194 -0.0331  0.2364  0.0356
  513loPI   C2B 8206   4.673   1.020   9.801  0.2620  0.1254  0.4213
  513loPI   C3B 8207   4.680   1.069   9.258  0.1752  0.0481 -0.0301
  513loPI   C4B 8208   4.493   0.934   8.770 -0.1630  0.1208 -0.2334
  514loPI    C1 8209  12.195   0.632  10.659  0.1468 -0.3078 -0.0195
  514loPI    C2 8210  11.927   0.817  10.892  0.2168  0.0435 -0.2105
  514loPI    C3 8211  12.315   0.817  10.992  0.2009 -0.1116 -0.1461
  514loPI   PO4 8212  12.054   0.507  10.490 -0.2103 -0.1065  0.1575
  514loPI   GL1 8213  11.976   0.254  10.064 -0.0692  0.1941 -0.1467
  514loPI   GL2 8214  11.828   0.516  10.007  0.0213 -0.0765  0.2294
  514loPI   C1A 8215  11.880   0.001   9.617  0.0890  0.0317 -0.2712
  514loPI   C2A 8216  11.783  -0.031   9.197  0.0658 -0.1367 -0.1427
  514loPI   C3A 8217  11.674  -0.141   8.814 -0.0783  0.2631 -0.0602
  514loPI   C4A 8218  11.640  -0.181   8.377  0.1575  0.0831 -0.1894
  514loPI   C5A 8219  11.947  -0.047   8.040 -0.0836  0.3881  0.3255
  514loPI   C6A 8220  12.078   0.095   7.787 -0.0871 -0.1110  0.1356
  514loPI   C1B 8221  11.663   0.747   9.784  0.0115 -0.0001 -0.0253
  514loPI   C2B 8222  11.519   0.814   9.343  0.0066 -0.3348 -0.2780
  514loPI   C3B 8223  11.455   0.826   8.914  0.2543  0.0549  0.0697
  514loPI   C4B 8224  11.523   0.908   8.532 -0.3513  0.1391  0.2831
  515loPI    C1 8225  13.284   9.130  10.941 -0.1605  0.1760 -0.0937
  515loPI    C2 8226  12.935   8.943  10.998 -0.0237 -0.1569 -0.3167
  515loPI    C3 8227  13.272   8.731  10.967  0.2216  0.1691  0.0341
  515loPI   PO4 8228  13.216   9.275  10.739 -0.0271  0.1339 -0.0333
  515loPI   GL1 8229  13.126   9.268  10.319 -0.1432 -0.2876  0.1312
  515loPI   GL2 8230  13.382   9.178  10.113  0.1412  0.0909 -0.0554
  515loPI   C1A 8231  12.879   9.381  10.078  0.1104 -0.0250  0.0672
  515loPI   C2A 8232  13.101   9.553   9.672 -0.2281  0.0398 -0.1480
  515loPI   C3A 8233  13.103   9.627   9.219  0.2817 -0.2712 -0.0849
  515loPI   C4A 8234  13.201   9.523   8.864  0.0776  0.1194 -0.1655
  515loPI   C5A 8235  13.213   9.558   8.473 -0.1418  0.0288 -0.1568
  515loPI   C6A 8236  13.061   9.651   8.158 -0.0964  0.2890 -0.0549
  515loPI   C1B 8237  13.460   9.145   9.765 -0.0555  0.3292  0.1863
  515loPI   C2B 8238  13.472   9.244   9.337 -0.0794  0.0849  0.1882
  515loPI   C3B 8239  13.453   9.138   8.904 -0.1816  0.0986 -0.1078
  515loPI   C4B 8240  13.474   9.084   8.494 -0.1175  0.1241  0.0783
  516loPI    C1 8241   6.267  17.161  11.110  0.0647 -0.0630 -0.1665
  516loPI    C2 8242   6.603  17.228  11.317 -0.0700  0.0387  0.0226
  516loPI    C3 8243   6.269  17.119  11.508 -0.0907 -0.2794 -0.1869
  516loPI   PO4 8244   6.278  17.408  10.861 -0.0058 -0.0617 -0.1836
  516loPI   GL1 8245   6.160  17.426  10.419  0.0496  0.0097 -0.2849
  516loPI   GL2 8246   6.208  17.755  10.402 -0.1113 -0.3175  0.1741
  516loPI   C1A 8247   5.936  17.293   9.960 -0.1019 -0.3948 -0.1394
  516loPI   C2A 8248   6.025  17.305   9.583 -0.2636 -0.4828  0.0441
  516loPI   C3A 8249   5.986  17.349   9.156 -0.5352 -0.1933  0.2203
  516loPI   C4A 8250   5.881  17.284   8.802 -0.0762 -0.1806  0.1176
  516loPI   C5A 8251   5.869  17.271   8.347  0.0386  0.0389  0.0340
  516loPI   C6A 8252   6.123  17.230   7.936  0.0744  0.0224 -0.1855
  516loPI   C1B 8253   6.127  17.772   9.907 -0.1961 -0.0158  0.3152
  516loPI   C2B 8254   6.137  17.765   9.454  0.1758 -0.1292 -0.0166
  516loPI   C3B 8255   6.046  17.792   8.993  0.0043 -0.2185 -0.0669
  516loPI   C4B 8256   5.992  17.775   8.574 -0.2972  0.0325  0.1045
  517loPI    C1 8257  11.286  14.016  11.056 -0.0919 -0.0382  0.0063
  517loPI    C2 8258  11.202  14.146  11.425 -0.1959 -0.0319 -0.0192
  517loPI    C3 8259  11.513  13.901  11.365 -0.2421 -0.1176  0.0882
  517loPI   PO4 8260  11.133  14.221  10.886  0.0500  0.2706  0.2187
  517loPI   GL1 8261  10.733  14.235  10.649  0.0600 -0.0430 -0.2525
  517loPI   GL2 8262  10.934  14.162  10.363 -0.1198  0.2933  0.0054
  517loPI   C1A 8263  10.513  14.344  10.279 -0.3984 -0.0820  0.0213
  517loPI   C2A 8264  10.511  14.420   9.826  0.0539  0.1626 -0.0075
  517loPI   C3A 8265  10.372  14.496   9.456 -0.1513 -0.1320  0.1750
  517loPI   C4A 8266  10.475  14.464   9.098 -0.0590  0.0802  0.3974
  517loPI   C5A 8267  10.600  14.565   8.613 -0.0212  0.1447 -0.0071
  517loPI   C6A 8268  10.756  14.540   8.247 -0.0994  0.0208 -0.0847
  517loPI   C1B 8269  10.830  14.038  10.012  0.2624 -0.1984 -0.0585
  517loPI   C2B 8270  10.887  14.102   9.684 -0.2145 -0.1799 -0.2237
  517loPI   C3B 8271  10.886  14.068   9.253 -0.1053 -0.2002  0.1758
  517loPI   C4B 8272  10.834  14.129   8.828 -0.1095  0.0395 -0.0419
  518loPI    C1 8273   7.546  13.571  11.041 -0.1383 -0.2059 -0.0133
  518loPI    C2 8274   7.703  13.314  11.305 -0.2427 -0.3056 -0.0472
  518loPI    C3 8275   7.544  13.659  11.431  0.2940 -0.0509 -0.0414
  518loPI   PO4 8276   7.752  13.530  10.880 -0.2502 -0.1623 -0.0425
  518loPI   GL1 8277   7.687  13.506  10.449  0.0393  0.0111 -0.2520
  518loPI   GL2 8278   7.931  13.644  10.401  0.0900  0.1642  0.3620
  518loPI   C1A 8279   7.469  13.553  10.072  0.3225  0.1315 -0.2495
  518loPI   C2A 8280   7.359  13.486   9.717  0.0968 -0.4637 -0.2457
  518loPI   C3A 8281   7.390  13.647   9.339 -0.0256 -0.1708  0.2071
  518loPI   C4A 8282   7.387  13.474   8.924  0.0066 -0.2167  0.0151
  518loPI   C5A 8283   7.309  13.439   8.460  0.0744 -0.2245 -0.2685
  518loPI   C6A 8284   7.614  13.565   8.333  0.3364  0.0079  0.1541
  518loPI   C1B 8285   7.964  13.635  10.014 -0.1988 -0.1719  0.1973
  518loPI   C2B 8286   7.857  13.643   9.620 -0.0057 -0.1313  0.5115
  518loPI   C3B 8287   7.894  13.684   9.239  0.1167  0.2004 -0.0300
  518loPI   C4B 8288   7.896  13.808   8.823 -0.0937 -0.2563 -0.0936
  519loPI    C1 8289   0.353   4.451  11.213 -0.0138  0.1056  0.0169
  519loPI    C2 8290   0.212   4.534  11.578 -0.0070 -0.1076  0.0696
  519loPI    C3 8291   0.522   4.740  11.431 -0.1352  0.1123  0.1030
  519loPI   PO4 8292   0.208   4.393  11.053 -0.0980 -0.0178  0.0456
  519loPI   GL1 8293   0.235   4.212  10.644  0.1217 -0.0421 -0.0922
  519loPI   GL2 8294   0.466   4.323  10.533 -0.0661  0.0511 -0.0017
  519loPI   C1A 8295   0.109   4.091  10.235 -0.1619  0.0175 -0.0197
  519loPI   C2A 8296   0.181   3.972   9.768 -0.3394  0.3320  0.4057
  519loPI   C3A 8297   0.254   4.022   9.375  0.0776 -0.0093 -0.1030
  519loPI   C4A 8298   0.283   4.089   8.918 -0.1805  0.1038 -0.3023
  519loPI   C5A 8299   0.207   4.125   8.562 -0.1890  0.0349 -0.0911
  519loPI   C6A 8300   0.149   3.962   8.125  0.1118 -0.1921  0.1752
  519loPI   C1B 8301   0.700   4.216  10.156 -0.1393 -0.1588  0.1389
  519loPI   C2B 8302   0.752   4.134   9.656 -0.0103 -0.0058  0.0820
  519loPI   C3B 8303   0.702   4.192   9.152  0.1461 -0.0620 -0.4049
  519loPI   C4B 8304   0.777   4.236   8.781  0.0075  0.1030  0.0239
  520loPI    C1 8305   0.121  13.475  10.706  0.0366 -0.0968 -0.0369
  520loPI    C2 8306  -0.209  13.273  10.605  0.1170 -0.1834 -0.1288
  520loPI    C3 8307  -0.115  13.323  10.991 -0.0303 -0.1142 -0.1014
  520loPI   PO4 8308   0.357  13.391  10.523  0.1593 -0.0073 -0.0250
  520loPI   GL1 8309   0.379  13.105  10.244  0.0442  0.0523 -0.0272
  520loPI   GL2 8310   0.408  12.871  10.173 -0.0341  0.0758  0.1505
  520loPI   C1A 8311   0.523  13.225   9.815  0.2006  0.1800 -0.1289
  520loPI   C2A 8312   0.415  13.333   9.566  0.5053 -0.0426 -0.1199
  520loPI   C3A 8313   0.397  13.363   9.039 -0.3532 -0.3197  0.2313
  520loPI   C4A 8314   0.385  13.297   8.618 -0.1082  0.2303 -0.0278
  520loPI   C5A 8315   0.485  12.995   8.306 -0.1147  0.1686  0.0258
  520loPI   C6A 8316   0.360  12.586   8.121 -0.0629 -0.0851 -0.0191
  520loPI   C1B 8317   0.294  12.724   9.791 -0.1927 -0.1516  0.4871
  520loPI   C2B 8318   0.222  12.606   9.414  0.0604  0.1390 -0.2080
  520loPI   C3B 8319   0.292  12.800   9.001  0.0611 -0.0131  0.4755
  520loPI   C4B 8320   0.164  12.782   8.638  0.0916 -0.1723  0.0816
  521loPI    C1 8321   2.411   9.707  11.013  0.2439  0.0795  0.0804
  521loPI    C2 8322   2.652   9.536  11.284  0.2004 -0.2202 -0.0657
  521loPI    C3 8323   2.271   9.419  11.253  0.0891  0.1085  0.0254
  521loPI   PO4 8324   2.418   9.653  10.777  0.0417 -0.0811 -0.1932
  521loPI   GL1 8325   2.393   9.858  10.395  0.2767  0.0800  0.2159
  521loPI   GL2 8326   2.308  10.120  10.308 -0.0131 -0.0981 -0.1444
  521loPI   C1A 8327   2.273   9.584   9.968  0.1193 -0.3110 -0.2066
  521loPI   C2A 8328   2.251   9.445   9.570 -0.0389 -0.1215 -0.2432
  521loPI   C3A 8329   2.399   9.642   9.209 -0.1063 -0.0506  0.2279
  521loPI   C4A 8330   2.447   9.603   8.774  0.1535  0.1717 -0.2044
  521loPI   C5A 8331   2.799   9.696   8.435 -0.0279 -0.2157 -0.0356
  521loPI   C6A 8332   3.088   9.473   8.241  0.1715  0.2714 -0.1693
  521loPI   C1B 8333   2.438  10.041   9.895 -0.2591 -0.0993 -0.0441
  521loPI   C2B 8334   2.432  10.058   9.495 -0.0247 -0.0038  0.2000
  521loPI   C3B 8335   2.470  10.096   8.973 -0.2678  0.0280 -0.0209
  521loPI   C4B 8336   2.622  10.157   8.539 -0.1612  0.0071 -0.3688
  522loPI    C1 8337  17.016  14.384  10.686 -0.1097  0.0253  0.0153
  522loPI    C2 8338  16.635  14.273  10.633 -0.0802 -0.0759  0.0134
  522loPI    C3 8339  16.752  14.426  10.984 -0.1735  0.1698 -0.0604
  522loPI   PO4 8340  17.058  14.567  10.460 -0.0682 -0.0438 -0.0273
  522loPI   GL1 8341  17.260  14.822  10.223  0.1399  0.2878 -0.2637
  522loPI   GL2 8342  17.539  14.850  10.255 -0.1039 -0.1706  0.0611
  522loPI   C1A 8343  17.137  14.721   9.836  0.0368 -0.0241 -0.1806
  522loPI   C2A 8344  16.986  14.619   9.434 -0.3618 -0.0540 -0.0472
  522loPI   C3A 8345  17.030  14.808   9.111 -0.2612 -0.0199  0.0631
  522loPI   C4A 8346  17.043  14.746   8.667  0.1800 -0.0155  0.0899
  522loPI   C5A 8347  16.954  14.845   8.260 -0.2735  0.0222  0.0464
  522loPI   C6A 8348  16.598  14.716   8.076 -0.0140 -0.1191 -0.2057
  522loPI   C1B 8349  17.609  14.882   9.788  0.0752 -0.2434 -0.1955
  522loPI   C2B 8350  17.567  14.883   9.347  0.0342 -0.4789  0.3388
  522loPI   C3B 8351  17.502  14.960   8.922 -0.1023 -0.2028  0.1081
  522loPI   C4B 8352  17.483  14.998   8.490  0.0289 -0.0885  0.3262
  523loPI    C1 8353  13.465   0.870  10.677  0.0741  0.2346  0.1332
  523loPI    C2 8354  13.408   1.260  10.744 -0.0368  0.2701 -0.1556
  523loPI    C3 8355  13.111   1.001  10.811 -0.0701  0.2766 -0.2765
  523loPI   PO4 8356  13.510   0.826  10.448 -0.2498  0.2422  0.1682
  523loPI   GL1 8357  13.586   1.054  10.121  0.1041  0.0793 -0.0816
  523loPI   GL2 8358  13.479   0.982   9.887 -0.1424  0.2261 -0.3458
  523loPI   C1A 8359  13.942   1.238   9.865  0.2135  0.0766  0.1275
  523loPI   C2A 8360  13.945   1.220   9.442  0.1185  0.0414  0.0402
  523loPI   C3A 8361  13.857   1.193   8.987  0.1919 -0.1591 -0.1137
  523loPI   C4A 8362  13.974   1.251   8.533  0.3999 -0.0420 -0.0194
  523loPI   C5A 8363  14.342   1.202   8.159 -0.0324  0.0583 -0.2066
  523loPI   C6A 8364  14.803   1.076   8.070 -0.2687  0.0601 -0.1886
  523loPI   C1B 8365  13.435   1.019   9.489 -0.1304  0.1022  0.1249
  523loPI   C2B 8366  13.453   0.981   9.137 -0.0522 -0.3429  0.0826
  523loPI   C3B 8367  13.487   1.029   8.698  0.0101 -0.1526  0.0788
  523loPI   C4B 8368  13.396   1.021   8.334 -0.0123 -0.1898  0.2095
  524loPI    C1 8369   9.619   5.376  10.290 -0.0028  0.0451  0.1086
  524loPI    C2 8370   9.927   5.122  10.267 -0.1531 -0.1354  0.0629
  524loPI    C3 8371   9.790   5.238  10.624  0.1887  0.2207  0.0847
  524loPI   PO4 8372   9.365   5.308  10.181 -0.0759 -0.1717 -0.0723
  524loPI   GL1 8373   9.093   5.304   9.901 -0.0906  0.0393 -0.0813
  524loPI   GL2 8374   9.112   5.013   9.821 -0.1302 -0.0787 -0.2854
  524loPI   C1A 8375   8.835   5.318   9.549 -0.0358 -0.4101 -0.1385
  524loPI   C2A 8376   8.799   5.301   9.214 -0.0141  0.4374 -0.0645
  524loPI   C3A 8377   8.637   5.192   8.830  0.2519 -0.0838  0.0941
  524loPI   C4A 8378   8.412   5.028   8.417  0.4058  0.1664 -0.1127
  524loPI   C5A 8379   8.220   4.990   7.992 -0.1336  0.1942  0.2710
  524loPI   C6A 8380   8.404   4.860   7.577  0.2555  0.0955 -0.1220
  524loPI   C1B 8381   9.165   5.010   9.369 -0.0131 -0.0684  0.1411
  524loPI   C2B 8382   9.186   4.933   8.903  0.0393  0.0162 -0.3657
  524loPI   C3B 8383   8.964   4.853   8.502  0.1417  0.0624  0.2588
  524loPI   C4B 8384   8.806   4.866   8.073  0.1553 -0.0345  0.2431
  525loPI    C1 8385   6.774   4.298  11.013  0.0046 -0.0401 -0.0295
  525loPI    C2 8386   6.465   4.501  11.165 -0.0212 -0.0986 -0.0031
  525loPI    C3 8387   6.799   4.455  11.380  0.0506  0.0648 -0.0770
  525loPI   PO4 8388   6.915   4.453  10.688  0.2476  0.1261 -0.1313
  525loPI   GL1 8389   7.033   4.577  10.239  0.1570 -0.2580 -0.2501
  525loPI   GL2 8390   6.856   4.272  10.176 -0.2175 -0.0931 -0.1542
  525loPI   C1A 8391   6.865   4.816   9.821 -0.0523 -0.3232 -0.0671
  525loPI   C2A 8392   6.826   4.701   9.462 -0.3042  0.0474 -0.0906
  525loPI   C3A 8393   6.680   4.684   9.000  0.0891 -0.0264 -0.0440
  525loPI   C4A 8394   6.699   4.705   8.573 -0.2138  0.0998  0.3453
  525loPI   C5A 8395   6.852   4.599   8.191 -0.1196  0.2587 -0.1060
  525loPI   C6A 8396   6.984   4.482   7.790 -0.1734  0.0172 -0.2374
  525loPI   C1B 8397   6.790   4.230   9.758 -0.1576  0.0348 -0.0035
  525loPI   C2B 8398   6.752   4.144   9.400 -0.1452 -0.1062 -0.0203
  525loPI   C3B 8399   6.661   4.125   8.988 -0.0476 -0.0166  0.1728
  525loPI   C4B 8400   6.521   4.143   8.562 -0.1082  0.2050 -0.2514
  526loPI    C1 8401   7.404   7.988  10.675 -0.3524 -0.0393  0.0838
  526loPI    C2 8402   7.720   7.863  10.886 -0.0905  0.0555 -0.2437
  526loPI    C3 8403   7.361   7.891  11.060  0.0953  0.0230  0.1547
  526loPI   PO4 8404   7.549   7.845  10.403  0.1163  0.0790  0.0996
  526loPI   GL1 8405   7.879   7.873  10.057 -0.1125 -0.5160 -0.0550
  526loPI   GL2 8406   8.126   7.948  10.067  0.0920 -0.1413 -0.3282
  526loPI   C1A 8407   7.883   7.503   9.751  0.0151 -0.4345 -0.2393
  526loPI   C2A 8408   7.879   7.491   9.266 -0.0341 -0.0034 -0.1092
  526loPI   C3A 8409   7.884   7.430   8.793 -0.0829 -0.2036 -0.0014
  526loPI   C4A 8410   7.929   7.467   8.355  0.0690 -0.2124 -0.1766
  526loPI   C5A 8411   8.088   7.687   7.976  0.0808  0.0284 -0.0525
  526loPI   C6A 8412   8.304   7.506   7.654 -0.1233 -0.5104 -0.1443
  526loPI   C1B 8413   8.021   7.989   9.596 -0.1786  0.0515  0.3009
  526loPI   C2B 8414   8.086   7.961   9.181  0.0300 -0.0789 -0.2060
  526loPI   C3B 8415   8.081   8.106   8.787 -0.0739  0.0783  0.4571
  526loPI   C4B 8416   8.046   8.105   8.344  0.0100 -0.1231  0.0155
  527loPI    C1 8417  14.531   6.445  10.818  0.3684  0.0583 -0.0099
  527loPI    C2 8418  14.598   6.750  11.069 -0.0581 -0.0228  0.2117
  527loPI    C3 8419  14.730   6.384  11.160  0.2108  0.0387  0.0793
  527loPI   PO4 8420  14.685   6.530  10.617 -0.1360  0.1651  0.1766
  527loPI   GL1 8421  14.669   6.384  10.137  0.1279 -0.1469 -0.3041
  527loPI   GL2 8422  14.710   6.601  10.142 -0.3151 -0.4303 -0.2463
  527loPI   C1A 8423  14.657   6.369   9.681 -0.0311  0.2223 -0.0504
  527loPI   C2A 8424  14.666   6.298   9.251 -0.2871  0.1547 -0.0611
  527loPI   C3A 8425  14.691   6.308   8.891 -0.1079  0.2838  0.1311
  527loPI   C4A 8426  14.749   6.362   8.434 -0.0995  0.0001  0.0082
  527loPI   C5A 8427  15.118   6.440   8.195  0.1520 -0.3447  0.1763
  527loPI   C6A 8428  15.497   6.355   8.231  0.2291 -0.0976  0.0648
  527loPI   C1B 8429  14.857   6.767   9.775 -0.2412 -0.1020 -0.1261
  527loPI   C2B 8430  14.795   6.749   9.371  0.0865  0.1253 -0.1466
  527loPI   C3B 8431  14.820   6.822   8.900 -0.0743  0.1337 -0.0987
  527loPI   C4B 8432  14.791   6.872   8.419  0.2914  0.1280 -0.0098
  528loPI    C1 8433   3.571   3.707  11.311 -0.2380 -0.0384 -0.0278
  528loPI    C2 8434   3.727   3.791  11.670 -0.2103  0.1680 -0.0865
  528loPI    C3 8435   3.419   4.005  11.530 -0.3048  0.0047 -0.1319
  528loPI   PO4 8436   3.681   3.747  11.155 -0.0511 -0.1520 -0.1190
  528loPI   GL1 8437   3.594   3.718  10.690  0.0637 -0.0621 -0.2562
  528loPI   GL2 8438   3.908   3.775  10.518 -0.1490  0.0948 -0.2135
  528loPI   C1A 8439   3.518   4.027  10.399 -0.1681  0.0647  0.0369
  528loPI   C2A 8440   3.352   4.041   9.900  0.2213  0.3773 -0.2003
  528loPI   C3A 8441   3.327   4.129   9.557 -0.1429 -0.1811 -0.1595
  528loPI   C4A 8442   3.423   4.088   9.103  0.0431 -0.2628 -0.3770
  528loPI   C5A 8443   3.316   4.183   8.609  0.2290 -0.0257 -0.0524
  528loPI   C6A 8444   3.691   4.106   8.317 -0.2867 -0.3908 -0.0103
  528loPI   C1B 8445   3.817   3.597  10.141  0.2011 -0.0680  0.2427
  528loPI   C2B 8446   3.843   3.605   9.565 -0.1369  0.2539 -0.3740
  528loPI   C3B 8447   3.744   3.760   9.197 -0.3733  0.3119 -0.0265
  528loPI   C4B 8448   3.712   3.782   8.788  0.1078 -0.2374  0.1585
  529loPI    C1 8449   5.680  13.578  11.400  0.0572  0.1375 -0.1435
  529loPI    C2 8450   5.697  13.877  11.665  0.1018 -0.0343  0.0493
  529loPI    C3 8451   5.593  13.509  11.784  0.3290 -0.1599 -0.1310
  529loPI   PO4 8452   5.503  13.750  11.177 -0.1865 -0.1074  0.0412
  529loPI   GL1 8453   5.630  13.928  10.703  0.2002  0.0032  0.4851
  529loPI   GL2 8454   5.309  13.728  10.708 -0.1265  0.1731  0.2799
  529loPI   C1A 8455   5.575  13.913  10.255 -0.2489  0.0468  0.0357
  529loPI   C2A 8456   5.740  13.988   9.785 -0.1074 -0.0297 -0.3902
  529loPI   C3A 8457   5.637  14.023   9.356  0.0433  0.0329 -0.0947
  529loPI   C4A 8458   5.563  14.028   8.989  0.0067  0.0348 -0.0264
  529loPI   C5A 8459   5.803  13.968   8.559 -0.4276  0.0500  0.3032
  529loPI   C6A 8460   6.116  14.196   8.361  0.1100 -0.0151 -0.0447
  529loPI   C1B 8461   5.196  13.616  10.325  0.2258 -0.2340 -0.0133
  529loPI   C2B 8462   5.065  13.667   9.914  0.1014 -0.0933 -0.2072
  529loPI   C3B 8463   5.137  13.740   9.518  0.0215  0.1071  0.0828
  529loPI   C4B 8464   5.145  13.785   9.079  0.0394  0.4456  0.1351
  530loPI    C1 8465  16.647   1.936  10.726  0.2471  0.1160 -0.1540
  530loPI    C2 8466  16.720   1.611  10.947  0.2903  0.1656 -0.0949
  530loPI    C3 8467  16.508   1.580  10.609 -0.0270  0.1344  0.1039
  530loPI   PO4 8468  16.917   2.116  10.748  0.0874 -0.2779 -0.1115
  530loPI   GL1 8469  17.097   2.291  10.436 -0.5172  0.3462  0.3209
  530loPI   GL2 8470  17.018   2.174  10.162 -0.0499 -0.0242  0.1325
  530loPI   C1A 8471  17.510   2.256  10.174 -0.1573 -0.3171 -0.0393
  530loPI   C2A 8472  17.590   2.309   9.724 -0.2876  0.3165  0.1069
  530loPI   C3A 8473  17.512   2.244   9.297 -0.1731  0.2457  0.1782
  530loPI   C4A 8474  17.505   2.207   8.830 -0.1511 -0.0114 -0.0974
  530loPI   C5A 8475  17.502   2.146   8.385  0.1832 -0.0096 -0.2076
  530loPI   C6A 8476  17.210   1.875   8.139  0.1619 -0.1284 -0.1826
  530loPI   C1B 8477  17.056   2.185   9.722 -0.0757  0.2554 -0.4343
  530loPI   C2B 8478  17.012   2.141   9.267  0.2733 -0.2379 -0.0418
  530loPI   C3B 8479  17.007   2.083   8.820 -0.0684 -0.0632 -0.2743
  530loPI   C4B 8480  16.846   1.984   8.440  0.2579 -0.2230 -0.0980
  531loPI    C1 8481   2.870  10.062  11.208  0.0503  0.0591 -0.1162
  531loPI    C2 8482   2.483  10.065  11.309  0.0473  0.0356 -0.1269
  531loPI    C3 8483   2.737  10.320  11.483  0.0897 -0.1777  0.1293
  531loPI   PO4 8484   2.859   9.954  10.998  0.0095 -0.3841  0.1489
  531loPI   GL1 8485   2.837   9.836  10.561 -0.4793 -0.3174  0.1446
  531loPI   GL2 8486   2.783  10.121  10.462 -0.1294  0.0228 -0.1968
  531loPI   C1A 8487   3.237   9.756  10.350 -0.4807  0.1485 -0.0616
  531loPI   C2A 8488   3.330   9.809   9.936  0.2991  0.3767 -0.0476
  531loPI   C3A 8489   3.336   9.806   9.535 -0.0022 -0.0319  0.2009
  531loPI   C4A 8490   3.370   9.888   8.995  0.0375 -0.2150 -0.2174
  531loPI   C5A 8491   3.226   9.928   8.581 -0.0322  0.0657 -0.0971
  531loPI   C6A 8492   2.974  10.099   8.153 -0.1496  0.2889  0.0153
  531loPI   C1B 8493   2.958  10.200  10.090 -0.0800  0.1040  0.1323
  531loPI   C2B 8494   3.104  10.238   9.768  0.0906  0.1779  0.1927
  531loPI   C3B 8495   3.010  10.162   9.302 -0.2377  0.3035  0.0419
  531loPI   C4B 8496   2.989  10.177   8.916 -0.0833 -0.0455  0.2081
  532loPI    C1 8497   4.072  17.280  11.185 -0.0708 -0.1629  0.1283
  532loPI    C2 8498   4.386  17.333  11.428 -0.0119  0.1208 -0.0046
  532loPI    C3 8499   4.020  17.439  11.548 -0.0528 -0.1658  0.1322
  532loPI   PO4 8500   4.093  17.124  11.048 -0.1414 -0.0698 -0.0907
  532loPI   GL1 8501   4.174  17.078  10.556 -0.3223  0.0039  0.1157
  532loPI   GL2 8502   4.151  16.708  10.674 -0.1049  0.1727  0.0214
  532loPI   C1A 8503   4.121  17.133  10.136  0.1621  0.0024  0.2575
  532loPI   C2A 8504   4.165  17.196   9.768 -0.0169 -0.2407  0.1939
  532loPI   C3A 8505   4.078  17.256   9.231 -0.1160  0.3293  0.2935
  532loPI   C4A 8506   4.146  17.149   8.805  0.2489 -0.1012 -0.0419
  532loPI   C5A 8507   4.111  16.720   8.503  0.2800  0.1933  0.0242
  532loPI   C6A 8508   3.848  16.375   8.385 -0.0189 -0.0692 -0.0757
  532loPI   C1B 8509   3.968  16.728  10.305 -0.1749  0.4487  0.1101
  532loPI   C2B 8510   4.023  16.706   9.878  0.3574  0.0763 -0.1560
  532loPI   C3B 8511   4.061  16.757   9.501 -0.0214  0.1007  0.1688
  532loPI   C4B 8512   3.927  16.699   9.096 -0.1765  0.3597 -0.2172
  533loPI    C1 8513  13.836   1.998  10.513 -0.0489  0.2717 -0.1442
  533loPI    C2 8514  14.141   2.070  10.763  0.0332 -0.0144 -0.1581
  533loPI    C3 8515  14.080   2.308  10.447  0.3351 -0.0432 -0.2406
  533loPI   PO4 8516  13.888   1.826  10.340 -0.1123  0.3084  0.1926
  533loPI   GL1 8517  13.879   2.104  10.017  0.1065  0.0251 -0.0229
  533loPI   GL2 8518  13.621   2.096   9.908  0.1136  0.0007 -0.2911
  533loPI   C1A 8519  13.901   1.820   9.686 -0.2369  0.0182  0.2588
  533loPI   C2A 8520  14.006   1.687   9.220 -0.0833 -0.0014 -0.2453
  533loPI   C3A 8521  14.085   1.755   8.787 -0.3660 -0.2143 -0.1301
  533loPI   C4A 8522  14.140   1.787   8.374 -0.0658 -0.2528  0.1468
  533loPI   C5A 8523  13.996   1.544   8.114 -0.2373 -0.0741 -0.0844
  533loPI   C6A 8524  13.629   1.313   7.990 -0.4648  0.0712 -0.0591
  533loPI   C1B 8525  13.596   2.095   9.400 -0.0910  0.1195  0.0473
  533loPI   C2B 8526  13.720   2.052   8.960  0.2874 -0.2008  0.0499
  533loPI   C3B 8527  13.649   2.042   8.508  0.0558 -0.0423 -0.0937
  533loPI   C4B 8528  13.883   2.119   8.117 -0.1316 -0.0166  0.0994
  534loPI    C1 8529  10.207   2.877  10.638 -0.1610 -0.2018 -0.0974
  534loPI    C2 8530  10.494   2.688  10.432 -0.0309 -0.0302 -0.0763
  534loPI    C3 8531  10.349   2.527  10.768 -0.0161 -0.1563 -0.1302
  534loPI   PO4 8532   9.947   2.923  10.414 -0.1600  0.1907  0.0729
  534loPI   GL1 8533   9.646   2.785  10.230 -0.2235 -0.1282 -0.0647
  534loPI   GL2 8534   9.364   2.704  10.290  0.0370  0.1577 -0.4562
  534loPI   C1A 8535   9.739   2.664   9.871 -0.1948 -0.2686 -0.0185
  534loPI   C2A 8536   9.653   2.820   9.519 -0.1659 -0.0891  0.2608
  534loPI   C3A 8537   9.577   2.696   9.154 -0.4073 -0.2471 -0.3198
  534loPI   C4A 8538   9.484   2.720   8.715 -0.2761  0.0229 -0.0264
  534loPI   C5A 8539   9.347   2.598   8.366  0.1019  0.0830  0.1757
  534loPI   C6A 8540   9.531   2.700   7.963  0.0209 -0.0016  0.0964
  534loPI   C1B 8541   9.221   2.593   9.859  0.0285  0.0723 -0.0365
  534loPI   C2B 8542   9.161   2.489   9.455 -0.0250 -0.0897  0.2772
  534loPI   C3B 8543   9.096   2.476   9.006 -0.1424  0.0134  0.1315
  534loPI   C4B 8544   8.970   2.464   8.647  0.1360  0.1995 -0.0825
  535loPI    C1 8545  12.080  13.490  10.846  0.0060  0.1233  0.0379
  535loPI    C2 8546  12.028  13.284  11.185 -0.1550  0.1512  0.0310
  535loPI    C3 8547  11.919  13.668  11.166  0.0802  0.2188  0.0223
  535loPI   PO4 8548  11.916  13.380  10.647  0.0584 -0.1907  0.3407
  535loPI   GL1 8549  11.792  13.553  10.290  0.3428 -0.0264 -0.0082
  535loPI   GL2 8550  11.646  13.263  10.121 -0.1461 -0.0589 -0.1142
  535loPI   C1A 8551  12.115  13.530   9.977  0.2309  0.3856  0.0786
  535loPI   C2A 8552  12.154  13.582   9.555  0.3925 -0.1469 -0.3769
  535loPI   C3A 8553  12.193  13.603   9.121  0.0192  0.1574  0.2402
  535loPI   C4A 8554  12.101  13.505   8.706  0.0629 -0.4929  0.1644
  535loPI   C5A 8555  12.031  13.368   8.266  0.2412 -0.2362  0.4430
  535loPI   C6A 8556  11.812  13.372   7.982  0.2825 -0.0327  0.1184
  535loPI   C1B 8557  11.661  13.405   9.750  0.0642 -0.0544 -0.2345
  535loPI   C2B 8558  11.658  13.373   9.318 -0.2401 -0.0799  0.0507
  535loPI   C3B 8559  11.711  13.400   8.941 -0.3520 -0.0991  0.1472
  535loPI   C4B 8560  11.635  13.486   8.473  0.0612 -0.2690 -0.0882
  536loPI    C1 8561  13.974  17.512  10.803  0.2147  0.1691  0.1442
  536loPI    C2 8562  13.891  17.855  10.614 -0.1577  0.0223  0.0327
  536loPI    C3 8563  13.714  17.771  10.962 -0.0374 -0.0404  0.0794
  536loPI   PO4 8564  13.911  17.211  10.576  0.0094  0.0905  0.0906
  536loPI   GL1 8565  14.114  17.097  10.064  0.1275  0.0535 -0.2138
  536loPI   GL2 8566  13.989  17.394   9.884 -0.0448  0.3111 -0.3811
  536loPI   C1A 8567  13.974  16.904   9.789 -0.0129  0.0381  0.0289
  536loPI   C2A 8568  13.827  16.910   9.344  0.1461  0.1803  0.0741
  536loPI   C3A 8569  13.771  16.938   8.915  0.2095  0.1471  0.1229
  536loPI   C4A 8570  13.694  16.913   8.423 -0.1527 -0.2173  0.1987
  536loPI   C5A 8571  13.756  16.692   8.007 -0.1912  0.2671 -0.1085
  536loPI   C6A 8572  13.636  17.002   7.724 -0.0855  0.0260  0.2088
  536loPI   C1B 8573  13.886  17.388   9.538  0.1643 -0.1199 -0.0019
  536loPI   C2B 8574  13.896  17.416   9.048  0.4154  0.0012 -0.2231
  536loPI   C3B 8575  13.722  17.403   8.580 -0.1207  0.1095  0.0408
  536loPI   C4B 8576  13.881  17.388   8.118  0.1435  0.0214  0.4394
  537loPI    C1 8577   1.308   6.689  11.086  0.1903  0.0002  0.0781
  537loPI    C2 8578   1.602   6.791  10.835  0.1884 -0.0731  0.0460
  537loPI    C3 8579   1.667   6.793  11.229  0.2650 -0.1933  0.0347
  537loPI   PO4 8580   1.178   6.474  10.962 -0.2104 -0.0903  0.0005
  537loPI   GL1 8581   1.404   6.334  10.603 -0.0568  0.2798 -0.0064
  537loPI   GL2 8582   1.260   6.645  10.509  0.2277  0.0499  0.1918
  537loPI   C1A 8583   1.623   6.339  10.129  0.2826 -0.1229 -0.3404
  537loPI   C2A 8584   1.673   6.300   9.699  0.1949 -0.2586  0.3241
  537loPI   C3A 8585   1.640   6.459   9.295  0.0715  0.2298  0.0415
  537loPI   C4A 8586   1.602   6.383   8.880  0.1827  0.0092  0.0494
  537loPI   C5A 8587   1.570   6.373   8.474 -0.0307  0.0868 -0.2135
  537loPI   C6A 8588   1.284   6.607   8.167  0.0048  0.4024  0.1029
  537loPI   C1B 8589   1.271   6.707  10.038  0.3916 -0.2207 -0.1658
  537loPI   C2B 8590   1.232   6.694   9.505 -0.1709 -0.3353 -0.1990
  537loPI   C3B 8591   1.184   6.828   9.110 -0.0900  0.4029  0.0083
  537loPI   C4B 8592   1.277   6.739   8.656 -0.3761  0.2752 -0.1803
  538loPI    C1 8593   3.319   3.266  11.272  0.0718  0.2241 -0.0453
  538loPI    C2 8594   3.109   3.550  11.459 -0.2227 -0.0778  0.0926
  538loPI    C3 8595   3.399   3.357  11.654 -0.2708 -0.1260  0.1168
  538loPI   PO4 8596   3.395   3.327  10.983  0.0216  0.2294  0.2304
  538loPI   GL1 8597   3.488   3.177  10.654  0.0805 -0.0208 -0.0303
  538loPI   GL2 8598   3.738   3.183  10.534 -0.1213 -0.1468 -0.1697
  538loPI   C1A 8599   3.248   2.992  10.358  0.2058  0.0920  0.3253
  538loPI   C2A 8600   3.111   3.070  10.016 -0.4807  0.0538  0.0081
  538loPI   C3A 8601   3.230   3.031   9.609  0.1761  0.0408 -0.0743
  538loPI   C4A 8602   3.153   3.066   9.186  0.0067  0.1958 -0.0276
  538loPI   C5A 8603   3.232   3.031   8.679 -0.2269 -0.1683  0.0899
  538loPI   C6A 8604   3.448   3.153   8.205  0.0357 -0.0604  0.2237
  538loPI   C1B 8605   3.741   3.115  10.130 -0.0936 -0.1095 -0.0235
  538loPI   C2B 8606   3.699   3.131   9.647 -0.1610 -0.3667 -0.0229
  538loPI   C3B 8607   3.603   3.231   9.214  0.0293  0.1431 -0.0307
  538loPI   C4B 8608   3.762   3.080   8.717  0.5336  0.0673 -0.0856
  539loPI    C1 8609   1.035   3.464  11.354 -0.1065 -0.0216 -0.1190
  539loPI    C2 8610   0.818   3.476  11.690 -0.1221 -0.1107 -0.1257
  539loPI    C3 8611   1.217   3.492  11.709 -0.1188 -0.2181 -0.0959
  539loPI   PO4 8612   1.001   3.603  11.100 -0.3111 -0.2661 -0.2099
  539loPI   GL1 8613   0.884   3.724  10.686  0.0659  0.1506  0.0927
  539loPI   GL2 8614   0.818   4.010  10.585 -0.2140  0.1265  0.0510
  539loPI   C1A 8615   0.929   3.498  10.417 -0.2390  0.0756  0.1406
  539loPI   C2A 8616   1.082   3.339  10.119  0.1781  0.1315  0.0445
  539loPI   C3A 8617   0.976   3.292   9.655  0.2909  0.2218 -0.0729
  539loPI   C4A 8618   0.980   3.331   9.228  0.0879 -0.0179  0.1417
  539loPI   C5A 8619   1.021   3.356   8.864 -0.3639 -0.1556  0.0898
  539loPI   C6A 8620   1.276   3.314   8.478 -0.0378  0.0579 -0.0711
  539loPI   C1B 8621   1.109   3.917  10.230  0.4151 -0.2743  0.0856
  539loPI   C2B 8622   1.161   3.787   9.819  0.1520  0.0882  0.0489
  539loPI   C3B 8623   1.089   3.799   9.412 -0.0661  0.0809  0.2087
  539loPI   C4B 8624   1.095   3.895   8.923  0.0819 -0.0992 -0.2588
  540loPI    C1 8625  14.467   0.982  10.822 -0.0193 -0.0081 -0.2149
  540loPI    C2 8626  14.424   0.586  10.850  0.0070 -0.0033 -0.1038
  540loPI    C3 8627  14.403   0.814  11.179 -0.0530  0.0922 -0.1732
  540loPI   PO4 8628  14.363   0.974  10.492  0.0566 -0.1557  0.1848
  540loPI   GL1 8629  14.535   1.050  10.060  0.3502  0.0032 -0.3391
  540loPI   GL2 8630  14.563   0.672  10.115  0.1053  0.0908 -0.0211
  540loPI   C1A 8631  14.392   0.994   9.713 -0.2278 -0.0749 -0.4063
  540loPI   C2A 8632  14.300   0.957   9.277  0.2106 -0.0046 -0.0843
  540loPI   C3A 8633  14.262   0.835   8.876 -0.1370 -0.0977 -0.1646
  540loPI   C4A 8634  14.309   0.803   8.438  0.2888  0.2482 -0.3041
  540loPI   C5A 8635  14.522   0.686   7.947 -0.2232  0.0038  0.2481
  540loPI   C6A 8636  14.764   0.738   7.604 -0.0711  0.0040  0.1739
  540loPI   C1B 8637  14.715   0.578   9.702  0.2469  0.1798  0.1888
  540loPI   C2B 8638  14.704   0.523   9.260  0.0491 -0.1355  0.1339
  540loPI   C3B 8639  14.657   0.430   8.844  0.0830 -0.1820 -0.0996
  540loPI   C4B 8640  14.557   0.384   8.389  0.0958 -0.0725 -0.1757
  541loPI    C1 8641  12.177  10.166  11.282  0.0181 -0.1379  0.0658
  541loPI    C2 8642  12.228   9.769  11.267  0.5548 -0.0725 -0.0208
  541loPI    C3 8643  12.482   9.996  11.477  0.1012  0.2057  0.2428
  541loPI   PO4 8644  12.092  10.251  11.055  0.0994 -0.1758 -0.2716
  541loPI   GL1 8645  12.247  10.033  10.519  0.0159 -0.1648 -0.2458
  541loPI   GL2 8646  12.586   9.946  10.400  0.2175 -0.0084  0.0026
  541loPI   C1A 8647  12.330  10.259  10.055  0.0462  0.1732 -0.0628
  541loPI   C2A 8648  12.228  10.307   9.671  0.1867 -0.1217 -0.2753
  541loPI   C3A 8649  12.454  10.212   9.290 -0.1559 -0.2545 -0.1282
  541loPI   C4A 8650  12.364  10.287   8.850 -0.1726  0.2271  0.1086
  541loPI   C5A 8651  12.444  10.360   8.334 -0.0641  0.2367 -0.0268
  541loPI   C6A 8652  12.364  10.394   7.871 -0.2689 -0.0058  0.1343
  541loPI   C1B 8653  12.595   9.876   9.896  0.0317  0.2425  0.0883
  541loPI   C2B 8654  12.705   9.861   9.457 -0.0100  0.2779  0.2041
  541loPI   C3B 8655  12.787   9.933   8.968  0.1767 -0.0568 -0.1183
  541loPI   C4B 8656  12.783   9.948   8.551 -0.0064  0.1282  0.2346
  542loPI    C1 8657   7.674  17.510  11.208  0.0581 -0.1042 -0.0785
  542loPI    C2 8658   7.753  17.813  11.456  0.0826 -0.1082 -0.0816
  542loPI    C3 8659   7.557  17.492  11.590 -0.1887  0.0279 -0.1460
  542loPI   PO4 8660   7.956  17.370  10.972  0.1120  0.4129 -0.0146
  542loPI   GL1 8661   7.882  17.246  10.477  0.0117 -0.1832  0.0398
  542loPI   GL2 8662   7.685  16.930  10.445 -0.1858  0.1095  0.1768
  542loPI   C1A 8663   7.857  17.432  10.077  0.1121 -0.0953 -0.0946
  542loPI   C2A 8664   7.806  17.424   9.712  0.3651 -0.2407 -0.0947
  542loPI   C3A 8665   7.769  17.393   9.269 -0.0420 -0.0826  0.1514
  542loPI   C4A 8666   7.884  17.328   8.860 -0.1150 -0.1221  0.2808
  542loPI   C5A 8667   7.772  17.425   8.421  0.1094 -0.0246  0.0035
  542loPI   C6A 8668   7.427  17.350   8.092  0.2661 -0.1785 -0.1760
  542loPI   C1B 8669   7.717  16.923   9.967 -0.3513  0.0390  0.2184
  542loPI   C2B 8670   7.715  16.979   9.523 -0.1285 -0.1702 -0.0758
  542loPI   C3B 8671   7.705  16.877   9.024  0.3700 -0.0018 -0.0801
  542loPI   C4B 8672   7.727  16.925   8.542  0.4722 -0.0873 -0.2046
  543loPI    C1 8673   4.771   3.128  11.175 -0.2221 -0.1852 -0.0873
  543loPI    C2 8674   4.976   3.355  11.433 -0.0769 -0.0273 -0.3371
  543loPI    C3 8675   4.737   3.064  11.569  0.1974 -0.1181 -0.0358
  543loPI   PO4 8676   5.004   3.026  10.919 -0.0425 -0.1940 -0.0891
  543loPI   GL1 8677   5.071   2.928  10.564  0.0246  0.2304  0.1237
  543loPI   GL2 8678   4.790   2.667  10.588 -0.1143 -0.2768  0.0435
  543loPI   C1A 8679   5.082   3.115  10.199  0.5677 -0.2118 -0.0433
  543loPI   C2A 8680   5.084   3.118   9.789  0.0185  0.0364  0.2481
  543loPI   C3A 8681   5.092   3.145   9.307 -0.0595 -0.2526 -0.2227
  543loPI   C4A 8682   4.982   3.276   8.925 -0.2414 -0.0259 -0.2380
  543loPI   C5A 8683   5.114   3.341   8.525  0.2439  0.0976  0.0676
  543loPI   C6A 8684   4.908   3.780   8.349  0.3450  0.0031  0.2093
  543loPI   C1B 8685   4.955   2.540  10.226  0.2037 -0.0551 -0.2315
  543loPI   C2B 8686   4.889   2.599   9.964 -0.2957  0.0913 -0.1440
  543loPI   C3B 8687   4.994   2.706   9.564  0.1587 -0.4312  0.2744
  543loPI   C4B 8688   4.997   2.697   9.165 -0.1170  0.2284  0.2729
  544loPI    C1 8689  14.073   0.211  10.948 -0.0213 -0.0397  0.0496
  544loPI    C2 8690  14.450   0.078  10.940  0.0730  0.2295 -0.1459
  544loPI    C3 8691  14.267   0.139  11.290  0.2246  0.1379 -0.0494
  544loPI   PO4 8692  14.027   0.256  10.710 -0.1668 -0.1501 -0.1877
  544loPI   GL1 8693  14.188   0.465  10.365  0.1556 -0.0776  0.1343
  544loPI   GL2 8694  13.963   0.642  10.169  0.2366  0.2226 -0.0236
  544loPI   C1A 8695  14.273   0.308   9.946 -0.0406 -0.1247 -0.2611
  544loPI   C2A 8696  14.275   0.452   9.501  0.0855 -0.0033  0.0973
  544loPI   C3A 8697  14.233   0.428   9.093 -0.0979  0.1500  0.1024
  544loPI   C4A 8698  14.150   0.397   8.639  0.0106 -0.0937  0.2431
  544loPI   C5A 8699  14.075   0.397   8.126 -0.1826 -0.1398 -0.0957
  544loPI   C6A 8700  14.381   0.243   7.906 -0.0405  0.0011  0.1364
  544loPI   C1B 8701  13.909   0.731   9.732  0.0512 -0.1159 -0.1914
  544loPI   C2B 8702  13.828   0.672   9.287 -0.2074 -0.1248  0.3346
  544loPI   C3B 8703  13.777   0.657   8.914 -0.1253 -0.3288  0.1519
  544loPI   C4B 8704  13.821   0.735   8.397  0.1738  0.3276 -0.1123
  545loPI    C1 8705   8.894   8.585  10.810  0.0941 -0.0804 -0.0154
  545loPI    C2 8706   8.613   8.735  11.051 -0.0993 -0.2380 -0.1397
  545loPI    C3 8707   8.998   8.824  11.114 -0.1963  0.1988 -0.1305
  545loPI   PO4 8708   8.723   8.672  10.550  0.1573  0.2042  0.1495
  545loPI   GL1 8709   8.470   8.737  10.256 -0.0598  0.1722  0.1159
  545loPI   GL2 8710   8.224   9.027  10.177 -0.0679 -0.1063 -0.1396
  545loPI   C1A 8711   8.633   8.636   9.875 -0.0287 -0.0957 -0.1903
  545loPI   C2A 8712   8.740   8.503   9.573 -0.1476  0.1464  0.0077
  545loPI   C3A 8713   8.824   8.632   9.123 -0.1172 -0.1147 -0.0458
  545loPI   C4A 8714   8.772   8.648   8.687 -0.4508  0.2372 -0.0657
  545loPI   C5A 8715   8.826   8.831   8.235 -0.2870 -0.2923  0.2568
  545loPI   C6A 8716   8.778   8.782   7.785 -0.5027  0.1039  0.1631
  545loPI   C1B 8717   8.326   9.000   9.748 -0.2686 -0.2137  0.1124
  545loPI   C2B 8718   8.386   8.880   9.363  0.2208  0.0485 -0.0028
  545loPI   C3B 8719   8.185   8.965   8.943  0.1754 -0.0773 -0.0167
  545loPI   C4B 8720   8.215   9.140   8.503 -0.1436 -0.1088 -0.0290
  546loPI    C1 8721   8.343  15.221  11.248  0.0035 -0.0242  0.2412
  546loPI    C2 8722   8.628  15.001  11.421 -0.0379 -0.0424  0.2867
  546loPI    C3 8723   8.447  15.293  11.627 -0.1331 -0.1073  0.2955
  546loPI   PO4 8724   8.545  15.242  10.978 -0.0640  0.0613 -0.1772
  546loPI   GL1 8725   8.572  15.187  10.636  0.0877 -0.1490 -0.4052
  546loPI   GL2 8726   8.726  15.314  10.459 -0.0211 -0.0542  0.0315
  546loPI   C1A 8727   8.674  14.862  10.327  0.3182  0.2818  0.1326
  546loPI   C2A 8728   8.716  14.894   9.764 -0.1610 -0.0861  0.5078
  546loPI   C3A 8729   8.673  14.855   9.364  0.1276  0.1223  0.1558
  546loPI   C4A 8730   8.712  14.865   8.909  0.0243 -0.2242 -0.0045
  546loPI   C5A 8731   8.884  14.733   8.448  0.1705 -0.0133  0.0298
  546loPI   C6A 8732   9.076  14.752   8.094  0.1046  0.1325 -0.0293
  546loPI   C1B 8733   8.785  15.348  10.077  0.1410  0.2640 -0.0409
  546loPI   C2B 8734   8.790  15.418   9.647  0.0645 -0.3010  0.1239
  546loPI   C3B 8735   8.789  15.380   9.135  0.0824  0.0082  0.0528
  546loPI   C4B 8736   8.722  15.356   8.753  0.6381 -0.3491 -0.2407
  547loPI    C1 8737   0.138   9.730  10.738 -0.0009  0.1752  0.1864
  547loPI    C2 8738   0.131   9.903  11.099  0.0075  0.0218  0.2614
  547loPI    C3 8739  -0.040   9.545  11.046  0.0552  0.0186  0.1259
  547loPI   PO4 8740   0.098   9.917  10.563 -0.1555  0.0678 -0.0221
  547loPI   GL1 8741   0.221  10.043  10.228 -0.0737  0.0833  0.0423
  547loPI   GL2 8742   0.481   9.896  10.126 -0.2784 -0.1369  0.0440
  547loPI   C1A 8743   0.095  10.051   9.815  0.2846 -0.1757  0.1194
  547loPI   C2A 8744   0.194  10.333   9.492 -0.0453 -0.1232  0.0071
  547loPI   C3A 8745   0.320  10.359   9.129 -0.1595 -0.2349 -0.1840
  547loPI   C4A 8746   0.203  10.418   8.650  0.0419  0.0117  0.4026
  547loPI   C5A 8747   0.223  10.599   8.192  0.0257 -0.0260  0.0029
  547loPI   C6A 8748   0.307  10.959   7.940  0.0243  0.0168  0.1367
  547loPI   C1B 8749   0.549   9.929   9.615 -0.0929  0.2755  0.1156
  547loPI   C2B 8750   0.651  10.006   9.189  0.0785 -0.0419 -0.0441
  547loPI   C3B 8751   0.631  10.113   8.740 -0.0277  0.1834  0.0880
  547loPI   C4B 8752   0.551  10.254   8.282 -0.0601 -0.3299  0.0327
  548loPI    C1 8753  12.919  14.463  10.796  0.1826  0.0951 -0.1218
  548loPI    C2 8754  12.691  14.712  11.010  0.0403 -0.1326 -0.0039
  548loPI    C3 8755  12.983  14.505  11.189 -0.0133 -0.2482 -0.0493
  548loPI   PO4 8756  12.778  14.308  10.627  0.3625 -0.0426 -0.0089
  548loPI   GL1 8757  12.558  14.403  10.186  0.2508 -0.1924  0.1568
  548loPI   GL2 8758  12.287  14.579  10.232  0.1095 -0.3150  0.1345
  548loPI   C1A 8759  12.746  14.360   9.856 -0.2296  0.0645  0.0168
  548loPI   C2A 8760  12.801  14.255   9.439 -0.0530 -0.0129  0.3455
  548loPI   C3A 8761  12.826  14.239   8.972 -0.0710  0.0652  0.2309
  548loPI   C4A 8762  12.572  14.217   8.549  0.5120 -0.1193 -0.3010
  548loPI   C5A 8763  12.187  14.299   8.211  0.0536  0.0331 -0.0205
  548loPI   C6A 8764  11.797  14.429   8.028 -0.2778 -0.3991  0.3727
  548loPI   C1B 8765  12.220  14.452   9.783  0.2658  0.0245 -0.1679
  548loPI   C2B 8766  12.351  14.540   9.469  0.0374  0.1916  0.1993
  548loPI   C3B 8767  12.422  14.525   9.077 -0.4792  0.3996  0.4687
  548loPI   C4B 8768  12.287  14.566   8.646 -0.0986 -0.2832  0.0767
  549loPI    C1 8769   7.228   0.546  10.981  0.2198  0.0805 -0.2194
  549loPI    C2 8770   7.442   0.245  11.133 -0.1989 -0.1129  0.0054
  549loPI    C3 8771   7.370   0.571  11.354 -0.0787 -0.0166 -0.0959
  549loPI   PO4 8772   7.040   0.374  10.902 -0.0588 -0.1099  0.1152
  549loPI   GL1 8773   6.833   0.315  10.574  0.2793 -0.1744 -0.0634
  549loPI   GL2 8774   6.683   0.581  10.595 -0.1219 -0.0379 -0.2908
  549loPI   C1A 8775   6.803   0.267  10.147 -0.0350  0.0658 -0.1511
  549loPI   C2A 8776   6.738   0.313   9.747  0.0610  0.2355 -0.3926
  549loPI   C3A 8777   6.645   0.326   9.259 -0.2318  0.4576  0.1050
  549loPI   C4A 8778   6.597   0.221   8.805 -0.2244  0.0759  0.1470
  549loPI   C5A 8779   6.718   0.353   8.429  0.0986  0.0154  0.0715
  549loPI   C6A 8780   6.855   0.118   8.125 -0.1753 -0.0028 -0.1025
  549loPI   C1B 8781   6.468   0.676  10.246 -0.0603 -0.1661 -0.0341
  549loPI   C2B 8782   6.398   0.655   9.791  0.2255 -0.0803 -0.3040
  549loPI   C3B 8783   6.337   0.713   9.289  0.0787  0.1095  0.0887
  549loPI   C4B 8784   6.357   0.668   8.865 -0.0708 -0.1316 -0.1835
  550loPI    C1 8785   0.018  17.923  11.028 -0.2269  0.1632 -0.0271
  550loPI    C2 8786  -0.315  17.776  11.194 -0.1407 -0.0521 -0.0405
  550loPI    C3 8787   0.006  17.542  11.150  0.0827  0.2101  0.1602
  550loPI   PO4 8788  -0.014  18.063  10.760 -0.5241 -0.1646 -0.1641
  550loPI   GL1 8789  -0.209  18.156  10.452  0.1587 -0.3111  0.1434
  550loPI   GL2 8790  -0.168  17.842  10.275 -0.1898  0.0318  0.0384
  550loPI   C1A 8791  -0.318  18.214   9.992  0.1030  0.0398 -0.1514
  550loPI   C2A 8792  -0.305  18.251   9.556 -0.0026 -0.0710 -0.0968
  550loPI   C3A 8793  -0.357  18.194   9.163 -0.0134  0.0095  0.1493
  550loPI   C4A 8794  -0.427  18.308   8.784 -0.0002  0.2924  0.0973
  550loPI   C5A 8795  -0.396  18.373   8.360  0.0599  0.0381  0.0307
  550loPI   C6A 8796  -0.516  18.758   8.124  0.0604  0.2624  0.1110
  550loPI   C1B 8797   0.032  17.846   9.922 -0.0317 -0.2473  0.4152
  550loPI   C2B 8798   0.053  17.877   9.556 -0.0412 -0.0377  0.2218
  550loPI   C3B 8799   0.082  17.885   9.207  0.0533  0.2609  0.2135
  550loPI   C4B 8800  -0.075  17.906   8.780 -0.1028  0.0782 -0.0421
  551loPI    C1 8801  14.240   3.228  10.663  0.0229 -0.0891  0.0408
  551loPI    C2 8802  13.880   3.140  10.813  0.0150 -0.0659  0.0356
  551loPI    C3 8803  14.205   2.948  10.947  0.0560  0.2146  0.3506
  551loPI   PO4 8804  14.243   3.302  10.443  0.1297 -0.0032 -0.1175
  551loPI   GL1 8805  14.170   3.293  10.016 -0.2176 -0.1764  0.0783
  551loPI   GL2 8806  14.417   3.008  10.037  0.1072 -0.0214  0.2010
  551loPI   C1A 8807  14.226   3.372   9.601  0.2186 -0.1214 -0.0265
  551loPI   C2A 8808  14.393   3.313   9.258 -0.2183  0.1266 -0.1595
  551loPI   C3A 8809  14.399   3.264   8.898  0.2706 -0.0129 -0.0808
  551loPI   C4A 8810  14.469   3.311   8.444 -0.1692 -0.0088 -0.3041
  551loPI   C5A 8811  14.350   3.204   7.978  0.2502  0.1084  0.1006
  551loPI   C6A 8812  14.467   3.361   7.573  0.1397 -0.2275  0.0542
  551loPI   C1B 8813  14.536   2.949   9.583 -0.1477  0.1019  0.0292
  551loPI   C2B 8814  14.470   2.844   9.180  0.0194 -0.1668  0.1287
  551loPI   C3B 8815  14.271   2.607   8.835 -0.1053 -0.0989 -0.0592
  551loPI   C4B 8816  14.199   2.246   8.631  0.0203 -0.0578  0.1488
  552loPI    C1 8817   2.676  12.135  11.126  0.0984  0.0538 -0.1572
  552loPI    C2 8818   2.597  11.812  11.350  0.2918  0.0615 -0.0755
  552loPI    C3 8819   2.334  12.114  11.334  0.1235 -0.0859 -0.1287
  552loPI   PO4 8820   2.777  12.062  10.873 -0.2784 -0.0479  0.1282
  552loPI   GL1 8821   2.685  12.133  10.507  0.0641 -0.1683  0.4056
  552loPI   GL2 8822   2.554  11.982  10.435 -0.0757 -0.1298 -0.2178
  552loPI   C1A 8823   2.896  12.198  10.053  0.4160  0.1942  0.3630
  552loPI   C2A 8824   2.896  12.060   9.741  0.1676 -0.1451 -0.1402
  552loPI   C3A 8825   3.018  12.219   9.338  0.3485  0.0300 -0.2094
  552loPI   C4A 8826   3.071  12.061   8.904  0.0178  0.0572 -0.0787
  552loPI   C5A 8827   2.887  11.868   8.501 -0.2160  0.3338 -0.0076
  552loPI   C6A 8828   2.927  12.006   8.044 -0.0663 -0.0325 -0.2224
  552loPI   C1B 8829   2.419  11.904   9.997 -0.0982  0.3646  0.0213
  552loPI   C2B 8830   2.457  11.873   9.611  0.0948 -0.0650 -0.1079
  552loPI   C3B 8831   2.537  12.052   9.318 -0.1760  0.0199 -0.1905
  552loPI   C4B 8832   2.545  11.958   8.836 -0.1103 -0.4888 -0.4231
  553loPI    C1 8833   3.804  10.308  11.053 -0.0558  0.1121 -0.1293
  553loPI    C2 8834   4.079  10.583  10.958  0.2027 -0.0760  0.0594
  553loPI    C3 8835   4.095  10.398  11.312 -0.1648 -0.0968  0.0689
  553loPI   PO4 8836   3.708  10.018  10.867 -0.0243  0.2573  0.3890
  553loPI   GL1 8837   3.643  10.000  10.473  0.0988 -0.1635  0.0674
  553loPI   GL2 8838   3.849  10.425  10.511 -0.0992 -0.2847  0.2331
  553loPI   C1A 8839   3.831   9.883  10.139  0.0337  0.1968  0.1086
  553loPI   C2A 8840   3.874  10.020   9.690 -0.2525  0.1722 -0.2966
  553loPI   C3A 8841   3.766  10.066   9.354  0.0634 -0.1293 -0.1029
  553loPI   C4A 8842   3.896  10.033   8.952  0.1197  0.2453  0.0056
  553loPI   C5A 8843   3.874  10.062   8.593  0.0649 -0.0046 -0.0809
  553loPI   C6A 8844   3.584  10.117   8.256 -0.0072  0.0643 -0.2406
  553loPI   C1B 8845   3.960  10.403  10.077 -0.3285 -0.0191  0.0066
  553loPI   C2B 8846   4.026  10.545   9.616 -0.2866  0.1258  0.0708
  553loPI   C3B 8847   4.003  10.493   9.247  0.2142  0.1759  0.0014
  553loPI   C4B 8848   3.986  10.558   8.753  0.0913 -0.2033  0.0129
  554loPI    C1 8849  15.269  10.478  10.796 -0.0591 -0.0964 -0.0208
  554loPI    C2 8850  15.043  10.667  11.067  0.0134  0.0705 -0.0754
  554loPI    C3 8851  15.363  10.457  11.184 -0.0099  0.0643 -0.0233
  554loPI   PO4 8852  15.156  10.284  10.658 -0.0873 -0.1146 -0.0159
  554loPI   GL1 8853  14.932  10.363  10.251 -0.0344 -0.3932 -0.0377
  554loPI   GL2 8854  14.969  10.005  10.218  0.2776 -0.1550 -0.3152
  554loPI   C1A 8855  14.652  10.458   9.915 -0.2006  0.4037 -0.2285
  554loPI   C2A 8856  14.761  10.544   9.528 -0.2298 -0.2156 -0.0645
  554loPI   C3A 8857  14.768  10.510   9.188  0.2318  0.4954  0.0951
  554loPI   C4A 8858  14.801  10.592   8.776 -0.0225 -0.0742 -0.3599
  554loPI   C5A 8859  14.687  10.588   8.472 -0.2366  0.1672 -0.0154
  554loPI   C6A 8860  14.770  10.806   8.038  0.1092 -0.0901 -0.0568
  554loPI   C1B 8861  14.994  10.137   9.760 -0.3247 -0.2337  0.0734
  554loPI   C2B 8862  15.096  10.208   9.395 -0.0954  0.0558 -0.0862
  554loPI   C3B 8863  15.192  10.251   8.936  0.1836  0.3161  0.0041
  554loPI   C4B 8864  15.092  10.285   8.451  0.0507 -0.2027  0.3600
  555loPI    C1 8865  15.712  10.952  10.569 -0.1140 -0.1695 -0.0445
  555loPI    C2 8866  15.379  11.026  10.777 -0.0353 -0.1005  0.0576
  555loPI    C3 8867  15.696  10.863  10.958 -0.0090 -0.1549 -0.0366
  555loPI   PO4 8868  15.700  10.813  10.382 -0.0699  0.1030 -0.0139
  555loPI   GL1 8869  15.843  10.789   9.979  0.0768 -0.1408 -0.3720
  555loPI   GL2 8870  16.091  11.058  10.074  0.3101 -0.0102  0.2302
  555loPI   C1A 8871  15.732  10.813   9.530  0.1722  0.1823 -0.2154
  555loPI   C2A 8872  15.761  10.890   9.003 -0.1100 -0.0791 -0.0108
  555loPI   C3A 8873  15.742  10.811   8.510 -0.1911  0.1257  0.0083
  555loPI   C4A 8874  15.863  10.720   8.119  0.0856  0.3568  0.3021
  555loPI   C5A 8875  16.220  10.848   7.991 -0.0881 -0.1227 -0.0846
  555loPI   C6A 8876  16.671  10.964   7.974  0.3825 -0.2880 -0.2473
  555loPI   C1B 8877  16.142  11.023   9.721  0.2700  0.1864  0.0857
  555loPI   C2B 8878  16.193  11.040   9.367  0.0190  0.0636  0.2754
  555loPI   C3B 8879  16.409  11.069   8.977 -0.0206 -0.2628  0.0131
  555loPI   C4B 8880  16.223  11.118   8.650  0.0188 -0.0504  0.1593
  556loPI    C1 8881  15.738   0.501  10.746 -0.0173 -0.2882  0.0770
  556loPI    C2 8882  15.663   0.553  11.136 -0.1313  0.0486  0.0138
  556loPI    C3 8883  15.390   0.660  10.864  0.0181 -0.0228 -0.1660
  556loPI   PO4 8884  15.901   0.561  10.672  0.0248  0.0402  0.1926
  556loPI   GL1 8885  15.987   0.472  10.281 -0.2942  0.2981  0.0548
  556loPI   GL2 8886  16.290   0.592  10.205 -0.0992 -0.0853  0.1818
  556loPI   C1A 8887  15.739   0.408   9.819  0.1956  0.2697  0.0192
  556loPI   C2A 8888  15.673   0.285   9.361  0.3884 -0.2515  0.1400
  556loPI   C3A 8889  15.483   0.243   8.955 -0.2284 -0.0571  0.1576
  556loPI   C4A 8890  15.473   0.258   8.490 -0.3334 -0.1205  0.0743
  556loPI   C5A 8891  15.756  -0.003   8.235 -0.1359  0.0887 -0.2154
  556loPI   C6A 8892  16.076   0.081   7.960  0.0717  0.2229 -0.0679
  556loPI   C1B 8893  16.221   0.586   9.807  0.1469 -0.1192  0.4977
  556loPI   C2B 8894  16.111   0.476   9.447 -0.3240  0.2449  0.1408
  556loPI   C3B 8895  15.906   0.478   9.029 -0.3081  0.0918  0.1211
  556loPI   C4B 8896  15.928   0.439   8.590  0.0832  0.0085 -0.0419
  557loPI    C1 8897   0.742  17.097  11.094  0.2083 -0.0946  0.0620
  557loPI    C2 8898   0.803  16.883  11.426  0.0731 -0.0170  0.1376
  557loPI    C3 8899   0.981  17.238  11.382  0.0374  0.0034  0.1572
  557loPI   PO4 8900   0.674  16.896  10.875  0.1875  0.2373  0.1679
  557loPI   GL1 8901   0.913  16.998  10.481 -0.3264 -0.1144  0.0660
  557loPI   GL2 8902   0.711  16.868  10.350  0.1747  0.0268 -0.1801
  557loPI   C1A 8903   0.900  17.131  10.050 -0.3137 -0.0269  0.2774
  557loPI   C2A 8904   0.828  17.263   9.524  0.2902 -0.0177 -0.1236
  557loPI   C3A 8905   0.701  17.214   9.193 -0.0014 -0.2103  0.3977
  557loPI   C4A 8906   0.733  17.345   8.755 -0.4780  0.3547  0.2409
  557loPI   C5A 8907   0.870  17.321   8.315 -0.1177  0.0794 -0.0609
  557loPI   C6A 8908   1.188  17.245   7.981 -0.2157 -0.2099  0.0170
  557loPI   C1B 8909   0.777  16.638  10.052 -0.0222 -0.2166  0.0701
  557loPI   C2B 8910   0.737  16.772   9.682 -0.0425 -0.2995  0.4590
  557loPI   C3B 8911   0.641  16.683   9.187 -0.1526  0.3297  0.0431
  557loPI   C4B 8912   0.670  16.808   8.756 -0.1621  0.1419  0.0296
  558loPI    C1 8913   2.359   7.464  11.010 -0.0825 -0.2931 -0.0060
  558loPI    C2 8914   2.333   7.356  11.394 -0.2844  0.0716  0.0871
  558loPI    C3 8915   2.566   7.663  11.289 -0.2550 -0.0067 -0.0785
  558loPI   PO4 8916   2.407   7.284  10.821 -0.0534 -0.1510  0.0326
  558loPI   GL1 8917   2.517   7.283  10.462  0.2700 -0.1841 -0.2243
  558loPI   GL2 8918   2.770   7.255  10.368  0.0795  0.2542 -0.1635
  558loPI   C1A 8919   2.329   7.419  10.163 -0.0546  0.1060 -0.1079
  558loPI   C2A 8920   2.304   7.501   9.743  0.0167  0.1700 -0.0480
  558loPI   C3A 8921   2.376   7.679   9.367  0.0665  0.1028 -0.0487
  558loPI   C4A 8922   2.335   7.661   8.907  0.3607 -0.1839  0.0951
  558loPI   C5A 8923   2.202   7.785   8.510 -0.1125  0.0504 -0.1311
  558loPI   C6A 8924   2.138   7.997   8.124  0.0935 -0.0167 -0.0729
  558loPI   C1B 8925   2.790   7.187   9.902  0.0171 -0.1978 -0.1622
  558loPI   C2B 8926   2.763   7.251   9.503  0.0448 -0.1506  0.1187
  558loPI   C3B 8927   2.742   7.341   9.027  0.1193 -0.1433 -0.1351
  558loPI   C4B 8928   2.621   7.332   8.605 -0.0980  0.1786 -0.1827
  559loPI    C1 8929   8.657   4.730  10.716 -0.0580  0.1047 -0.1272
  559loPI    C2 8930   8.896   4.557  10.985  0.0052  0.2874 -0.0639
  559loPI    C3 8931   8.875   4.955  10.965 -0.3653  0.2743 -0.0057
  559loPI   PO4 8932   8.763   4.538  10.393  0.2237 -0.1633  0.0697
  559loPI   GL1 8933   8.843   4.674  10.071  0.0328 -0.1779 -0.1586
  559loPI   GL2 8934   8.778   4.331   9.925  0.1531  0.2470 -0.2331
  559loPI   C1A 8935   8.732   4.746   9.628 -0.0464 -0.0642 -0.0403
  559loPI   C2A 8936   8.750   4.810   9.178  0.2640 -0.1342  0.1707
  559loPI   C3A 8937   8.562   4.602   8.767 -0.0193 -0.1147 -0.0303
  559loPI   C4A 8938   8.388   4.545   8.352  0.1643  0.2360 -0.2175
  559loPI   C5A 8939   8.114   4.497   7.988  0.3228  0.2156 -0.1760
  559loPI   C6A 8940   7.637   4.568   7.805 -0.1142 -0.0100 -0.0916
  559loPI   C1B 8941   8.589   4.252   9.539 -0.3162 -0.2937  0.1382
  559loPI   C2B 8942   8.465   4.180   9.136  0.1127  0.0637 -0.0122
  559loPI   C3B 8943   8.420   4.142   8.718  0.4882  0.2824  0.2115
  559loPI   C4B 8944   8.351   4.042   8.311 -0.1294 -0.1868  0.0548
  560loPI    C1 8945  16.211  16.842  10.818 -0.2485  0.2613 -0.1592
  560loPI    C2 8946  15.898  16.633  10.953  0.1403 -0.1026  0.2124
  560loPI    C3 8947  16.063  16.916  11.182  0.0864  0.0915  0.0157
  560loPI   PO4 8948  16.250  16.701  10.567 -0.0392  0.2651  0.1002
  560loPI   GL1 8949  16.154  16.628  10.208  0.1441  0.2707  0.2661
  560loPI   GL2 8950  15.982  16.799  10.033  0.0754  0.3190  0.0668
  560loPI   C1A 8951  16.524  16.845   9.964  0.0254 -0.0173  0.0083
  560loPI   C2A 8952  16.592  16.970   9.477  0.2279  0.0044 -0.3428
  560loPI   C3A 8953  16.551  16.934   8.956  0.2260  0.0012 -0.1933
  560loPI   C4A 8954  16.558  17.027   8.554  0.1856  0.0445 -0.0311
  560loPI   C5A 8955  16.456  16.906   8.162  0.3405  0.2607  0.1532
  560loPI   C6A 8956  16.215  16.911   7.788  0.2748 -0.0183  0.0920
  560loPI   C1B 8957  16.102  16.824   9.652 -0.0010 -0.1413 -0.3495
  560loPI   C2B 8958  16.095  16.753   9.226 -0.0687  0.0263 -0.1372
  560loPI   C3B 8959  16.032  16.770   8.777  0.1658  0.3653  0.3923
  560loPI   C4B 8960  15.983  16.634   8.260 -0.3034  0.3480  0.0673
  561loPI    C1 8961   0.069  10.908  10.766  0.1915 -0.2317  0.0171
  561loPI    C2 8962  -0.066  10.788  11.123  0.1446 -0.0989  0.0445
  561loPI    C3 8963   0.328  10.815  11.056  0.1522  0.0744  0.1538
  561loPI   PO4 8964  -0.042  10.800  10.602 -0.3079 -0.0678  0.3213
  561loPI   GL1 8965  -0.503  10.901  10.441  0.0570 -0.1275 -0.3750
  561loPI   GL2 8966  -0.631  10.646  10.404 -0.0420 -0.4214  0.0371
  561loPI   C1A 8967  -0.621  10.979   9.951  0.2456  0.4040  0.2138
  561loPI   C2A 8968  -0.558  11.027   9.443  0.0237  0.1879 -0.0874
  561loPI   C3A 8969  -0.496  10.969   9.046 -0.1633  0.0011  0.3590
  561loPI   C4A 8970  -0.552  11.069   8.583 -0.1163 -0.4116  0.4434
  561loPI   C5A 8971  -0.618  11.278   8.144 -0.0376  0.0222 -0.0262
  561loPI   C6A 8972  -0.810  11.656   7.853 -0.0725 -0.2548 -0.4336
  561loPI   C1B 8973  -0.765  10.502  10.007 -0.1640 -0.1060  0.2384
  561loPI   C2B 8974  -0.755  10.480   9.567 -0.0144  0.1549 -0.0358
  561loPI   C3B 8975  -0.632  10.474   9.173 -0.0193 -0.1169  0.3211
  561loPI   C4B 8976  -0.559  10.600   8.774  0.2193  0.0554 -0.0095
  562loPI    C1 8977   0.667  12.824  10.654 -0.1126 -0.0101  0.1278
  562loPI    C2 8978   0.925  12.833  10.960  0.2435 -0.0223 -0.1648
  562loPI    C3 8979   0.558  12.684  11.012  0.2851  0.0124  0.2636
  562loPI   PO4 8980   0.789  13.093  10.542  0.2527 -0.1835 -0.0294
  562loPI   GL1 8981   0.835  13.461  10.173  0.3098  0.0653 -0.0495
  562loPI   GL2 8982   0.513  13.746   9.984 -0.2098  0.0609 -0.3801
  562loPI   C1A 8983   0.965  13.484   9.687 -0.1183 -0.5988 -0.0060
  562loPI   C2A 8984   0.872  13.504   9.222  0.1984  0.0570  0.1361
  562loPI   C3A 8985   0.876  13.399   8.743 -0.2314 -0.0819  0.0282
  562loPI   C4A 8986   0.808  13.405   8.320  0.2776  0.2442 -0.0101
  562loPI   C5A 8987   1.005  13.059   8.063 -0.1129 -0.0271 -0.4315
  562loPI   C6A 8988   0.786  12.737   7.903  0.0346 -0.0914 -0.2769
  562loPI   C1B 8989   0.591  13.861   9.518  0.2467 -0.0497 -0.1931
  562loPI   C2B 8990   0.454  13.893   9.137  0.1909 -0.0257  0.2779
  562loPI   C3B 8991   0.540  13.887   8.673  0.0986 -0.0225 -0.0839
  562loPI   C4B 8992   0.610  13.862   8.190 -0.0231  0.1367  0.2311
  563loPI    C1 8993   1.799   5.105  11.362  0.3490  0.1581  0.0351
  563loPI    C2 8994   1.606   5.258  11.676  0.0918 -0.1205  0.0177
  563loPI    C3 8995   1.851   4.946  11.725 -0.0902 -0.2811 -0.0837
  563loPI   PO4 8996   1.526   5.137  11.160 -0.0640 -0.1139 -0.1488
  563loPI   GL1 8997   1.674   5.095  10.710  0.1060  0.0618  0.2389
  563loPI   GL2 8998   1.874   5.404  10.555 -0.3415  0.0606 -0.2257
  563loPI   C1A 8999   1.679   5.025  10.250 -0.2465 -0.0455  0.0130
  563loPI   C2A 9000   1.819   4.982   9.794 -0.0865 -0.1295 -0.1178
  563loPI   C3A 9001   1.802   5.024   9.371 -0.0119  0.0874 -0.0577
  563loPI   C4A 9002   1.782   4.981   8.957  0.1133  0.0109 -0.3541
  563loPI   C5A 9003   1.803   5.116   8.431 -0.0818 -0.1740 -0.0835
  563loPI   C6A 9004   1.706   4.791   8.016 -0.0911  0.2371  0.1014
  563loPI   C1B 9005   1.848   5.573  10.137  0.0187 -0.1282  0.2027
  563loPI   C2B 9006   1.862   5.496   9.714  0.0965  0.0585 -0.0258
  563loPI   C3B 9007   1.803   5.532   9.261 -0.5462 -0.2953 -0.1997
  563loPI   C4B 9008   1.940   5.565   8.801 -0.2362 -0.3373 -0.2037
  564loPI    C1 9009  16.797  16.369  10.633 -0.0089 -0.1190 -0.0288
  564loPI    C2 9010  16.668  16.631  10.907  0.0903  0.2606 -0.3353
  564loPI    C3 9011  16.830  16.284  11.023  0.0139  0.3580  0.0798
  564loPI   PO4 9012  16.944  16.477  10.477  0.0295  0.1371  0.0206
  564loPI   GL1 9013  16.936  16.580  10.049  0.0683  0.0632  0.1081
  564loPI   GL2 9014  17.119  16.885  10.190 -0.0637  0.1087 -0.5087
  564loPI   C1A 9015  17.017  16.623   9.683  0.0822 -0.3840 -0.0985
  564loPI   C2A 9016  17.045  16.637   9.322 -0.1362  0.0115  0.0646
  564loPI   C3A 9017  16.910  16.584   8.928  0.0502 -0.3336 -0.2324
  564loPI   C4A 9018  16.867  16.634   8.478 -0.1295  0.0932  0.1311
  564loPI   C5A 9019  16.930  16.944   8.125 -0.1305 -0.2667  0.0495
  564loPI   C6A 9020  17.380  17.116   8.106 -0.0851  0.1650  0.2997
  564loPI   C1B 9021  17.110  17.084   9.761  0.4532  0.0067  0.2303
  564loPI   C2B 9022  17.168  17.110   9.302  0.0286  0.3106 -0.0061
  564loPI   C3B 9023  17.035  17.132   8.987 -0.1146 -0.1313  0.4001
  564loPI   C4B 9024  17.044  17.231   8.562  0.1681 -0.3459 -0.3199
  565loPI    C1 9025  14.971   1.034  10.778  0.1102 -0.0985  0.2068
  565loPI    C2 9026  14.840   0.754  10.524 -0.0238  0.1036  0.0495
  565loPI    C3 9027  14.897   0.663  10.910 -0.3787 -0.0574  0.0681
  565loPI   PO4 9028  15.137   1.156  10.633 -0.1181 -0.1738  0.1770
  565loPI   GL1 9029  15.280   1.192  10.314 -0.0585  0.0642 -0.4025
  565loPI   GL2 9030  15.057   1.037  10.204  0.2819 -0.0908 -0.4722
  565loPI   C1A 9031  15.397   1.257   9.935  0.4753  0.1793  0.0869
  565loPI   C2A 9032  15.372   1.122   9.524 -0.1070  0.0052  0.2404
  565loPI   C3A 9033  15.284   1.122   9.070  0.1003  0.0811  0.1153
  565loPI   C4A 9034  15.276   1.121   8.670  0.2988 -0.0918  0.0911
  565loPI   C5A 9035  15.199   1.222   8.293  0.0388 -0.2559 -0.1030
  565loPI   C6A 9036  15.311   1.013   7.872  0.2833 -0.0268  0.0700
  565loPI   C1B 9037  14.940   1.122   9.755  0.1312 -0.0519 -0.2256
  565loPI   C2B 9038  14.826   1.021   9.364  0.1549  0.2219  0.1179
  565loPI   C3B 9039  14.768   1.031   8.995 -0.2024 -0.3836  0.2960
  565loPI   C4B 9040  14.755   0.967   8.662 -0.0108 -0.1869 -0.2680
  566loPI    C1 9041   9.781  14.913  10.929  0.0682  0.0202 -0.1581
  566loPI    C2 9042   9.899  14.898  11.311 -0.2240  0.2831 -0.0524
  566loPI    C3 9043  10.171  14.897  11.017  0.0010  0.0187  0.1508
  566loPI   PO4 9044   9.580  14.716  10.821 -0.0461  0.2882 -0.1373
  566loPI   GL1 9045   9.280  14.564  10.574  0.2389 -0.0296  0.1192
  566loPI   GL2 9046   8.971  14.573  10.561  0.1196 -0.2466 -0.2396
  566loPI   C1A 9047   9.629  14.756  10.182 -0.0696 -0.1426 -0.1874
  566loPI   C2A 9048   9.649  14.709   9.770  0.0297 -0.0360 -0.0215
  566loPI   C3A 9049   9.495  14.708   9.351 -0.1565 -0.2597  0.0309
  566loPI   C4A 9050   9.557  14.646   8.821  0.0099 -0.2933 -0.0182
  566loPI   C5A 9051   9.500  14.480   8.398 -0.1755  0.0147  0.1142
  566loPI   C6A 9052   9.358  14.278   8.065  0.0200  0.2493 -0.1311
  566loPI   C1B 9053   9.069  14.509  10.068  0.0494  0.0668 -0.1416
  566loPI   C2B 9054   9.034  14.518   9.645 -0.3517 -0.1325 -0.1647
  566loPI   C3B 9055   9.046  14.445   9.214 -0.0005  0.4030  0.0180
  566loPI   C4B 9056   9.114  14.443   8.762 -0.0295 -0.4268 -0.0743
  567loPI    C1 9057   4.629  10.404  11.349  0.0009 -0.0006  0.0396
  567loPI    C2 9058   4.966  10.578  11.224 -0.1502  0.1929 -0.1045
  567loPI    C3 9059   4.845  10.625  11.603  0.1204 -0.0966  0.0221
  567loPI   PO4 9060   4.540  10.339  11.095  0.1656  0.2292  0.0070
  567loPI   GL1 9061   4.486  10.473  10.622  0.0591  0.1785 -0.4546
  567loPI   GL2 9062   4.578  10.162  10.572 -0.1953  0.0960  0.0721
  567loPI   C1A 9063   4.529  10.642  10.182  0.0596  0.0011 -0.1024
  567loPI   C2A 9064   4.478  10.675   9.697  0.0893  0.0807  0.0839
  567loPI   C3A 9065   4.420  10.722   9.254  0.0338  0.1084  0.2846
  567loPI   C4A 9066   4.477  10.747   8.775 -0.1341  0.0210 -0.3098
  567loPI   C5A 9067   4.526  10.913   8.422  0.0294  0.4240 -0.0131
  567loPI   C6A 9068   4.756  11.138   8.164 -0.0290  0.1191 -0.1816
  567loPI   C1B 9069   4.269  10.096  10.248  0.1657  0.0031  0.0731
  567loPI   C2B 9070   4.324  10.136   9.813  0.1574 -0.3274  0.0726
  567loPI   C3B 9071   4.255  10.087   9.362  0.1811  0.1883  0.2998
  567loPI   C4B 9072   4.331  10.231   8.898 -0.1584 -0.0075  0.3297
  568loPI    C1 9073   5.734   9.227  10.925 -0.0598 -0.0759  0.0414
  568loPI    C2 9074   5.563   9.246  11.287  0.0606 -0.0250  0.0962
  568loPI    C3 9075   5.944   9.126  11.251 -0.0220 -0.2542 -0.0371
  568loPI   PO4 9076   5.570   9.379  10.789  0.3428  0.1454 -0.1205
  568loPI   GL1 9077   5.418   9.395  10.370 -0.0164  0.2154  0.0026
  568loPI   GL2 9078   5.604   9.628  10.343 -0.1421  0.0646 -0.1132
  568loPI   C1A 9079   5.072   9.329  10.143 -0.2387 -0.2859  0.1993
  568loPI   C2A 9080   5.101   9.494   9.719 -0.1168  0.1038  0.1610
  568loPI   C3A 9081   5.093   9.453   9.335  0.0958 -0.2335 -0.0558
  568loPI   C4A 9082   5.135   9.567   8.913  0.2812  0.0659 -0.2024
  568loPI   C5A 9083   5.095   9.497   8.428 -0.1914  0.2112  0.0516
  568loPI   C6A 9084   5.072   9.229   8.067 -0.0705  0.0367  0.2293
  568loPI   C1B 9085   5.660   9.620   9.921 -0.1695  0.2732  0.1127
  568loPI   C2B 9086   5.611   9.706   9.489  0.2832 -0.1058  0.0907
  568loPI   C3B 9087   5.605   9.599   9.017  0.3061  0.2744 -0.1302
  568loPI   C4B 9088   5.620   9.619   8.632 -0.0724 -0.0199  0.2940
  569loPI    C1 9089   0.920  12.326  10.982 -0.0374  0.0526 -0.0583
  569loPI    C2 9090   0.862  11.931  10.960  0.0767  0.0467 -0.2814
  569loPI    C3 9091   1.044  12.088  11.280 -0.2491 -0.0441 -0.0457
  569loPI   PO4 9092   0.879  12.374  10.734 -0.1753  0.2983 -0.1131
  569loPI   GL1 9093   0.853  12.379  10.275  0.1008  0.2303 -0.2011
  569loPI   GL2 9094   0.909  12.740  10.216 -0.2284 -0.2439  0.2533
  569loPI   C1A 9095   1.109  12.431   9.889 -0.1867 -0.1130 -0.1464
  569loPI   C2A 9096   1.173  12.639   9.449  0.0038 -0.0245  0.2469
  569loPI   C3A 9097   1.097  12.581   9.001  0.0054  0.1145  0.2099
  569loPI   C4A 9098   1.188  12.607   8.571  0.3748  0.0592 -0.0566
  569loPI   C5A 9099   1.215  12.518   8.208  0.0126  0.0568  0.0340
  569loPI   C6A 9100   1.171  12.329   7.896  0.1530 -0.0309  0.2148
  569loPI   C1B 9101   0.885  12.836   9.801  0.1888 -0.2272 -0.0270
  569loPI   C2B 9102   0.608  12.913   9.441  0.0052  0.0186  0.2119
  569loPI   C3B 9103   0.726  13.031   9.085 -0.0667 -0.0975  0.0683
  569loPI   C4B 9104   0.746  12.864   8.689 -0.0036  0.1374  0.3419
  570loPI    C1 9105  11.933   9.806  10.868  0.0286 -0.0338  0.2104
  570loPI    C2 9106  11.609   9.957  11.047 -0.0063 -0.1185  0.2190
  570loPI    C3 9107  11.762   9.609  11.171 -0.1436 -0.2737 -0.0371
  570loPI   PO4 9108  11.803   9.822  10.478 -0.2401  0.0037  0.1070
  570loPI   GL1 9109  11.593  10.088  10.177  0.0246 -0.1260 -0.1125
  570loPI   GL2 9110  11.846  10.169  10.132  0.1558  0.3741 -0.1052
  570loPI   C1A 9111  11.142  10.212  10.197  0.0240 -0.0356  0.0705
  570loPI   C2A 9112  10.850  10.297   9.874  0.1120  0.1892 -0.4435
  570loPI   C3A 9113  10.858  10.351   9.469 -0.0629  0.0682 -0.0475
  570loPI   C4A 9114  10.945  10.430   9.118  0.1415 -0.2928  0.0363
  570loPI   C5A 9115  11.015  10.413   8.700 -0.1834 -0.0023  0.2220
  570loPI   C6A 9116  11.009  10.229   8.237  0.0129 -0.0997 -0.1429
  570loPI   C1B 9117  11.697  10.158   9.701  0.1435  0.1159  0.1053
  570loPI   C2B 9118  11.788  10.238   9.294 -0.0021 -0.1327 -0.0269
  570loPI   C3B 9119  11.906  10.071   8.939  0.0606 -0.3388 -0.2905
  570loPI   C4B 9120  11.973  10.100   8.549  0.4653  0.0783 -0.2041
  571loPI    C1 9121   1.089   4.119  11.042 -0.0986 -0.0327  0.1654
  571loPI    C2 9122   1.250   4.327  11.344  0.0727 -0.0378  0.0788
  571loPI    C3 9123   1.309   3.932  11.319 -0.1657 -0.0816  0.1859
  571loPI   PO4 9124   1.253   4.250  10.859  0.2226  0.0870  0.1697
  571loPI   GL1 9125   1.443   4.237  10.455 -0.0860 -0.4250  0.0566
  571loPI   GL2 9126   1.459   4.586  10.470  0.0918 -0.0878  0.2244
  571loPI   C1A 9127   1.599   3.999  10.175  0.0590  0.0312 -0.1556
  571loPI   C2A 9128   1.604   3.987   9.701  0.0671  0.1974 -0.2656
  571loPI   C3A 9129   1.569   4.025   9.228  0.0323  0.1231  0.1121
  571loPI   C4A 9130   1.606   3.992   8.815 -0.0285  0.0629 -0.0551
  571loPI   C5A 9131   1.395   3.791   8.495  0.4094 -0.0731 -0.0528
  571loPI   C6A 9132   1.106   3.865   8.101  0.0600  0.1187 -0.3064
  571loPI   C1B 9133   1.663   4.534  10.119  0.0249 -0.2093 -0.0803
  571loPI   C2B 9134   1.736   4.555   9.651  0.1614  0.1828  0.3992
  571loPI   C3B 9135   1.675   4.520   9.221  0.0459  0.0817 -0.1165
  571loPI   C4B 9136   1.693   4.480   8.832  0.0321  0.1922  0.1940
  572loPI    C1 9137  15.469   7.004  10.721  0.2807 -0.1129  0.2431
  572loPI    C2 9138  15.325   7.374  10.771  0.0322 -0.1293 -0.2888
  572loPI    C3 9139  15.673   7.271  10.939 -0.1206  0.1964  0.2525
  572loPI   PO4 9140  15.385   6.984  10.454 -0.0014  0.3068  0.0497
  572loPI   GL1 9141  15.235   6.953  10.062  0.0513  0.1000 -0.0629
  572loPI   GL2 9142  14.972   7.212  10.096  0.0876 -0.0089  0.1779
  572loPI   C1A 9143  15.332   6.902   9.737 -0.3129 -0.0081  0.1316
  572loPI   C2A 9144  15.394   6.833   9.311  0.0845 -0.2546 -0.1927
  572loPI   C3A 9145  15.344   6.934   8.944  0.2102  0.0373  0.1221
  572loPI   C4A 9146  15.263   6.887   8.474  0.1671 -0.0732 -0.2089
  572loPI   C5A 9147  15.051   6.987   7.966 -0.3868  0.2188 -0.0629
  572loPI   C6A 9148  15.283   7.192   7.596 -0.2721 -0.0455  0.0008
  572loPI   C1B 9149  14.985   7.275   9.626 -0.2691  0.1770 -0.1102
  572loPI   C2B 9150  14.969   7.202   9.215 -0.4220  0.1358  0.0313
  572loPI   C3B 9151  14.956   7.306   8.769 -0.0341  0.0695 -0.1127
  572loPI   C4B 9152  14.952   7.314   8.340 -0.0087  0.0923  0.0576
  573loPI    C1 9153   3.975  14.855  11.414  0.0005 -0.1102 -0.0925
  573loPI    C2 9154   3.595  14.981  11.420 -0.0054 -0.1334  0.3235
  573loPI    C3 9155   3.733  14.748  11.714  0.2978 -0.2323  0.1081
  573loPI   PO4 9156   3.951  14.765  11.090 -0.1047  0.1082 -0.3643
  573loPI   GL1 9157   3.857  14.892  10.764 -0.2687 -0.3235 -0.2812
  573loPI   GL2 9158   3.799  15.226  10.601 -0.2269  0.2113  0.2672
  573loPI   C1A 9159   3.668  14.784  10.369  0.0324 -0.0793  0.0333
  573loPI   C2A 9160   3.543  14.743   9.922 -0.2546  0.0857  0.3805
  573loPI   C3A 9161   3.602  14.666   9.614 -0.1192  0.1117 -0.2634
  573loPI   C4A 9162   3.435  14.684   9.264  0.1471 -0.1439 -0.0313
  573loPI   C5A 9163   3.440  14.692   8.855  0.0553  0.1762  0.0955
  573loPI   C6A 9164   3.286  14.708   8.488  0.0478 -0.2416 -0.0300
  573loPI   C1B 9165   3.651  15.266  10.229 -0.1821  0.1072 -0.1044
  573loPI   C2B 9166   3.517  15.219   9.839  0.0627  0.1556  0.0581
  573loPI   C3B 9167   3.644  15.121   9.432 -0.2797  0.0856 -0.2283
  573loPI   C4B 9168   3.652  15.150   9.015 -0.0664 -0.1307 -0.1620
  574loPI    C1 9169   8.069   7.108  10.438 -0.1345  0.1506 -0.0447
  574loPI    C2 9170   7.882   7.230  10.106 -0.3081 -0.3333 -0.1326
  574loPI    C3 9171   7.846   6.850  10.228  0.1400 -0.2825  0.1809
  574loPI   PO4 9172   8.340   7.269  10.410  0.3658 -0.0132  0.2022
  574loPI   GL1 9173   8.524   7.286  10.095 -0.2000  0.0635  0.1659
  574loPI   GL2 9174   8.375   7.485   9.946  0.0517  0.3155 -0.2029
  574loPI   C1A 9175   8.690   7.232   9.695 -0.0535 -0.0442  0.2951
  574loPI   C2A 9176   8.723   7.265   9.210 -0.2110  0.1756 -0.1132
  574loPI   C3A 9177   8.724   7.265   8.730 -0.0481 -0.1089 -0.1622
  574loPI   C4A 9178   8.814   7.121   8.288 -0.1206  0.0089  0.2606
  574loPI   C5A 9179   8.640   7.116   7.948 -0.4048  0.5284  0.0798
  574loPI   C6A 9180   8.556   7.084   7.521 -0.1692  0.1010 -0.3364
  574loPI   C1B 9181   8.340   7.556   9.479 -0.2676  0.1104 -0.1217
  574loPI   C2B 9182   8.361   7.543   9.046 -0.1029 -0.2432 -0.0549
  574loPI   C3B 9183   8.288   7.718   8.582  0.1100 -0.3248 -0.1807
  574loPI   C4B 9184   8.488   7.493   8.258 -0.0308  0.2809  0.1300
  575loPI    C1 9185   3.622  11.005  11.359 -0.0619  0.1841 -0.4017
  575loPI    C2 9186   3.886  10.795  11.574 -0.1253  0.0295 -0.4733
  575loPI    C3 9187   3.704  11.112  11.736 -0.0951 -0.0235 -0.3339
  575loPI   PO4 9188   3.685  10.805  11.149  0.3359  0.1296 -0.0759
  575loPI   GL1 9189   3.693  10.913  10.745  0.0023  0.0670  0.1183
  575loPI   GL2 9190   3.805  11.215  10.602 -0.0440 -0.0421 -0.0472
  575loPI   C1A 9191   3.662  10.852  10.252  0.0704  0.2066  0.2596
  575loPI   C2A 9192   3.599  10.874   9.773 -0.2921 -0.1269 -0.0819
  575loPI   C3A 9193   3.600  10.864   9.288 -0.2580  0.0275 -0.1195
  575loPI   C4A 9194   3.551  10.823   8.883  0.0823 -0.0720 -0.0383
  575loPI   C5A 9195   3.717  11.008   8.523  0.0230 -0.1267  0.0162
  575loPI   C6A 9196   3.759  11.406   8.412 -0.1658 -0.1688  0.1952
  575loPI   C1B 9197   3.759  11.378  10.155  0.0250 -0.0738 -0.1310
  575loPI   C2B 9198   3.757  11.377   9.751 -0.0326  0.0420  0.0694
  575loPI   C3B 9199   3.714  11.482   9.315  0.1928  0.0025 -0.1689
  575loPI   C4B 9200   3.754  11.372   8.879 -0.1070  0.0102  0.4524
  576loPI    C1 9201   1.048   4.974  11.297  0.0196  0.0571 -0.1231
  576loPI    C2 9202   1.052   5.218  11.614 -0.2044 -0.3954  0.2403
  576loPI    C3 9203   1.270   4.883  11.617  0.1846 -0.1617 -0.2969
  576loPI   PO4 9204   0.971   5.093  11.129  0.2337  0.1337  0.0899
  576loPI   GL1 9205   0.930   5.042  10.657 -0.3781 -0.2090  0.1011
  576loPI   GL2 9206   0.843   5.217  10.651  0.2003  0.1190 -0.1914
  576loPI   C1A 9207   1.178   4.952  10.333 -0.1579 -0.1574  0.0653
  576loPI   C2A 9208   1.341   4.869   9.846  0.0462  0.0861 -0.0536
  576loPI   C3A 9209   1.345   4.828   9.367  0.0345  0.2731 -0.0190
  576loPI   C4A 9210   1.250   4.825   9.019  0.0458 -0.2729  0.0995
  576loPI   C5A 9211   1.372   4.884   8.577  0.3254  0.0578 -0.0935
  576loPI   C6A 9212   1.251   4.681   8.269 -0.5686 -0.0732 -0.2140
  576loPI   C1B 9213   0.774   5.244  10.204  0.2916  0.2734  0.1128
  576loPI   C2B 9214   0.792   5.298   9.681 -0.2682 -0.2139 -0.1977
  576loPI   C3B 9215   0.911   5.127   9.254 -0.1147 -0.0435 -0.0649
  576loPI   C4B 9216   0.975   5.241   8.891  0.1915  0.2138 -0.0766
  577loPI    C1 9217  11.260  11.737  10.725  0.0022 -0.1573  0.3668
  577loPI    C2 9218  11.047  11.416  10.617  0.0962 -0.1114  0.0315
  577loPI    C3 9219  11.446  11.394  10.634  0.1180  0.0481 -0.2186
  577loPI   PO4 9220  11.069  11.955  10.603  0.0669 -0.2278  0.2771
  577loPI   GL1 9221  10.910  12.196  10.077  0.1690  0.0061  0.0058
  577loPI   GL2 9222  11.129  12.348  10.192  0.2536  0.1328  0.2468
  577loPI   C1A 9223  10.928  12.109   9.753 -0.3366 -0.2687  0.2812
  577loPI   C2A 9224  10.882  12.223   9.260  0.0884 -0.1544  0.0453
  577loPI   C3A 9225  10.861  12.201   8.884 -0.1587  0.0779  0.0860
  577loPI   C4A 9226  10.795  12.171   8.429  0.4337  0.1997  0.0129
  577loPI   C5A 9227  10.539  12.265   8.069 -0.0118 -0.0570  0.1050
  577loPI   C6A 9228  10.278  12.558   7.991  0.0310 -0.2089  0.0451
  577loPI   C1B 9229  11.047  12.654   9.838 -0.2049 -0.4758  0.0905
  577loPI   C2B 9230  11.049  12.769   9.415 -0.1290  0.0376  0.2653
  577loPI   C3B 9231  11.009  12.719   8.996 -0.1105  0.3330 -0.2527
  577loPI   C4B 9232  10.951  12.693   8.598 -0.0204 -0.0978  0.1279
  578loPI    C1 9233   8.523   0.684  10.805 -0.0513  0.2483 -0.0346
  578loPI    C2 9234   8.581   0.569  11.183  0.2163  0.0322 -0.1386
  578loPI    C3 9235   8.591   0.958  11.089 -0.2956  0.1241  0.1477
  578loPI   PO4 9236   8.365   0.493  10.731 -0.1751 -0.0381 -0.0123
  578loPI   GL1 9237   8.098   0.362  10.445 -0.0264  0.0089 -0.0021
  578loPI   GL2 9238   7.816   0.140  10.322  0.0167  0.3151  0.0616
  578loPI   C1A 9239   8.210   0.338  10.043  0.0922 -0.0012 -0.2997
  578loPI   C2A 9240   8.138   0.351   9.599 -0.2545  0.3922  0.0914
  578loPI   C3A 9241   8.072   0.212   9.136 -0.0064  0.3213 -0.2934
  578loPI   C4A 9242   8.077   0.149   8.645  0.0488 -0.1861 -0.2805
  578loPI   C5A 9243   8.155  -0.203   8.304  0.0899 -0.2425  0.1813
  578loPI   C6A 9244   8.122  -0.447   7.975  0.1267 -0.0394  0.0180
  578loPI   C1B 9245   7.617   0.205   9.913 -0.0048  0.1194  0.1989
  578loPI   C2B 9246   7.550   0.172   9.436  0.1190 -0.1536 -0.0409
  578loPI   C3B 9247   7.539   0.063   9.031  0.2085 -0.1645 -0.0361
  578loPI   C4B 9248   7.646  -0.067   8.617 -0.1036 -0.1257 -0.0726
  579loPI    C1 9249   8.403   9.562  10.798 -0.2095 -0.2265 -0.0549
  579loPI    C2 9250   8.051   9.672  10.954 -0.1050 -0.1543  0.1323
  579loPI    C3 9251   8.370   9.625  11.192  0.0312 -0.1445 -0.0462
  579loPI   PO4 9252   8.448   9.754  10.634  0.2299 -0.2022  0.0923
  579loPI   GL1 9253   8.390   9.512  10.244  0.3604 -0.1206  0.0987
  579loPI   GL2 9254   8.747   9.465  10.304  0.2657  0.1373  0.0204
  579loPI   C1A 9255   8.399   9.500   9.819  0.1336 -0.1184  0.0283
  579loPI   C2A 9256   8.439   9.479   9.383  0.2116 -0.0859 -0.0039
  579loPI   C3A 9257   8.346   9.535   8.926 -0.5608  0.2165  0.2459
  579loPI   C4A 9258   8.316   9.672   8.511 -0.2934 -0.0149 -0.0510
  579loPI   C5A 9259   8.587   9.601   8.227 -0.0525  0.3609 -0.2830
  579loPI   C6A 9260   8.546   9.722   7.840  0.1492 -0.0228  0.1573
  579loPI   C1B 9261   8.757   9.173  10.013 -0.3128  0.0112 -0.0712
  579loPI   C2B 9262   8.763   9.120   9.569  0.1748  0.3511  0.0733
  579loPI   C3B 9263   8.823   9.180   9.147 -0.0062 -0.1749 -0.0811
  579loPI   C4B 9264   8.914   9.145   8.695  0.2844  0.1958 -0.0587
  580loPI    C1 9265  14.793   9.561  10.619  0.1086  0.0830  0.0175
  580loPI    C2 9266  14.732   9.956  10.636  0.0393  0.0725  0.0140
  580loPI    C3 9267  15.078   9.802  10.765  0.0329  0.1255  0.0958
  580loPI   PO4 9268  14.571   9.422  10.445 -0.1086  0.0624 -0.1441
  580loPI   GL1 9269  14.348   9.369  10.062 -0.3347 -0.0697 -0.1006
  580loPI   GL2 9270  14.636   9.265   9.990 -0.0487 -0.2599  0.2491
  580loPI   C1A 9271  14.421   9.529   9.602  0.2528  0.1129  0.1625
  580loPI   C2A 9272  14.567   9.515   9.176 -0.0022 -0.2042 -0.0356
  580loPI   C3A 9273  14.626   9.540   8.710  0.3997 -0.0962 -0.0040
  580loPI   C4A 9274  14.582   9.670   8.260 -0.0265  0.1545 -0.2508
  580loPI   C5A 9275  14.448   9.865   7.992 -0.0665 -0.2651  0.2371
  580loPI   C6A 9276  14.028   9.900   7.770  0.0548 -0.0929 -0.2927
  580loPI   C1B 9277  14.879   9.154   9.539  0.0202  0.0457 -0.3330
  580loPI   C2B 9278  14.924   9.210   9.072  0.0746 -0.0906 -0.0106
  580loPI   C3B 9279  15.041   9.286   8.702  0.0935  0.2020 -0.2411
  580loPI   C4B 9280  15.166   9.296   8.245 -0.1707  0.1741 -0.1021
  581loPI    C1 9281   7.360   9.818  10.669  0.0007 -0.2012  0.0135
  581loPI    C2 9282   7.270   9.939  11.039 -0.0921  0.1536 -0.1209
  581loPI    C3 9283   7.639   9.991  10.896 -0.0297 -0.0724 -0.0464
  581loPI   PO4 9284   7.265   9.938  10.437  0.1283 -0.1986 -0.2345
  581loPI   GL1 9285   6.955   9.687  10.154  0.0262  0.0537  0.0300
  581loPI   GL2 9286   6.918  10.038  10.057 -0.0059  0.0988 -0.1690
  581loPI   C1A 9287   7.026   9.540   9.715  0.0170 -0.1492  0.0604
  581loPI   C2A 9288   6.967   9.549   9.192 -0.1881 -0.0510 -0.0309
  581loPI   C3A 9289   6.984   9.542   8.696  0.0524 -0.2942 -0.2561
  581loPI   C4A 9290   6.985   9.354   8.267  0.2588 -0.6536 -0.0406
  581loPI   C5A 9291   7.206   9.096   8.041 -0.0782 -0.1227  0.3140
  581loPI   C6A 9292   7.488   8.806   7.876 -0.2740  0.1284  0.1433
  581loPI   C1B 9293   6.622   9.938   9.717  0.3206  0.1287  0.1323
  581loPI   C2B 9294   6.567   9.882   9.262 -0.1301 -0.0145  0.3887
  581loPI   C3B 9295   6.672   9.961   8.853  0.2963  0.1863 -0.3492
  581loPI   C4B 9296   6.810  10.089   8.418 -0.0925 -0.0537  0.0894
  582loPI    C1 9297  13.764   9.862  10.828  0.0421 -0.2258  0.3601
  582loPI    C2 9298  13.427   9.718  10.989 -0.0349 -0.2130  0.2123
  582loPI    C3 9299  13.677   9.473  10.796 -0.0130 -0.2028  0.2277
  582loPI   PO4 9300  13.729  10.043  10.611  0.1609  0.0592 -0.0802
  582loPI   GL1 9301  13.552  10.159  10.228 -0.1320 -0.0863 -0.1592
  582loPI   GL2 9302  13.297  10.375  10.167  0.2818 -0.2669  0.2739
  582loPI   C1A 9303  13.618  10.135   9.814 -0.0164  0.0892  0.0663
  582loPI   C2A 9304  13.656  10.216   9.374  0.0590  0.1773 -0.0680
  582loPI   C3A 9305  13.827  10.112   8.941  0.0398  0.2061  0.0435
  582loPI   C4A 9306  13.837  10.136   8.502  0.0113 -0.1292  0.1345
  582loPI   C5A 9307  13.616  10.033   8.136  0.2731 -0.0420 -0.1275
  582loPI   C6A 9308  13.577  10.348   7.988 -0.0381 -0.0263  0.1601
  582loPI   C1B 9309  13.322  10.543   9.750  0.0501 -0.0053  0.1606
  582loPI   C2B 9310  13.404  10.648   9.358  0.2634  0.2549 -0.1448
  582loPI   C3B 9311  13.428  10.518   8.989  0.0158  0.6219 -0.0526
  582loPI   C4B 9312  13.338  10.596   8.568  0.1646 -0.1410 -0.0802
  583loPI    C1 9313   8.759  16.679  10.751  0.4337 -0.1149  0.0114
  583loPI    C2 9314   8.863  17.065  10.746  0.2224 -0.0543  0.1588
  583loPI    C3 9315   8.814  16.876  11.095  0.0537 -0.1393  0.0901
  583loPI   PO4 9316   8.528  16.660  10.592 -0.0594  0.1787 -0.0834
  583loPI   GL1 9317   8.685  16.643  10.251 -0.0469 -0.0047 -0.0313
  583loPI   GL2 9318   8.938  16.734  10.310 -0.1103 -0.1923 -0.0005
  583loPI   C1A 9319   8.680  16.837   9.830 -0.3195  0.1482 -0.1660
  583loPI   C2A 9320   8.664  16.781   9.354  0.1371 -0.0562  0.1168
  583loPI   C3A 9321   8.642  16.682   8.846  0.2612 -0.0345  0.2536
  583loPI   C4A 9322   8.573  16.637   8.490  0.0827 -0.0907  0.0963
  583loPI   C5A 9323   8.343  16.624   8.008 -0.1195  0.1893  0.1123
  583loPI   C6A 9324   8.209  16.932   7.683  0.0208 -0.0608  0.2129
  583loPI   C1B 9325   9.140  16.893  10.003  0.0547 -0.1165 -0.0174
  583loPI   C2B 9326   9.174  16.931   9.674  0.1238  0.1352 -0.1359
  583loPI   C3B 9327   9.198  16.951   9.241  0.2072  0.0699 -0.0269
  583loPI   C4B 9328   9.140  16.931   8.842 -0.0847  0.3526  0.1360
  584loPI    C1 9329  14.875   5.522  10.713 -0.0453 -0.0340 -0.0462
  584loPI    C2 9330  14.912   5.359  10.350 -0.0767 -0.1534  0.0037
  584loPI    C3 9331  14.675   5.676  10.404 -0.0331 -0.1046 -0.0897
  584loPI   PO4 9332  15.103   5.604  10.791 -0.2030  0.2220  0.0441
  584loPI   GL1 9333  15.299   5.691  10.442 -0.2329  0.0672  0.0850
  584loPI   GL2 9334  15.507   5.893  10.321 -0.1257 -0.1037  0.3448
  584loPI   C1A 9335  15.353   5.548  10.042 -0.2030  0.3204 -0.0208
  584loPI   C2A 9336  15.388   5.485   9.678  0.4759 -0.2501 -0.1284
  584loPI   C3A 9337  15.362   5.565   9.243  0.0227  0.1755  0.0536
  584loPI   C4A 9338  15.370   5.523   8.734  0.1655 -0.2220  0.0655
  584loPI   C5A 9339  15.311   5.513   8.317  0.0151  0.1076 -0.1074
  584loPI   C6A 9340  15.393   5.429   7.845  0.2799 -0.2178  0.0811
  584loPI   C1B 9341  15.447   6.004   9.930 -0.1859 -0.1905  0.0893
  584loPI   C2B 9342  15.492   6.105   9.552 -0.0970 -0.1846 -0.0479
  584loPI   C3B 9343  15.485   6.077   9.063 -0.2179  0.0115  0.0547
  584loPI   C4B 9344  15.595   6.076   8.580 -0.1026 -0.0138  0.1830
  585loPI    C1 9345   8.208  12.706  10.864  0.3598  0.0285  0.2215
  585loPI    C2 9346   7.987  12.726  11.197  0.1266 -0.1520  0.0808
  585loPI    C3 9347   8.376  12.636  11.220  0.1257 -0.1057  0.3081
  585loPI   PO4 9348   8.100  12.838  10.710  0.0485  0.0458 -0.0650
  585loPI   GL1 9349   7.801  12.749  10.458 -0.1109 -0.1761 -0.1261
  585loPI   GL2 9350   7.935  13.049  10.285  0.0575  0.1120  0.2338
  585loPI   C1A 9351   7.584  12.741  10.076  0.2313 -0.0065 -0.0953
  585loPI   C2A 9352   7.658  12.620   9.722 -0.0238 -0.4834 -0.3692
  585loPI   C3A 9353   7.624  12.670   9.355 -0.1867 -0.2296  0.2127
  585loPI   C4A 9354   7.654  12.652   8.954  0.0363  0.0344  0.3047
  585loPI   C5A 9355   7.626  12.706   8.549  0.0470 -0.1787  0.2913
  585loPI   C6A 9356   7.667  12.289   8.275  0.0396  0.4411  0.0551
  585loPI   C1B 9357   7.812  13.196   9.992  0.0035  0.0897 -0.2601
  585loPI   C2B 9358   7.790  13.152   9.631 -0.2552  0.0228  0.2182
  585loPI   C3B 9359   7.697  13.191   9.220  0.1222  0.3632  0.3431
  585loPI   C4B 9360   7.698  13.137   8.781  0.4217  0.1180  0.0553
  586loPI    C1 9361  14.042  16.104  10.647 -0.2522  0.2742 -0.0287
  586loPI    C2 9362  13.915  16.105  11.026  0.1079 -0.0300  0.0997
  586loPI    C3 9363  14.096  16.428  10.875  0.1999 -0.0000  0.2716
  586loPI   PO4 9364  14.156  15.885  10.545 -0.1640 -0.2156 -0.0390
  586loPI   GL1 9365  14.274  15.964  10.140  0.0013  0.0412  0.2454
  586loPI   GL2 9366  14.306  15.768  10.097  0.0545  0.1793 -0.1001
  586loPI   C1A 9367  14.197  16.128   9.672 -0.0989 -0.0717 -0.2875
  586loPI   C2A 9368  14.136  16.132   9.162  0.1530  0.0409 -0.0044
  586loPI   C3A 9369  14.072  16.152   8.739  0.0048  0.2284  0.2630
  586loPI   C4A 9370  14.101  16.047   8.274  0.4270 -0.3097  0.3238
  586loPI   C5A 9371  13.712  15.812   8.045 -0.0014 -0.0727 -0.1950
  586loPI   C6A 9372  13.585  15.365   8.064 -0.0367  0.1415 -0.1922
  586loPI   C1B 9373  14.544  15.718   9.737 -0.3255 -0.2455  0.3489
  586loPI   C2B 9374  14.539  15.679   9.369 -0.0560 -0.1829  0.2095
  586loPI   C3B 9375  14.503  15.717   8.995  0.1066 -0.5249 -0.0828
  586loPI   C4B 9376  14.462  15.781   8.514 -0.1505 -0.2440 -0.1003
  587loPI    C1 9377   0.596  10.813  10.584  0.0706  0.3098 -0.2025
  587loPI    C2 9378   0.788  10.752  10.239  0.1397 -0.1030 -0.0961
  587loPI    C3 9379   0.965  10.658  10.585  0.0030  0.1442  0.0436
  587loPI   PO4 9380   0.456  11.031  10.478 -0.3490 -0.2281 -0.2572
  587loPI   GL1 9381   0.338  11.068  10.145  0.1134 -0.0935 -0.1277
  587loPI   GL2 9382  -0.022  11.071  10.115  0.2279  0.0857 -0.0194
  587loPI   C1A 9383   0.368  11.315   9.728  0.0739  0.2851 -0.0252
  587loPI   C2A 9384   0.525  11.365   9.316 -0.1578 -0.1699  0.4365
  587loPI   C3A 9385   0.464  11.393   8.836 -0.1741 -0.0921 -0.0238
  587loPI   C4A 9386   0.516  11.415   8.429 -0.1071 -0.1264 -0.0657
  587loPI   C5A 9387   0.571  11.325   8.091 -0.2984 -0.5260 -0.4448
  587loPI   C6A 9388   0.906  11.202   7.823  0.2342  0.0900 -0.0421
  587loPI   C1B 9389  -0.096  11.197   9.718  0.0159 -0.1959 -0.3374
  587loPI   C2B 9390  -0.081  11.149   9.299 -0.2443 -0.0835  0.0465
  587loPI   C3B 9391  -0.059  11.245   8.827 -0.0500 -0.1463  0.1364
  587loPI   C4B 9392  -0.142  11.254   8.371  0.3613  0.1266 -0.1330
  588loPI    C1 9393  16.346  13.611  10.625  0.0531 -0.2715 -0.3819
  588loPI    C2 9394  16.573  13.352  10.828  0.0501 -0.0151 -0.0411
  588loPI    C3 9395  16.179  13.288  10.793  0.0504 -0.0603  0.0350
  588loPI   PO4 9396  16.552  13.726  10.496 -0.1501  0.1948 -0.1807
  588loPI   GL1 9397  16.728  13.666  10.121 -0.0674 -0.1339 -0.2373
  588loPI   GL2 9398  16.935  13.637  10.018 -0.1101  0.0738 -0.2912
  588loPI   C1A 9399  16.602  13.937   9.853  0.5624  0.4398  0.0598
  588loPI   C2A 9400  16.457  13.941   9.465  0.1550 -0.1033 -0.0553
  588loPI   C3A 9401  16.479  14.004   9.062  0.2149  0.1721  0.1538
  588loPI   C4A 9402  16.486  14.066   8.640  0.0419 -0.0984 -0.0396
  588loPI   C5A 9403  16.535  14.139   8.291 -0.1460  0.0448 -0.1386
  588loPI   C6A 9404  16.464  13.996   7.881 -0.3271  0.1396 -0.1873
  588loPI   C1B 9405  16.901  13.642   9.557 -0.3446  0.1623 -0.1081
  588loPI   C2B 9406  16.943  13.700   9.123 -0.0393 -0.2375  0.0247
  588loPI   C3B 9407  16.841  13.765   8.745  0.1406 -0.0963 -0.3124
  588loPI   C4B 9408  16.839  13.664   8.355  0.0985 -0.1320 -0.0836
  589loPI    C1 9409   8.398   1.407  10.912 -0.2643 -0.0393  0.1117
  589loPI    C2 9410   8.121   1.222  11.133 -0.0531 -0.2622  0.1954
  589loPI    C3 9411   8.457   1.355  11.304 -0.0645 -0.0780  0.0778
  589loPI   PO4 9412   8.379   1.191  10.670  0.1161 -0.3449  0.0611
  589loPI   GL1 9413   8.438   0.864  10.272 -0.1093 -0.1588 -0.1469
  589loPI   GL2 9414   8.663   0.589  10.279 -0.1990  0.1028 -0.2111
  589loPI   C1A 9415   8.283   0.788   9.798  0.0083 -0.2444 -0.0296
  589loPI   C2A 9416   8.285   0.820   9.360 -0.0264 -0.0681  0.1608
  589loPI   C3A 9417   8.202   0.673   8.959 -0.1479  0.3044 -0.0890
  589loPI   C4A 9418   8.264   0.630   8.508 -0.0545 -0.0487  0.0832
  589loPI   C5A 9419   8.335   0.366   8.215 -0.3059  0.2879 -0.3498
  589loPI   C6A 9420   8.219   0.078   7.800  0.3127 -0.1488  0.0757
  589loPI   C1B 9421   8.720   0.394   9.997 -0.2136  0.4050  0.0935
  589loPI   C2B 9422   8.601   0.358   9.458 -0.0131 -0.0806  0.1171
  589loPI   C3B 9423   8.607   0.403   9.016  0.0408  0.0837 -0.4229
  589loPI   C4B 9424   8.598   0.328   8.636 -0.0458  0.3402  0.7032
  590loPI    C1 9425   6.829   4.821  11.053  0.0417 -0.2288 -0.0034
  590loPI    C2 9426   6.625   5.044  11.315 -0.1255 -0.1769 -0.1762
  590loPI    C3 9427   6.989   4.908  11.410 -0.0086  0.1914 -0.0789
  590loPI   PO4 9428   6.724   4.884  10.826 -0.0209  0.1224  0.1352
  590loPI   GL1 9429   6.751   4.985  10.514  0.1825  0.1808 -0.0202
  590loPI   GL2 9430   6.976   5.129  10.412 -0.0682 -0.0775  0.2477
  590loPI   C1A 9431   6.533   5.036  10.107 -0.1655 -0.4593  0.2195
  590loPI   C2A 9432   6.408   5.035   9.700  0.1684 -0.0872  0.0709
  590loPI   C3A 9433   6.338   5.025   9.253  0.1875 -0.3299 -0.0879
  590loPI   C4A 9434   6.341   5.029   8.828  0.0552  0.0609 -0.1077
  590loPI   C5A 9435   6.300   5.198   8.408 -0.2722  0.1829 -0.1656
  590loPI   C6A 9436   6.581   5.189   8.074 -0.2393  0.1184  0.0166
  590loPI   C1B 9437   6.961   5.323  10.085 -0.0800  0.3632  0.1019
  590loPI   C2B 9438   6.965   5.282   9.677  0.0524  0.1066  0.1027
  590loPI   C3B 9439   6.837   5.219   9.246  0.0335  0.3359  0.0807
  590loPI   C4B 9440   6.829   5.275   8.865 -0.3610 -0.0504 -0.1877
  591loPI    C1 9441   7.549   5.395  10.613 -0.0699 -0.2545  0.2574
  591loPI    C2 9442   7.899   5.331  10.430 -0.2872 -0.1454 -0.2113
  591loPI    C3 9443   7.879   5.326  10.829  0.2878  0.0569 -0.1702
  591loPI   PO4 9444   7.450   5.222  10.545  0.1672 -0.3928  0.2592
  591loPI   GL1 9445   7.544   5.046  10.180 -0.0202  0.1641 -0.0823
  591loPI   GL2 9446   7.356   4.994  10.031  0.2159  0.2781  0.2782
  591loPI   C1A 9447   7.701   4.642   9.873 -0.0199  0.1479 -0.3426
  591loPI   C2A 9448   7.751   4.679   9.422 -0.3877 -0.0332  0.1926
  591loPI   C3A 9449   7.553   4.590   9.057 -0.3031 -0.4995  0.0045
  591loPI   C4A 9450   7.543   4.217   8.822  0.0062 -0.1187 -0.1101
  591loPI   C5A 9451   7.458   3.946   8.509 -0.2337  0.0626 -0.0705
  591loPI   C6A 9452   7.407   3.853   8.192  0.3645  0.0779  0.0450
  591loPI   C1B 9453   7.380   4.965   9.627  0.3075  0.0080 -0.0425
  591loPI   C2B 9454   7.186   4.898   9.210  0.0689 -0.0942  0.0233
  591loPI   C3B 9455   7.144   4.903   8.810 -0.1780  0.1356  0.2263
  591loPI   C4B 9456   6.970   5.063   8.407 -0.0196 -0.0162 -0.0361
  592loPI    C1 9457  12.163  15.497  10.970 -0.0462  0.0507 -0.0769
  592loPI    C2 9458  11.896  15.476  11.267 -0.2105  0.0047 -0.2257
  592loPI    C3 9459  12.182  15.755  11.274 -0.0102 -0.2026  0.1397
  592loPI   PO4 9460  12.095  15.497  10.814  0.0833  0.1397 -0.0749
  592loPI   GL1 9461  12.201  15.657  10.477  0.1937 -0.2685  0.1417
  592loPI   GL2 9462  12.122  15.990  10.384  0.2517  0.2577  0.0129
  592loPI   C1A 9463  12.118  15.491  10.072  0.2562  0.0867  0.3431
  592loPI   C2A 9464  12.168  15.446   9.551 -0.0665  0.3839 -0.2806
  592loPI   C3A 9465  12.135  15.428   9.084  0.2236  0.1430  0.3070
  592loPI   C4A 9466  12.065  15.554   8.856  0.0783  0.4411  0.1322
  592loPI   C5A 9467  12.024  15.483   8.371 -0.1875 -0.3511 -0.2995
  592loPI   C6A 9468  11.826  15.168   8.186 -0.2441 -0.1656 -0.0319
  592loPI   C1B 9469  12.201  15.975   9.955  0.0639 -0.1572 -0.0269
  592loPI   C2B 9470  12.248  15.923   9.567 -0.1868 -0.1715  0.0870
  592loPI   C3B 9471  12.261  15.913   9.122  0.4936  0.3121 -0.1412
  592loPI   C4B 9472  12.146  15.982   8.674 -0.0314 -0.2807  0.0178
  593loPI    C1 9473   8.471  13.785  11.191 -0.0888 -0.1658  0.1195
  593loPI    C2 9474   8.111  13.627  11.266 -0.1302 -0.0334  0.2022
  593loPI    C3 9475   8.181  14.013  11.346 -0.0640  0.0200 -0.1033
  593loPI   PO4 9476   8.531  13.603  10.965  0.0047  0.0001  0.0564
  593loPI   GL1 9477   8.623  13.607  10.508 -0.1048  0.1535  0.0840
  593loPI   GL2 9478   8.384  13.785  10.293 -0.1133  0.0916 -0.1419
  593loPI   C1A 9479   8.793  13.477  10.134  0.1080  0.1098  0.1763
  593loPI   C2A 9480   8.852  13.528   9.741  0.0512 -0.0528 -0.0252
  593loPI   C3A 9481   8.794  13.514   9.312  0.1973 -0.0195  0.1669
  593loPI   C4A 9482   8.856  13.542   8.923  0.0318  0.0583  0.1269
  593loPI   C5A 9483   8.908  13.805   8.617  0.0569  0.0300  0.0744
  593loPI   C6A 9484   8.938  14.202   8.380 -0.1693  0.1202 -0.0884
  593loPI   C1B 9485   8.476  13.807   9.861 -0.0598  0.1801  0.1523
  593loPI   C2B 9486   8.419  13.774   9.465  0.0284 -0.0407  0.2136
  593loPI   C3B 9487   8.438  13.883   8.980 -0.0786 -0.1935 -0.0377
  593loPI   C4B 9488   8.465  14.018   8.483  0.0277  0.2509 -0.0115
  594loPI    C1 9489  10.689   3.927  10.091  0.2297  0.2229 -0.1029
  594loPI    C2 9490  10.593   4.208  10.359  0.0089  0.0560 -0.0039
  594loPI    C3 9491  10.390   3.863  10.349  0.1750 -0.0378 -0.2272
  594loPI   PO4 9492  10.697   3.981   9.814  0.1054 -0.0280 -0.0069
  594loPI   GL1 9493  10.625   4.313   9.538 -0.1655 -0.0246  0.3127
  594loPI   GL2 9494  10.326   4.365   9.459  0.0770  0.0614 -0.0406
  594loPI   C1A 9495  10.761   4.487   9.270 -0.2012 -0.3001  0.2145
  594loPI   C2A 9496  10.852   4.651   8.864 -0.3029  0.2089 -0.2039
  594loPI   C3A 9497  10.848   4.614   8.435 -0.1073 -0.0468 -0.1959
  594loPI   C4A 9498  10.765   4.791   7.999  0.0984  0.2503 -0.3428
  594loPI   C5A 9499  10.658   5.051   7.653 -0.1255 -0.1195  0.3666
  594loPI   C6A 9500  10.703   4.889   7.174 -0.1906 -0.1176 -0.2011
  594loPI   C1B 9501  10.375   4.443   8.939 -0.0033 -0.2091  0.0401
  594loPI   C2B 9502  10.196   4.459   8.522  0.0987  0.0149  0.2338
  594loPI   C3B 9503  10.494   4.397   8.191  0.0574 -0.0245 -0.2539
  594loPI   C4B 9504  10.635   4.181   7.816 -0.1085  0.1017 -0.0888
  595loPI    C1 9505  15.416  15.824  11.108 -0.2671  0.2774 -0.0631
  595loPI    C2 9506  15.109  15.673  11.316 -0.0479  0.1007  0.1385
  595loPI    C3 9507  15.304  15.996  11.451 -0.0690  0.1414  0.0723
  595loPI   PO4 9508  15.341  15.869  10.775 -0.2094  0.1879  0.6217
  595loPI   GL1 9509  15.326  16.040  10.282 -0.1165  0.2096 -0.2996
  595loPI   GL2 9510  15.133  16.198  10.126  0.3009  0.1663  0.0399
  595loPI   C1A 9511  15.443  16.015   9.779  0.3014 -0.0841  0.0829
  595loPI   C2A 9512  15.459  15.980   9.276 -0.1740 -0.1886 -0.0194
  595loPI   C3A 9513  15.432  16.096   8.855  0.0104  0.1264 -0.0593
  595loPI   C4A 9514  15.402  16.191   8.359  0.3796 -0.0689 -0.2036
  595loPI   C5A 9515  15.233  16.342   8.036 -0.3316 -0.1664 -0.0212
  595loPI   C6A 9516  15.136  16.626   7.714 -0.1093  0.1953 -0.2403
  595loPI   C1B 9517  15.212  16.414   9.714  0.0214 -0.0902 -0.1431
  595loPI   C2B 9518  15.127  16.328   9.203  0.4943 -0.0024 -0.0415
  595loPI   C3B 9519  15.135  16.500   8.787  0.1821  0.0842 -0.0072
  595loPI   C4B 9520  14.952  16.468   8.412 -0.3053  0.1948 -0.1246
  596loPI    C1 9521  13.054  17.756  11.087 -0.1458 -0.0539 -0.0551
  596loPI    C2 9522  13.357  17.884  11.315 -0.1646  0.0939 -0.1121
  596loPI    C3 9523  12.982  17.904  11.452 -0.1525 -0.0580 -0.0548
  596loPI   PO4 9524  13.117  17.748  10.786  0.3625  0.0043  0.2175
  596loPI   GL1 9525  13.036  17.574  10.417  0.3716 -0.3082  0.0000
  596loPI   GL2 9526  12.865  17.309  10.370 -0.0820  0.2030  0.0907
  596loPI   C1A 9527  13.148  17.679   9.998 -0.2545 -0.0320 -0.1467
  596loPI   C2A 9528  13.091  17.615   9.531  0.0037 -0.1732 -0.3214
  596loPI   C3A 9529  13.103  17.584   9.163  0.1311 -0.0417 -0.3474
  596loPI   C4A 9530  13.037  17.618   8.672  0.1851 -0.1952 -0.0130
  596loPI   C5A 9531  13.139  17.698   8.171  0.4733  0.3318 -0.1717
  596loPI   C6A 9532  12.773  17.538   7.899  0.1415  0.1327 -0.0992
  596loPI   C1B 9533  13.041  17.153   9.919  0.3291 -0.1362  0.1840
  596loPI   C2B 9534  13.022  17.105   9.582 -0.1075 -0.1847  0.0609
  596loPI   C3B 9535  12.954  17.067   9.265  0.2162  0.5061  0.0879
  596loPI   C4B 9536  12.863  17.099   8.877  0.2399  0.4190  0.0204
  597loPI    C1 9537  16.258  11.563  10.744 -0.1341 -0.3340 -0.0357
  597loPI    C2 9538  16.549  11.384  10.953  0.1703 -0.0794 -0.2330
  597loPI    C3 9539  16.468  11.771  11.013 -0.1794 -0.1643 -0.1307
  597loPI   PO4 9540  16.330  11.321  10.464  0.2297  0.0043 -0.1794
  597loPI   GL1 9541  16.635  11.130  10.145 -0.4286  0.0052  0.0609
  597loPI   GL2 9542  16.580  10.794  10.151  0.0652  0.0412 -0.0623
  597loPI   C1A 9543  16.809  11.177   9.658 -0.2349 -0.0047 -0.1211
  597loPI   C2A 9544  16.822  11.120   9.249 -0.3358 -0.3411  0.0306
  597loPI   C3A 9545  16.827  11.241   8.825  0.0253  0.0311  0.0259
  597loPI   C4A 9546  16.809  11.265   8.442  0.0716  0.0308 -0.1084
  597loPI   C5A 9547  16.475  11.329   8.214 -0.0113  0.1743 -0.1309
  597loPI   C6A 9548  16.090  11.480   8.050 -0.1909  0.0215  0.0189
  597loPI   C1B 9549  16.597  10.734   9.729 -0.0066 -0.0868  0.0475
  597loPI   C2B 9550  16.588  10.703   9.295  0.1437  0.0079  0.1079
  597loPI   C3B 9551  16.757  10.728   8.849 -0.0804 -0.0954 -0.2341
  597loPI   C4B 9552  16.573  10.839   8.499 -0.1052 -0.0239 -0.0485
  598loPI    C1 9553   9.758   9.696  10.968  0.2584 -0.2921 -0.1843
  598loPI    C2 9554  10.087   9.789  11.176  0.0177  0.0090  0.0712
  598loPI    C3 9555   9.725   9.855  11.333 -0.1688 -0.3712 -0.1833
  598loPI   PO4 9556   9.888   9.784  10.697  0.2396  0.1092  0.1991
  598loPI   GL1 9557   9.832   9.900  10.414 -0.1975 -0.2747 -0.0505
  598loPI   GL2 9558  10.182  10.116  10.284  0.3527  0.1025 -0.1340
  598loPI   C1A 9559   9.887   9.977   9.938  0.0503  0.1207 -0.0756
  598loPI   C2A 9560   9.865   9.961   9.500  0.0871  0.0783  0.0099
  598loPI   C3A 9561   9.939  10.010   9.046  0.0180 -0.0345  0.3468
  598loPI   C4A 9562  10.159  10.071   8.614 -0.1860 -0.0505  0.0303
  598loPI   C5A 9563  10.329  10.130   8.199 -0.2070  0.0279 -0.3710
  598loPI   C6A 9564  10.668   9.895   8.100 -0.0124  0.2996 -0.0734
  598loPI   C1B 9565  10.329  10.257  10.028  0.1181  0.1032  0.2702
  598loPI   C2B 9566  10.395  10.128   9.650  0.0098  0.0765 -0.0138
  598loPI   C3B 9567  10.405  10.176   9.259  0.0820  0.0082  0.2154
  598loPI   C4B 9568  10.568  10.209   8.842 -0.0491  0.1053  0.0538
  599loPI    C1 9569  17.665   2.456  10.880 -0.1831  0.0111  0.0752
  599loPI    C2 9570  17.543   2.148  10.655 -0.0150  0.0129 -0.0210
  599loPI    C3 9571  17.782   2.084  10.969 -0.0125  0.0414 -0.0171
  599loPI   PO4 9572  17.740   2.664  10.749 -0.0313 -0.1819  0.0419
  599loPI   GL1 9573  17.611   3.126  10.656 -0.0383 -0.3754 -0.0529
  599loPI   GL2 9574  18.046   3.088  10.605 -0.2940  0.0763 -0.2249
  599loPI   C1A 9575  17.599   3.330  10.276 -0.1561 -0.0566 -0.3647
  599loPI   C2A 9576  17.765   3.431   9.877  0.0752 -0.0710 -0.2297
  599loPI   C3A 9577  17.734   3.358   9.445 -0.0579 -0.1355 -0.1774
  599loPI   C4A 9578  17.856   3.436   8.920  0.1947 -0.0818 -0.2049
  599loPI   C5A 9579  17.988   3.294   8.538 -0.1868 -0.1552  0.2707
  599loPI   C6A 9580  18.035   3.551   8.226 -0.2089  0.2380  0.2147
  599loPI   C1B 9581  17.931   2.993  10.140 -0.0959 -0.1193 -0.2663
  599loPI   C2B 9582  18.170   3.043   9.782  0.0018 -0.0827  0.1454
  599loPI   C3B 9583  18.227   3.068   9.448 -0.3578 -0.2121  0.1208
  599loPI   C4B 9584  18.172   2.984   8.950 -0.0232 -0.1521  0.1585
  600loPI    C1 9585  18.180   6.627  11.439 -0.1263 -0.0131  0.1452
  600loPI    C2 9586  17.831   6.683  11.251 -0.0733 -0.3594 -0.0666
  600loPI    C3 9587  17.860   6.751  11.644 -0.2688  0.0684 -0.1205
  600loPI   PO4 9588  18.390   6.693  11.209  0.2991 -0.0217  0.1118
  600loPI   GL1 9589  18.588   6.561  10.858 -0.4473 -0.0500  0.1360
  600loPI   GL2 9590  18.832   6.540  10.609 -0.2640  0.0794  0.3559
  600loPI   C1A 9591  18.347   6.613  10.440 -0.1131  0.3275 -0.0932
  600loPI   C2A 9592  18.450   6.426  10.046  0.1915  0.3585 -0.2768
  600loPI   C3A 9593  18.485   6.395   9.546  0.2331  0.1925  0.0612
  600loPI   C4A 9594  18.376   6.374   9.150  0.0722  0.1117 -0.2233
  600loPI   C5A 9595  18.449   6.557   8.759  0.0531  0.1094 -0.2095
  600loPI   C6A 9596  18.547   6.447   8.371 -0.1433  0.3418 -0.0740
  600loPI   C1B 9597  18.909   6.540  10.160 -0.0516 -0.0124 -0.1413
  600loPI   C2B 9598  18.991   6.614   9.748  0.0808 -0.2300  0.1064
  600loPI   C3B 9599  18.890   6.565   9.366  0.3047  0.2310  0.0451
  600loPI   C4B 9600  18.911   6.686   8.828 -0.2849 -0.0965  0.0952
  601loPI    C1 9601   4.234  13.828  11.057  0.1018 -0.2838  0.0818
  601loPI    C2 9602   3.911  13.629  10.931  0.0341 -0.3209  0.3097
  601loPI    C3 9603   3.898  13.834  11.274  0.1371 -0.0109  0.1321
  601loPI   PO4 9604   4.321  14.011  10.809 -0.1426  0.3597  0.0861
  601loPI   GL1 9605   4.256  13.810  10.467  0.2688 -0.1064 -0.0573
  601loPI   GL2 9606   4.042  13.543  10.430 -0.5648 -0.4509 -0.2388
  601loPI   C1A 9607   4.378  14.047  10.114 -0.0519 -0.0018 -0.0211
  601loPI   C2A 9608   4.253  13.969   9.735  0.1754  0.1000  0.1081
  601loPI   C3A 9609   4.299  13.976   9.341 -0.0019  0.3896 -0.3383
  601loPI   C4A 9610   4.199  13.994   8.924 -0.2634 -0.0457  0.1241
  601loPI   C5A 9611   4.024  13.940   8.497 -0.0148 -0.2335 -0.3098
  601loPI   C6A 9612   4.107  13.925   8.095  0.0773 -0.0108  0.1070
  601loPI   C1B 9613   4.194  13.436   9.969  0.0588 -0.1380  0.1280
  601loPI   C2B 9614   4.198  13.469   9.535  0.0751 -0.0102 -0.0033
  601loPI   C3B 9615   4.118  13.452   9.086 -0.1441  0.0384 -0.3349
  601loPI   C4B 9616   4.005  13.456   8.588 -0.1556  0.2244  0.1208
  602loPI    C1 9617  12.298  10.952  10.903  0.3334 -0.0540  0.0597
  602loPI    C2 9618  11.958  10.765  10.999  0.2100  0.1994  0.1248
  602loPI    C3 9619  12.299  10.667  11.184  0.1771 -0.0650  0.0501
  602loPI   PO4 9620  12.251  11.044  10.654 -0.1623  0.0153  0.2087
  602loPI   GL1 9621  12.121  11.178  10.227  0.2558 -0.1530  0.2270
  602loPI   GL2 9622  11.855  11.373  10.340  0.2108 -0.1827  0.0512
  602loPI   C1A 9623  11.997  11.183   9.762 -0.0764 -0.2294 -0.1745
  602loPI   C2A 9624  11.987  11.234   9.352 -0.0134  0.0961 -0.0569
  602loPI   C3A 9625  12.154  11.117   9.007 -0.1668 -0.0575  0.1916
  602loPI   C4A 9626  12.135  11.144   8.599  0.1114  0.2350  0.3153
  602loPI   C5A 9627  12.276  10.891   8.262  0.0376  0.1520  0.2709
  602loPI   C6A 9628  12.459  10.880   7.926 -0.1505  0.3726  0.0095
  602loPI   C1B 9629  11.600  11.500   9.939 -0.0928  0.3473 -0.0658
  602loPI   C2B 9630  11.649  11.566   9.458  0.2172 -0.0888 -0.2964
  602loPI   C3B 9631  11.643  11.499   9.074  0.1970  0.0929 -0.1818
  602loPI   C4B 9632  11.833  11.510   8.702 -0.0760 -0.1104 -0.0464
  603loPI    C1 9633   6.977  16.645  11.366  0.1035  0.2461 -0.1114
  603loPI    C2 9634   6.810  16.800  11.695 -0.0461 -0.3116  0.0867
  603loPI    C3 9635   7.165  16.616  11.719  0.0471 -0.1608 -0.1096
  603loPI   PO4 9636   6.944  16.860  11.112 -0.2050 -0.1015 -0.2320
  603loPI   GL1 9637   7.167  16.833  10.607 -0.0645 -0.2499 -0.1749
  603loPI   GL2 9638   6.965  16.655  10.529 -0.2014 -0.0592  0.0459
  603loPI   C1A 9639   7.290  16.829  10.193 -0.0438  0.0246  0.3927
  603loPI   C2A 9640   7.237  16.760   9.760 -0.0342  0.1914  0.0998
  603loPI   C3A 9641   7.215  16.830   9.325 -0.0240 -0.0016  0.0614
  603loPI   C4A 9642   7.169  16.791   8.890  0.1721 -0.2255  0.1645
  603loPI   C5A 9643   7.074  16.485   8.625  0.2242 -0.0456 -0.0828
  603loPI   C6A 9644   6.846  16.345   8.374  0.2032 -0.0837 -0.0112
  603loPI   C1B 9645   6.840  16.555  10.207  0.1956 -0.1885 -0.1566
  603loPI   C2B 9646   6.722  16.638   9.758 -0.0802 -0.0067  0.0209
  603loPI   C3B 9647   6.756  16.668   9.338 -0.5307  0.2199 -0.1013
  603loPI   C4B 9648   6.693  16.664   8.871 -0.1233  0.0653  0.1235
  604loPI    C1 9649  13.358   5.973  10.583 -0.0118 -0.1883  0.1510
  604loPI    C2 9650  13.235   6.188  10.898  0.1810 -0.1251  0.1842
  604loPI    C3 9651  13.052   5.844  10.807 -0.2175  0.1150  0.0518
  604loPI   PO4 9652  13.377   6.189  10.354 -0.0587  0.1590  0.1622
  604loPI   GL1 9653  13.611   6.128   9.915 -0.1743  0.0923  0.1560
  604loPI   GL2 9654  13.365   6.337   9.858 -0.0794  0.0665 -0.1477
  604loPI   C1A 9655  13.601   5.999   9.473 -0.2206  0.0737  0.2953
  604loPI   C2A 9656  13.687   6.009   8.938 -0.0050 -0.1300 -0.0577
  604loPI   C3A 9657  13.577   5.932   8.484  0.2492  0.0883  0.1647
  604loPI   C4A 9658  13.523   5.723   8.064 -0.0963  0.0481 -0.0585
  604loPI   C5A 9659  13.596   5.419   7.806  0.0087  0.0349 -0.2985
  604loPI   C6A 9660  13.454   5.045   7.531  0.0570 -0.1918  0.2173
  604loPI   C1B 9661  13.216   6.294   9.500 -0.1625 -0.1280  0.0531
  604loPI   C2B 9662  13.275   6.234   9.002  0.1166 -0.0739 -0.1164
  604loPI   C3B 9663  13.249   6.279   8.585  0.2890  0.0924  0.0777
  604loPI   C4B 9664  13.122   6.191   8.251 -0.3372 -0.0935  0.3201
  605loPI    C1 9665  15.552  16.339  10.610 -0.1691 -0.0580  0.0286
  605loPI    C2 9666  15.385  16.587  10.344  0.0005  0.1001  0.0678
  605loPI    C3 9667  15.199  16.511  10.689 -0.3021 -0.2382 -0.1629
  605loPI   PO4 9668  15.873  16.351  10.520  0.0096  0.1877 -0.1136
  605loPI   GL1 9669  16.164  16.146  10.221 -0.0920  0.0227 -0.0693
  605loPI   GL2 9670  16.436  16.249  10.261 -0.0637 -0.0707 -0.1969
  605loPI   C1A 9671  16.337  15.858   9.862  0.1215 -0.1461  0.0499
  605loPI   C2A 9672  16.447  15.996   9.420  0.2482  0.1174 -0.1158
  605loPI   C3A 9673  16.298  15.912   8.976 -0.0708 -0.0990 -0.3551
  605loPI   C4A 9674  16.252  15.908   8.456  0.0969 -0.0881 -0.1529
  605loPI   C5A 9675  16.193  16.209   8.057 -0.0825  0.0375 -0.0839
  605loPI   C6A 9676  16.342  16.073   7.656 -0.1866 -0.0582  0.0421
  605loPI   C1B 9677  16.381  16.395   9.770  0.2759  0.2555  0.1815
  605loPI   C2B 9678  16.490  16.468   9.322 -0.1363  0.1946 -0.0721
  605loPI   C3B 9679  16.412  16.376   8.860  0.1799 -0.0372 -0.0548
  605loPI   C4B 9680  16.426  16.360   8.461  0.3977 -0.1192  0.2026
  606loPI    C1 9681  13.887   7.416  10.473  0.1771 -0.1346  0.0866
  606loPI    C2 9682  13.758   7.575  10.817  0.2141 -0.0891  0.0797
  606loPI    C3 9683  13.703   7.186  10.743  0.1715 -0.0908  0.1203
  606loPI   PO4 9684  13.859   7.529  10.337  0.1962  0.0312  0.1377
  606loPI   GL1 9685  13.715   7.428   9.929 -0.1454 -0.0236  0.0029
  606loPI   GL2 9686  13.451   7.350   9.965  0.0156 -0.2165  0.2813
  606loPI   C1A 9687  13.908   7.046   9.724  0.0295 -0.0989 -0.3113
  606loPI   C2A 9688  13.922   6.908   9.349 -0.4670  0.2998  0.2268
  606loPI   C3A 9689  13.896   6.919   8.871  0.0391  0.2954 -0.0524
  606loPI   C4A 9690  13.873   6.891   8.366 -0.0038  0.2172 -0.1847
  606loPI   C5A 9691  13.919   7.012   7.979  0.1269 -0.1817 -0.0946
  606loPI   C6A 9692  13.644   7.358   7.749 -0.0162 -0.0681  0.2634
  606loPI   C1B 9693  13.417   7.255   9.559  0.1858 -0.3477 -0.0209
  606loPI   C2B 9694  13.478   7.271   9.129  0.1312 -0.0910 -0.1303
  606loPI   C3B 9695  13.462   7.240   8.725 -0.1296 -0.4007 -0.1100
  606loPI   C4B 9696  13.505   7.258   8.238 -0.2137 -0.1572  0.0763
  607loPI    C1 9697  17.461   5.615  11.042  0.2585  0.2305 -0.0768
  607loPI    C2 9698  17.472   5.940  11.276  0.3121  0.1952 -0.0301
  607loPI    C3 9699  17.234   5.632  11.371  0.1159  0.2990 -0.1777
  607loPI   PO4 9700  17.675   5.607  10.889 -0.2336  0.1007 -0.0359
  607loPI   GL1 9701  17.776   5.539  10.592 -0.0924 -0.1876  0.3014
  607loPI   GL2 9702  17.701   5.757  10.440  0.2059  0.3136  0.1051
  607loPI   C1A 9703  17.615   5.354  10.164  0.0501  0.0878  0.0492
  607loPI   C2A 9704  17.743   5.311   9.760 -0.2729  0.3052  0.2143
  607loPI   C3A 9705  17.633   5.343   9.344 -0.1018  0.1434 -0.0258
  607loPI   C4A 9706  17.756   5.206   8.961 -0.2565 -0.0791 -0.0184
  607loPI   C5A 9707  17.796   4.998   8.522 -0.0045 -0.1123  0.2708
  607loPI   C6A 9708  18.104   4.777   8.303  0.0661  0.0031 -0.0800
  607loPI   C1B 9709  17.731   5.823   9.986 -0.1556  0.0825 -0.2051
  607loPI   C2B 9710  17.819   5.808   9.541 -0.0314  0.1213  0.3290
  607loPI   C3B 9711  17.765   5.804   9.091 -0.1644 -0.1900  0.0290
  607loPI   C4B 9712  17.905   5.756   8.635  0.2545 -0.1322 -0.2806
  608loPI    C1 9713  15.997   6.850  10.980 -0.1051  0.0283 -0.0331
  608loPI    C2 9714  16.021   6.677  11.339  0.0353 -0.0431 -0.0761
  608loPI    C3 9715  15.949   7.069  11.310 -0.0224 -0.0456  0.0285
  608loPI   PO4 9716  16.190   6.796  10.849 -0.0064 -0.1942  0.0691
  608loPI   GL1 9717  16.418   6.866  10.367  0.2217 -0.3433  0.0323
  608loPI   GL2 9718  16.119   6.524  10.340  0.0353 -0.1517  0.0011
  608loPI   C1A 9719  16.610   6.769  10.032  0.1434  0.2833  0.2145
  608loPI   C2A 9720  16.633   6.723   9.575  0.2348 -0.2804 -0.2118
  608loPI   C3A 9721  16.753   6.856   9.162 -0.3926 -0.0905 -0.2305
  608loPI   C4A 9722  16.731   6.942   8.843  0.2822  0.1576  0.1646
  608loPI   C5A 9723  16.768   6.928   8.511 -0.0068 -0.0002  0.0241
  608loPI   C6A 9724  16.716   6.685   8.065 -0.1675  0.1379 -0.1806
  608loPI   C1B 9725  16.139   6.687   9.931  0.1394  0.1130  0.0792
  608loPI   C2B 9726  16.143   6.666   9.495 -0.0443 -0.1588 -0.2957
  608loPI   C3B 9727  16.270   6.673   8.997  0.0654 -0.0213  0.0045
  608loPI   C4B 9728  16.348   6.739   8.523  0.0551  0.2278  0.0929
  609POPI    C1 9729  16.649  12.258  10.838  0.1593  0.2856 -0.1633
  609POPI    C2 9730  16.653  12.570  11.088  0.1525  0.2092 -0.0673
  609POPI    C3 9731  16.746  12.204  11.223 -0.0871  0.1266 -0.1213
  609POPI   PO4 9732  16.570  12.378  10.613 -0.3950  0.0619 -0.3570
  609POPI   GL1 9733  16.619  12.514  10.191 -0.2176 -0.0806  0.1456
  609POPI   GL2 9734  16.423  12.267  10.108  0.1727  0.2328  0.0638
  609POPI   C1A 9735  16.608  12.614   9.775  0.1787 -0.2183 -0.1616
  609POPI   D2A 9736  16.539  12.557   9.386  0.2332  0.0875 -0.0289
  609POPI   C3A 9737  16.495  12.688   8.926 -0.0791 -0.3318 -0.0568
  609POPI   C4A 9738  16.493  12.594   8.559 -0.2624 -0.1641  0.2370
  609POPI   C1B 9739  16.191  12.255   9.730  0.1518 -0.1389  0.1488
  609POPI   C2B 9740  16.039  12.463   9.334 -0.0463 -0.1854  0.2205
  609POPI   C3B 9741  16.037  12.472   8.805  0.0108 -0.1333 -0.0253
  609POPI   C4B 9742  16.034  12.439   8.362  0.0697 -0.0360 -0.0727
  610POPI    C1 9743  16.500   3.716  10.566 -0.0305 -0.1573  0.0450
  610POPI    C2 9744  16.426   3.817  10.946 -0.0750  0.1431 -0.0410
  610POPI    C3 9745  16.755   3.608  10.855 -0.0417  0.1075  0.1567
  610POPI   PO4 9746  16.290   3.564  10.507 -0.1788  0.0868  0.1642
  610POPI   GL1 9747  16.209   3.368  10.049 -0.1913  0.0803 -0.1439
  610POPI   GL2 9748  16.011   3.178  10.124 -0.2071  0.1123 -0.0072
  610POPI   C1A 9749  16.387   3.306   9.576  0.2652 -0.1496 -0.0630
  610POPI   D2A 9750  16.494   3.291   9.221 -0.1710  0.0666 -0.3275
  610POPI   C3A 9751  16.268   3.229   8.802 -0.4017  0.2207 -0.2494
  610POPI   C4A 9752  16.351   3.331   8.399  0.0068  0.3548 -0.1339
  610POPI   C1B 9753  15.888   3.299   9.665  0.2640 -0.3329 -0.0052
  610POPI   C2B 9754  15.808   3.191   9.342 -0.5072 -0.3795 -0.2041
  610POPI   C3B 9755  15.760   3.216   8.961 -0.0395 -0.0946  0.4315
  610POPI   C4B 9756  15.778   3.120   8.488 -0.5068  0.1053 -0.0045
  611POPI    C1 9757   9.715  17.320  10.970  0.0556  0.0957 -0.0566
  611POPI    C2 9758  10.041  17.537  11.055  0.1590 -0.0769 -0.0085
  611POPI    C3 9759  10.002  17.167  11.204 -0.2116  0.0625  0.2561
  611POPI   PO4 9760   9.814  17.336  10.587  0.1570 -0.0373  0.1820
  611POPI   GL1 9761   9.885  17.102  10.314 -0.1337 -0.0802 -0.4667
  611POPI   GL2 9762   9.856  16.816  10.240 -0.2269 -0.2223 -0.0157
  611POPI   C1A 9763   9.688  17.050   9.871  0.3149 -0.1471  0.0434
  611POPI   D2A 9764   9.609  17.138   9.436  0.0846 -0.0161  0.2648
  611POPI   C3A 9765   9.677  17.020   9.021 -0.2313  0.0397 -0.3041
  611POPI   C4A 9766   9.537  17.093   8.568 -0.3008  0.0392 -0.2230
  611POPI   C1B 9767   9.994  16.649   9.907 -0.2128 -0.0905 -0.3545
  611POPI   C2B 9768  10.059  16.705   9.505 -0.0152 -0.0117  0.1956
  611POPI   C3B 9769  10.042  16.666   9.077  0.1692  0.0539  0.0268
  611POPI   C4B 9770   9.880  16.725   8.645  0.0102  0.0805  0.4064
  612POPI    C1 9771   0.519   8.526  10.871 -0.0040 -0.1092 -0.1584
  612POPI    C2 9772   0.670   8.743  11.170 -0.0727  0.0416 -0.2317
  612POPI    C3 9773   0.356   8.504  11.235  0.1906 -0.2713 -0.0794
  612POPI   PO4 9774   0.404   8.743  10.622 -0.2153  0.1781  0.0551
  612POPI   GL1 9775   0.495   8.838  10.262 -0.0404 -0.3375 -0.1518
  612POPI   GL2 9776   0.840   8.915  10.200 -0.1061 -0.0803 -0.1755
  612POPI   C1A 9777   0.402   8.746   9.764 -0.1460  0.0152 -0.0924
  612POPI   D2A 9778   0.315   8.799   9.273 -0.0391  0.1297 -0.0269
  612POPI   C3A 9779   0.450   9.043   9.025  0.2021 -0.0090 -0.5844
  612POPI   C4A 9780   0.439   9.120   8.670 -0.1923  0.0013 -0.0177
  612POPI   C1B 9781   0.848   8.988   9.771 -0.1048 -0.0784  0.1738
  612POPI   C2B 9782   0.832   8.984   9.380 -0.1489  0.1273  0.1379
  612POPI   C3B 9783   0.934   9.174   9.029  0.2012 -0.1753 -0.2663
  612POPI   C4B 9784   0.966   9.332   8.617  0.1540  0.0634 -0.2849
  613POPI    C1 9785  11.063   4.424   9.755 -0.1983  0.1198 -0.0726
  613POPI    C2 9786  11.071   4.327  10.143  0.1612  0.1984 -0.0565
  613POPI    C3 9787  10.755   4.520   9.992 -0.1883 -0.2363  0.0927
  613POPI   PO4 9788  11.343   4.527   9.766  0.1296 -0.1414 -0.1134
  613POPI   GL1 9789  11.464   4.650   9.513 -0.4706 -0.0585 -0.0608
  613POPI   GL2 9790  11.821   4.730   9.518 -0.0489 -0.1701  0.0171
  613POPI   C1A 9791  11.326   4.636   9.150  0.1784 -0.2630 -0.0788
  613POPI   D2A 9792  11.295   4.678   8.731 -0.0143 -0.2485  0.2929
  613POPI   C3A 9793  11.452   4.583   8.213  0.4054 -0.5269  0.0759
  613POPI   C4A 9794  11.430   4.419   7.895 -0.3769  0.3493 -0.1329
  613POPI   C1B 9795  11.873   4.748   9.107 -0.0670  0.0805  0.0063
  613POPI   C2B 9796  11.909   4.871   8.671 -0.1127  0.1674  0.2026
  613POPI   C3B 9797  11.892   4.913   8.196 -0.0011 -0.1734  0.3397
  613POPI   C4B 9798  11.678   4.823   7.773  0.0126 -0.0021  0.2289
  614POPI    C1 9799   2.624   1.967  11.094  0.1420 -0.0121  0.1487
  614POPI    C2 9800   2.370   1.719  10.910  0.3882 -0.0510 -0.1463
  614POPI    C3 9801   2.432   1.685  11.303  0.0136 -0.1031 -0.0881
  614POPI   PO4 9802   2.491   2.268  11.001 -0.0131 -0.1750  0.0181
  614POPI   GL1 9803   2.704   2.488  10.706  0.1945  0.1428  0.0072
  614POPI   GL2 9804   2.994   2.496  10.531 -0.0455  0.0870 -0.0857
  614POPI   C1A 9805   2.621   2.284  10.289  0.1270 -0.1100 -0.0473
  614POPI   D2A 9806   2.622   2.391   9.879  0.3189  0.0933  0.0599
  614POPI   C3A 9807   2.562   2.511   9.512  0.0275  0.1323 -0.3392
  614POPI   C4A 9808   2.617   2.351   9.094  0.2539 -0.2032 -0.1408
  614POPI   C1B 9809   3.053   2.534  10.034  0.1027 -0.1202 -0.1981
  614POPI   C2B 9810   3.049   2.553   9.640 -0.4444  0.0024  0.1219
  614POPI   C3B 9811   3.065   2.533   9.228 -0.3168 -0.2792 -0.0908
  614POPI   C4B 9812   2.989   2.621   8.807 -0.0009  0.1016  0.0468
  615POPI    C1 9813   5.045  16.220  11.157  0.0041 -0.1252  0.0001
  615POPI    C2 9814   5.080  16.507  11.433  0.1196  0.0292 -0.1723
  615POPI    C3 9815   5.332  16.197  11.435  0.0400 -0.0359 -0.0292
  615POPI   PO4 9816   5.029  16.216  10.844  0.0092 -0.1255 -0.2531
  615POPI   GL1 9817   5.046  16.506  10.468 -0.0557  0.1187  0.2013
  615POPI   GL2 9818   5.133  16.919  10.433  0.0692  0.0769 -0.3540
  615POPI   C1A 9819   4.822  16.450  10.125  0.3157  0.2678  0.0583
  615POPI   D2A 9820   4.859  16.552   9.774  0.1634 -0.0548 -0.4101
  615POPI   C3A 9821   4.848  16.410   9.469 -0.1139 -0.1002  0.2550
  615POPI   C4A 9822   4.860  16.516   9.071 -0.1769  0.2953  0.2866
  615POPI   C1B 9823   4.956  16.928  10.106 -0.1706 -0.1909 -0.0783
  615POPI   C2B 9824   5.059  17.068   9.679 -0.0768 -0.2237 -0.2198
  615POPI   C3B 9825   5.023  17.008   9.277 -0.0435 -0.0871  0.0887
  615POPI   C4B 9826   4.987  16.989   8.852  0.2793  0.1100 -0.2350
  616POPI    C1 9827  16.994  11.643  11.051  0.0318  0.0978 -0.1181
  616POPI    C2 9828  16.798  11.689  11.396 -0.1043  0.2979 -0.2198
  616POPI    C3 9829  17.161  11.523  11.393 -0.2557 -0.0470 -0.0250
  616POPI   PO4 9830  16.930  11.843  10.851  0.1050  0.3102  0.0292
  616POPI   GL1 9831  17.103  11.958  10.442  0.1715 -0.2209 -0.0367
  616POPI   GL2 9832  17.034  12.265  10.347  0.0622  0.1590  0.0837
  616POPI   C1A 9833  17.318  11.810  10.090 -0.0608 -0.0516  0.2460
  616POPI   D2A 9834  17.360  11.825   9.636  0.1181  0.1401  0.1338
  616POPI   C3A 9835  17.279  11.916   9.234  0.2015 -0.1656 -0.3080
  616POPI   C4A 9836  17.346  11.867   8.777 -0.3236  0.0122 -0.0288
  616POPI   C1B 9837  16.959  12.217   9.866  0.3761 -0.3877  0.2714
  616POPI   C2B 9838  16.922  12.220   9.440 -0.0797  0.0444  0.5648
  616POPI   C3B 9839  16.911  12.306   8.901  0.0697 -0.2152 -0.0794
  616POPI   C4B 9840  16.939  12.293   8.510 -0.0618  0.1199  0.1099
  617POPI    C1 9841   7.294  11.070  10.633  0.2527  0.1796  0.1012
  617POPI    C2 9842   7.242  11.148  11.022  0.3675  0.1610  0.1210
  617POPI    C3 9843   7.330  10.776  10.903 -0.0517  0.0828  0.0394
  617POPI   PO4 9844   7.440  11.205  10.523 -0.1179 -0.0481 -0.0857
  617POPI   GL1 9845   7.476  11.109  10.125  0.0438  0.0578  0.0123
  617POPI   GL2 9846   7.152  10.928  10.079 -0.1754  0.2574  0.0248
  617POPI   C1A 9847   7.377  11.254   9.705  0.4480  0.1352 -0.1273
  617POPI   D2A 9848   7.242  11.077   9.321 -0.0101  0.0544  0.1678
  617POPI   C3A 9849   7.438  11.151   8.960  0.1071 -0.2849 -0.0374
  617POPI   C4A 9850   7.422  11.185   8.503  0.1302 -0.1071 -0.1128
  617POPI   C1B 9851   7.279  10.706   9.751  0.0954  0.1937  0.0010
  617POPI   C2B 9852   7.285  10.568   9.474  0.0220 -0.2257 -0.0928
  617POPI   C3B 9853   7.201  10.570   9.070 -0.0613  0.2232  0.3118
  617POPI   C4B 9854   7.219  10.734   8.776  0.1852  0.0848 -0.0476
  618POPI    C1 9855  13.676  13.925  10.756  0.0346  0.3688 -0.1200
  618POPI    C2 9856  14.008  13.997  10.967  0.1128 -0.2614 -0.0077
  618POPI    C3 9857  13.688  13.837  11.146 -0.1747  0.1211 -0.1666
  618POPI   PO4 9858  13.729  13.965  10.539 -0.1868  0.1512 -0.1546
  618POPI   GL1 9859  13.576  14.299  10.216 -0.2270 -0.1206  0.0056
  618POPI   GL2 9860  13.643  14.553  10.241 -0.3513 -0.1425  0.4085
  618POPI   C1A 9861  13.572  14.043   9.931 -0.0743  0.0363  0.0690
  618POPI   D2A 9862  13.706  14.023   9.536 -0.2059 -0.2789 -0.0857
  618POPI   C3A 9863  13.680  14.029   9.121 -0.1676 -0.1745 -0.2868
  618POPI   C4A 9864  13.644  14.051   8.686  0.3253 -0.2463  0.0501
  618POPI   C1B 9865  13.787  14.520   9.843 -0.0645  0.1391  0.2187
  618POPI   C2B 9866  13.705  14.475   9.394  0.2023  0.1037  0.1419
  618POPI   C3B 9867  13.740  14.501   8.841 -0.0151 -0.1325  0.0445
  618POPI   C4B 9868  13.666  14.416   8.361  0.1524  0.1879  0.0038
  619POPI    C1 9869   3.872   0.736  11.043  0.1860 -0.2191 -0.1082
  619POPI    C2 9870   4.233   0.897  11.104  0.0219  0.0781  0.1048
  619POPI    C3 9871   4.018   0.764  11.414  0.0010 -0.2192 -0.0342
  619POPI   PO4 9872   3.775   0.860  10.841 -0.0952  0.2129  0.3523
  619POPI   GL1 9873   4.048   1.128  10.598  0.2500 -0.0722  0.0256
  619POPI   GL2 9874   4.227   0.870  10.527 -0.0144  0.1044 -0.1982
  619POPI   C1A 9875   3.842   1.251  10.065  0.2259  0.3115  0.0690
  619POPI   D2A 9876   3.713   1.217   9.631 -0.2625  0.1988 -0.1133
  619POPI   C3A 9877   3.757   1.234   9.226 -0.0318 -0.1304 -0.0072
  619POPI   C4A 9878   3.741   1.326   8.821  0.2997  0.3561 -0.0506
  619POPI   C1B 9879   4.167   0.885  10.073 -0.3996 -0.2709 -0.1260
  619POPI   C2B 9880   4.144   0.910   9.655 -0.0469  0.0547  0.2173
  619POPI   C3B 9881   4.187   0.878   9.198  0.2637 -0.0343 -0.0089
  619POPI   C4B 9882   4.019   0.903   8.782  0.0999  0.1609 -0.2686
  620POPI    C1 9883   9.588   6.276  10.679  0.3194 -0.2894  0.0154
  620POPI    C2 9884   9.974   6.381  10.690  0.2144  0.1201 -0.0206
  620POPI    C3 9885   9.733   6.474  10.995  0.0701  0.1691 -0.1481
  620POPI   PO4 9886   9.575   6.419  10.333  0.1594 -0.0836 -0.2134
  620POPI   GL1 9887   9.509   6.349   9.930 -0.1888 -0.1341 -0.1451
  620POPI   GL2 9888   9.394   6.564   9.891  0.2438  0.1173 -0.1473
  620POPI   C1A 9889   9.443   6.076   9.566 -0.1204 -0.1148 -0.0205
  620POPI   D2A 9890   9.304   6.004   9.122  0.2010 -0.4208 -0.2444
  620POPI   C3A 9891   9.348   5.904   8.694 -0.0350 -0.0480  0.1276
  620POPI   C4A 9892   9.315   5.704   8.236  0.0716  0.0936  0.1899
  620POPI   C1B 9893   9.467   6.555   9.455  0.0951  0.2695 -0.1386
  620POPI   C2B 9894   9.466   6.585   8.987  0.2962  0.1397 -0.1707
  620POPI   C3B 9895   9.524   6.522   8.560 -0.3330 -0.1999  0.0831
  620POPI   C4B 9896   9.539   6.673   8.069 -0.0561  0.0520  0.2078
  621POPI    C1 9897   6.485   9.835  10.556  0.0418  0.0973 -0.0430
  621POPI    C2 9898   6.836  10.027  10.569  0.0123  0.1458  0.0447
  621POPI    C3 9899   6.776   9.705  10.798  0.0662  0.0233 -0.1117
  621POPI   PO4 9900   6.430   9.920  10.300 -0.2875  0.0737 -0.0858
  621POPI   GL1 9901   6.103   9.964  10.006  0.1383  0.1358  0.0615
  621POPI   GL2 9902   6.335  10.294   9.904 -0.2633 -0.1109  0.1784
  621POPI   C1A 9903   6.122   9.766   9.684  0.0654 -0.2060 -0.0217
  621POPI   D2A 9904   6.047   9.727   9.280  0.1183 -0.2189  0.0579
  621POPI   C3A 9905   6.207   9.811   8.890 -0.0538 -0.1964  0.1731
  621POPI   C4A 9906   6.256   9.938   8.464  0.4305 -0.0692  0.1503
  621POPI   C1B 9907   6.137  10.285   9.524 -0.4224  0.3074 -0.3872
  621POPI   C2B 9908   6.130  10.310   9.048  0.1426  0.0791 -0.2643
  621POPI   C3B 9909   6.343  10.382   8.614  0.1209 -0.0432  0.1980
  621POPI   C4B 9910   6.391  10.438   8.117 -0.1635 -0.2702 -0.1849
  622POPI    C1 9911  15.937   0.099  10.903  0.1315  0.0576  0.0336
  622POPI    C2 9912  16.191   0.343  11.094 -0.0094  0.0214  0.2707
  622POPI    C3 9913  15.946   0.105  11.303 -0.3083  0.1261  0.0469
  622POPI   PO4 9914  16.074  -0.020  10.739 -0.1985  0.0245 -0.0926
  622POPI   GL1 9915  16.213  -0.001  10.320  0.0138 -0.1699 -0.1022
  622POPI   GL2 9916  16.486   0.169  10.189  0.5006 -0.0316  0.0783
  622POPI   C1A 9917  16.070   0.003   9.911 -0.0193 -0.1016  0.0816
  622POPI   D2A 9918  16.014  -0.062   9.464 -0.2335 -0.0772  0.2254
  622POPI   C3A 9919  15.899  -0.080   9.076 -0.1468  0.3408 -0.3248
  622POPI   C4A 9920  15.863  -0.101   8.733 -0.2780  0.0428  0.0957
  622POPI   C1B 9921  16.518   0.159   9.702  0.2038 -0.2891  0.1769
  622POPI   C2B 9922  16.480   0.091   9.282  0.1651 -0.4198  0.0481
  622POPI   C3B 9923  16.383   0.080   8.901 -0.2017  0.2756  0.4927
  622POPI   C4B 9924  16.338   0.017   8.435 -0.0277 -0.0003  0.1318
  623POPI    C1 9925  12.294  15.026  11.094 -0.1060 -0.1929  0.0234
  623POPI    C2 9926  12.586  15.293  11.150 -0.3570  0.0756  0.0738
  623POPI    C3 9927  12.541  14.990  11.407 -0.1065  0.0146  0.0487
  623POPI   PO4 9928  12.312  15.015  10.838 -0.0211 -0.1692  0.1490
  623POPI   GL1 9929  12.043  14.996  10.477 -0.0085  0.2051 -0.0845
  623POPI   GL2 9930  11.853  15.259  10.457  0.1327  0.4107 -0.0650
  623POPI   C1A 9931  11.992  14.990  10.035 -0.0462  0.2484 -0.3412
  623POPI   D2A 9932  11.900  14.913   9.659 -0.0103  0.0229 -0.1320
  623POPI   C3A 9933  11.964  14.894   9.196 -0.1396  0.0109 -0.2192
  623POPI   C4A 9934  11.972  15.075   8.714 -0.0896  0.1426 -0.0738
  623POPI   C1B 9935  11.560  15.336  10.149 -0.5444 -0.0008 -0.3124
  623POPI   C2B 9936  11.649  15.322   9.735 -0.0841 -0.3097  0.0125
  623POPI   C3B 9937  11.662  15.280   9.345 -0.1756  0.0846  0.2097
  623POPI   C4B 9938  11.636  15.323   8.905  0.1267  0.2723 -0.0712
  624POPI    C1 9939   0.824  15.179  10.809 -0.1819 -0.1211  0.1733
  624POPI    C2 9940   0.661  14.817  10.860 -0.2283 -0.0960  0.2044
  624POPI    C3 9941   1.003  14.911  11.046 -0.1418 -0.1725  0.0856
  624POPI   PO4 9942   0.925  15.190  10.572  0.1021  0.1640 -0.1211
  624POPI   GL1 9943   0.909  15.447  10.133 -0.0818 -0.2733  0.1155
  624POPI   GL2 9944   1.071  15.645  10.298  0.0029  0.1376 -0.1779
  624POPI   C1A 9945   0.891  15.404   9.723 -0.0250 -0.0176  0.0815
  624POPI   D2A 9946   0.960  15.354   9.239  0.0092 -0.0823 -0.1508
  624POPI   C3A 9947   0.724  15.450   8.933 -0.2709 -0.2245  0.0053
  624POPI   C4A 9948   0.817  15.504   8.502 -0.0191 -0.3568  0.1963
  624POPI   C1B 9949   0.996  15.847   9.860 -0.0892  0.1623  0.0844
  624POPI   C2B 9950   0.956  15.834   9.434  0.0929  0.2043 -0.1908
  624POPI   C3B 9951   0.984  15.911   9.081 -0.1597  0.0148 -0.1953
  624POPI   C4B 9952   0.932  15.993   8.673 -0.1056 -0.3681 -0.1444
  625DPPI    C1 9953   3.680  16.371  11.503 -0.1468  0.1744  0.3544
  625DPPI    C2 9954   4.077  16.320  11.504 -0.1294  0.2374 -0.2277
  625DPPI    C3 9955   3.905  16.554  11.779  0.2335  0.2074  0.0310
  625DPPI   PO4 9956   3.630  16.251  11.207 -0.3263 -0.3714 -0.1444
  625DPPI   GL1 9957   3.653  16.441  10.790 -0.1064 -0.2756  0.0307
  625DPPI   GL2 9958   3.860  16.157  10.732 -0.0709 -0.3012  0.0070
  625DPPI   C1A 9959   3.507  16.549  10.369 -0.1942 -0.0853  0.1526
  625DPPI   C2A 9960   3.555  16.548   9.943  0.2684 -0.4339 -0.0034
  625DPPI   C3A 9961   3.538  16.538   9.437  0.0384  0.1255 -0.1560
  625DPPI   C4A 9962   3.434  16.558   8.994  0.1377  0.3621  0.1673
  625DPPI   C1B 9963   3.867  16.172  10.297 -0.0959 -0.2208  0.0136
  625DPPI   C2B 9964   3.944  16.205   9.787  0.2140 -0.5633  0.1326
  625DPPI   C3B 9965   3.914  16.155   9.412 -0.0126  0.1039  0.0081
  625DPPI   C4B 9966   3.985  16.215   9.028 -0.0999 -0.0465 -0.0989
  626DPPI    C1 9967   0.463   7.096  11.094 -0.1051 -0.0943 -0.3091
  626DPPI    C2 9968   0.759   7.227  11.329 -0.2259  0.1552 -0.2932
  626DPPI    C3 9969   0.486   6.974  11.474 -0.1539  0.1079 -0.2400
  626DPPI   PO4 9970   0.501   7.057  10.859  0.0254 -0.1863  0.0237
  626DPPI   GL1 9971   0.621   7.037  10.490  0.1652 -0.2047 -0.0249
  626DPPI   GL2 9972   0.862   7.194  10.294  0.2365  0.0557  0.1359
  626DPPI   C1A 9973   0.403   6.942  10.111 -0.0190 -0.2304 -0.0635
  626DPPI   C2A 9974   0.405   6.928   9.716  0.2996  0.0861  0.0617
  626DPPI   C3A 9975   0.400   6.940   9.223  0.0093 -0.1711  0.0052
  626DPPI   C4A 9976   0.397   7.076   8.800  0.0909  0.0083  0.0257
  626DPPI   C1B 9977   0.836   7.043   9.921  0.0909  0.2759 -0.1894
  626DPPI   C2B 9978   0.844   7.084   9.508 -0.2468 -0.1154  0.1462
  626DPPI   C3B 9979   0.793   7.194   9.106 -0.2438  0.0008  0.1129
  626DPPI   C4B 9980   0.881   7.236   8.614 -0.4125 -0.2409 -0.2344
  627DPPI    C1 9981  14.932  17.279  10.478 -0.0128 -0.1768  0.0948
  627DPPI    C2 9982  15.217  17.464  10.690 -0.1357  0.2755 -0.1214
  627DPPI    C3 9983  14.846  17.435  10.837 -0.0636 -0.0086  0.0110
  627DPPI   PO4 9984  14.873  17.411  10.278  0.1660  0.3767  0.0509
  627DPPI   GL1 9985  14.938  17.671   9.963  0.1215  0.0053 -0.0057
  627DPPI   GL2 9986  15.062  17.844   9.888  0.3207  0.1616  0.2090
  627DPPI   C1A 9987  14.810  17.389   9.684  0.0493  0.0133  0.0922
  627DPPI   C2A 9988  14.883  17.348   9.283 -0.0699 -0.1283 -0.6577
  627DPPI   C3A 9989  14.790  17.104   9.045 -0.0355 -0.1735 -0.1926
  627DPPI   C4A 9990  14.718  17.206   8.596  0.0517 -0.1158  0.2543
  627DPPI   C1B 9991  15.016  17.852   9.460  0.0047 -0.0305 -0.0950
  627DPPI   C2B 9992  14.975  17.848   9.033 -0.0791  0.0458  0.0920
  627DPPI   C3B 9993  14.813  17.790   8.623 -0.2705  0.0101  0.0572
  627DPPI   C4B 9994  14.757  17.644   8.320  0.2197  0.1637  0.0377
  628DPPI    C1 9995  14.901  15.054  10.898  0.0232 -0.0496  0.1192
  628DPPI    C2 9996  14.578  15.262  11.008 -0.0083  0.0432 -0.1425
  628DPPI    C3 9997  14.876  15.205  11.268 -0.1900  0.0416  0.0694
  628DPPI   PO4 9998  14.882  15.189  10.548 -0.0051  0.0433  0.0700
  628DPPI   GL1 9999  14.640  15.064  10.149 -0.0013 -0.0467  0.1174
  628DPPI   GL210000  14.692  14.836  10.221  0.0226 -0.0053  0.0082
  628DPPI   C1A10001  14.443  15.178   9.789  0.2904  0.3922 -0.3588
  628DPPI   C2A10002  14.411  15.163   9.325  0.1091  0.0342 -0.4231
  628DPPI   C3A10003  14.338  15.194   8.978  0.1937 -0.1014  0.0106
  628DPPI   C4A10004  14.362  15.240   8.571 -0.0380  0.2737  0.0613
  628DPPI   C1B10005  14.815  14.763   9.773 -0.2707 -0.3799  0.2411
  628DPPI   C2B10006  14.755  14.758   9.374  0.1216  0.0778 -0.1636
  628DPPI   C3B10007  14.708  14.891   8.912 -0.0291  0.0050 -0.0792
  628DPPI   C4B10008  14.790  14.791   8.436 -0.0418  0.0528  0.2441
  629DPPI    C110009  14.562   7.863  10.524  0.1731 -0.1145  0.1047
  629DPPI    C210010  14.298   7.576  10.613 -0.0851  0.0538 -0.1013
  629DPPI    C310011  14.487   7.772  10.906 -0.0301 -0.2107  0.0435
  629DPPI   PO410012  14.658   7.733  10.346 -0.1227 -0.0923 -0.1582
  629DPPI   GL110013  14.705   7.656   9.954  0.3008 -0.1867 -0.0637
  629DPPI   GL210014  14.950   7.786   9.952 -0.0186  0.3193 -0.1063
  629DPPI   C1A10015  14.581   7.595   9.612 -0.0732  0.1791  0.3381
  629DPPI   C2A10016  14.609   7.603   9.051 -0.1615 -0.0901 -0.1563
  629DPPI   C3A10017  14.528   7.688   8.549  0.1787  0.0930  0.3188
  629DPPI   C4A10018  14.581   7.663   8.080  0.1257  0.1712  0.0725
  629DPPI   C1B10019  15.166   7.851   9.592  0.2018 -0.0725 -0.1587
  629DPPI   C2B10020  15.202   7.814   9.195 -0.3718 -0.2557 -0.1278
  629DPPI   C3B10021  15.199   7.844   8.825 -0.1211  0.0334  0.1117
  629DPPI   C4B10022  15.045   7.814   8.443 -0.4442 -0.4541 -0.1692
  630DPPI    C110023   8.014  10.682  10.634  0.1543  0.0200 -0.0795
  630DPPI    C210024   8.110  10.605  11.015  0.0215  0.1173 -0.0254
  630DPPI    C310025   7.750  10.503  10.875  0.1658 -0.1623 -0.2013
  630DPPI   PO410026   8.026  10.563  10.431 -0.2043  0.1744  0.0147
  630DPPI   GL110027   8.087  10.372  10.095 -0.0982  0.0884  0.1932
  630DPPI   GL210028   8.501  10.370  10.185  0.0469 -0.0952 -0.3841
  630DPPI   C1A10029   8.141  10.391   9.755 -0.3913 -0.3125  0.2067
  630DPPI   C2A10030   8.131  10.346   9.362  0.2114  0.1879 -0.0186
  630DPPI   C3A10031   8.232  10.440   8.968  0.1682  0.1451  0.4135
  630DPPI   C4A10032   8.200  10.561   8.506  0.1445  0.2833 -0.0018
  630DPPI   C1B10033   8.521  10.041   9.874  0.1609  0.0599  0.1273
  630DPPI   C2B10034   8.495   9.987   9.439  0.0404 -0.0772 -0.3810
  630DPPI   C3B10035   8.532  10.060   9.000 -0.0342  0.0598 -0.1342
  630DPPI   C4B10036   8.516  10.127   8.656 -0.0506 -0.1297 -0.1631
  631DPPI    C110037   1.272   6.121  11.494 -0.0040  0.2077 -0.3383
  631DPPI    C210038   1.047   6.445  11.561 -0.0643  0.1024 -0.0142
  631DPPI    C310039   1.446   6.476  11.559 -0.0674  0.1597  0.1264
  631DPPI   PO410040   1.186   6.061  11.253  0.3156  0.0303  0.1869
  631DPPI   GL110041   1.131   5.983  10.783  0.0521  0.0055  0.0366
  631DPPI   GL210042   0.920   6.187  10.521 -0.0751  0.0579 -0.0574
  631DPPI   C1A10043   0.889   5.686  10.414  0.0627 -0.2229 -0.1833
  631DPPI   C2A10044   0.969   5.643  10.007  0.0446  0.1802  0.2197
  631DPPI   C3A10045   1.014   5.699   9.599 -0.0684 -0.1365 -0.3076
  631DPPI   C4A10046   0.989   5.669   9.266  0.0354  0.3948  0.1626
  631DPPI   C1B10047   1.138   6.118  10.204  0.2148  0.0049 -0.2747
  631DPPI   C2B10048   1.214   6.245   9.933 -0.0150  0.0469 -0.1060
  631DPPI   C3B10049   1.109   6.256   9.463 -0.1837 -0.0376  0.0467
  631DPPI   C4B10050   1.105   6.220   8.992 -0.3331 -0.1546 -0.0640
  632DPPI    C110051   4.122  11.047  11.094  0.0306 -0.1595 -0.2259
  632DPPI    C210052   4.392  10.866  11.327  0.0295 -0.0251 -0.1191
  632DPPI    C310053   4.294  11.248  11.394 -0.1554 -0.0599 -0.1842
  632DPPI   PO410054   4.185  11.049  10.877 -0.2087  0.0554  0.3259
  632DPPI   GL110055   4.305  11.124  10.487  0.1864 -0.1508  0.0436
  632DPPI   GL210056   4.129  10.806  10.413  0.2574 -0.1368  0.2397
  632DPPI   C1A10057   4.258  11.398  10.169  0.1739 -0.2042 -0.1516
  632DPPI   C2A10058   4.277  11.539   9.732 -0.0149 -0.1615 -0.0649
  632DPPI   C3A10059   4.213  11.616   9.244  0.1736  0.1650  0.0405
  632DPPI   C4A10060   4.197  11.554   8.863  0.0490 -0.2187 -0.2353
  632DPPI   C1B10061   4.082  10.973   9.969  0.1207 -0.3091 -0.1079
  632DPPI   C2B10062   4.085  11.038   9.561 -0.0018 -0.0514 -0.0569
  632DPPI   C3B10063   4.033  11.062   9.146 -0.3013  0.2284 -0.0404
  632DPPI   C4B10064   4.119  11.044   8.765  0.0554  0.1544 -0.4092
  633DPPI    C110065   9.443   3.792  10.461 -0.1514  0.0205  0.1849
  633DPPI    C210066   9.129   3.728  10.701 -0.0673 -0.2219  0.2331
  633DPPI    C310067   9.481   3.556  10.782  0.0218 -0.1241  0.0600
  633DPPI   PO410068   9.307   3.788  10.227  0.1276 -0.0581 -0.1188
  633DPPI   GL110069   9.228   3.926   9.868 -0.0942 -0.2962 -0.1278
  633DPPI   GL210070   9.478   4.107   9.824  0.2145  0.1074  0.0985
  633DPPI   C1A10071   8.928   3.956   9.440 -0.4606  0.1927  0.2499
  633DPPI   C2A10072   8.851   3.850   8.954  0.1940  0.0658  0.1537
  633DPPI   C3A10073   8.787   3.858   8.404 -0.0017  0.1037 -0.3240
  633DPPI   C4A10074   8.671   3.766   8.022  0.1177 -0.2059 -0.0225
  633DPPI   C1B10075   9.511   4.146   9.444 -0.3582  0.3657  0.0969
  633DPPI   C2B10076   9.401   4.054   9.018  0.2036 -0.1064 -0.1687
  633DPPI   C3B10077   9.310   3.993   8.567 -0.2673  0.1580 -0.3666
  633DPPI   C4B10078   9.195   3.916   8.137 -0.0397  0.2222 -0.2287
  634DPPI    C110079   5.576  14.337  11.079 -0.3611 -0.2178 -0.1482
  634DPPI    C210080   5.236  14.519  11.184  0.0202  0.3242  0.1940
  634DPPI    C310081   5.386  14.228  11.413 -0.3186 -0.0751 -0.0769
  634DPPI   PO410082   5.741  14.518  10.980  0.0687 -0.0285 -0.2445
  634DPPI   GL110083   5.853  14.506  10.511  0.0839 -0.0201  0.1511
  634DPPI   GL210084   5.564  14.632  10.513 -0.0364 -0.0448  0.5556
  634DPPI   C1A10085   5.876  14.519  10.085  0.1519 -0.0121 -0.3442
  634DPPI   C2A10086   5.751  14.462   9.591  0.0472 -0.1414  0.0292
  634DPPI   C3A10087   5.705  14.475   9.147 -0.1902  0.1487 -0.0185
  634DPPI   C4A10088   5.616  14.447   8.688 -0.2037  0.1761  0.0199
  634DPPI   C1B10089   5.474  14.884  10.272  0.2955  0.0060  0.0454
  634DPPI   C2B10090   5.417  14.760   9.840 -0.2025 -0.2045 -0.1874
  634DPPI   C3B10091   5.354  14.731   9.435  0.0341 -0.1398  0.1738
  634DPPI   C4B10092   5.368  14.789   9.006  0.2419 -0.1416 -0.0227
  635PYPI    C110093  12.063  11.765  10.858 -0.1872 -0.0798 -0.1517
  635PYPI    C210094  12.273  11.528  10.613  0.0690  0.1169 -0.1270
  635PYPI    C310095  12.294  11.476  11.009  0.2538  0.2812 -0.1138
  635PYPI   PO410096  11.800  11.722  10.739  0.3638 -0.3475  0.0751
  635PYPI   GL110097  11.546  11.863  10.294  0.2590 -0.1804 -0.1541
  635PYPI   GL210098  11.246  11.802  10.156  0.1622 -0.0082 -0.0376
  635PYPI   C1A10099  11.729  11.960   9.930  0.0810 -0.1167  0.1140
  635PYPI   C2A10100  11.788  12.049   9.570  0.1863 -0.3851  0.1914
  635PYPI   D3A10101  11.723  12.049   9.084 -0.1594  0.0053  0.0063
  635PYPI   C4A10102  11.769  11.998   8.731 -0.1126  0.1785  0.0888
  635PYPI   C1B10103  11.304  11.820   9.667  0.0538  0.0025  0.0553
  635PYPI   C2B10104  11.268  11.881   9.244  0.0203 -0.0981  0.0192
  635PYPI   C3B10105  11.249  11.895   8.776  0.3265 -0.1055 -0.0771
  635PYPI   C4B10106  11.278  11.710   8.430  0.2380  0.3038 -0.0713
  636PYPI    C110107   8.659   6.770  10.452  0.1092  0.0995  0.0581
  636PYPI    C210108   8.724   6.523  10.759 -0.2697 -0.1471 -0.0517
  636PYPI    C310109   8.598   6.377  10.409 -0.0673  0.1574 -0.2567
  636PYPI   PO410110   8.791   6.936  10.324 -0.0173  0.4322 -0.2213
  636PYPI   GL110111   8.965   6.826   9.951  0.1522 -0.1201  0.2197
  636PYPI   GL210112   8.732   6.570   9.958 -0.1604  0.4003  0.2799
  636PYPI   C1A10113   9.052   6.843   9.491  0.0017  0.0770 -0.0018
  636PYPI   C2A10114   9.099   6.897   9.027 -0.3572 -0.3383 -0.1756
  636PYPI   D3A10115   9.152   6.876   8.545 -0.1563 -0.3610 -0.0873
  636PYPI   C4A10116   9.087   6.596   8.229 -0.0469 -0.3121 -0.0957
  636PYPI   C1B10117   8.530   6.713   9.544 -0.1091 -0.1856  0.3730
  636PYPI   C2B10118   8.638   6.700   9.135 -0.2189  0.0310  0.1738
  636PYPI   C3B10119   8.772   6.674   8.714 -0.0518 -0.0161  0.2161
  636PYPI   C4B10120   8.516   6.654   8.289 -0.3208  0.0867  0.4358
  637PYPI    C110121  15.886  13.777  10.792 -0.1591 -0.1589 -0.1906
  637PYPI    C210122  15.730  13.441  10.943 -0.2121 -0.1447 -0.2137
  637PYPI    C310123  15.689  13.787  11.140 -0.0729 -0.1687 -0.1412
  637PYPI   PO410124  15.896  13.863  10.531 -0.2393 -0.2183 -0.2543
  637PYPI   GL110125  16.182  13.982  10.312  0.2937 -0.0807  0.0921
  637PYPI   GL210126  16.087  13.745  10.075 -0.1771  0.0802  0.0373
  637PYPI   C1A10127  16.066  14.250   9.961 -0.5408 -0.1999  0.3737
  637PYPI   C2A10128  15.974  14.363   9.558 -0.4482 -0.0894 -0.3980
  637PYPI   D3A10129  15.977  14.230   9.189  0.0249 -0.0771 -0.0998
  637PYPI   C4A10130  16.007  14.480   8.810 -0.2350  0.1648 -0.2456
  637PYPI   C1B10131  15.926  13.747   9.664 -0.0866  0.3035  0.1109
  637PYPI   C2B10132  15.905  13.753   9.151  0.1186  0.2283 -0.0389
  637PYPI   C3B10133  15.968  13.951   8.755  0.0826  0.0590  0.1937
  637PYPI   C4B10134  15.915  13.921   8.344  0.1545 -0.0170 -0.3907
  638PYPI    C110135   4.818  15.830  11.334 -0.2408 -0.0441  0.0615
  638PYPI    C210136   4.835  15.480  11.527 -0.0481  0.0511  0.2206
  638PYPI    C310137   4.641  15.790  11.691  0.0222  0.1001  0.2116
  638PYPI   PO410138   4.735  15.805  10.977 -0.1198  0.1661 -0.0257
  638PYPI   GL110139   4.664  15.674  10.577 -0.0812 -0.1876 -0.2583
  638PYPI   GL210140   4.916  15.844  10.504 -0.6072  0.0907 -0.1969
  638PYPI   C1A10141   4.650  15.421  10.362 -0.1535 -0.5570 -0.2161
  638PYPI   C2A10142   4.651  15.477   9.853  0.3431 -0.0298 -0.3230
  638PYPI   D3A10143   4.635  15.485   9.482 -0.2086  0.0974  0.0950
  638PYPI   C4A10144   4.667  15.513   9.023  0.2050  0.0746 -0.0688
  638PYPI   C1B10145   4.741  15.890  10.121 -0.0761 -0.1376 -0.0654
  638PYPI   C2B10146   4.730  16.068   9.785 -0.6683  0.2032  0.3018
  638PYPI   C3B10147   4.755  15.979   9.330  0.0049 -0.0093 -0.3907
  638PYPI   C4B10148   4.774  16.006   8.858 -0.2643  0.2216 -0.1362
  639PYPI    C110149   8.612  14.251  11.171 -0.1296 -0.1041  0.3190
  639PYPI    C210150   8.878  14.126  11.442  0.2771  0.3394  0.1394
  639PYPI    C310151   8.708  14.486  11.480  0.1746  0.3160 -0.0812
  639PYPI   PO410152   8.719  14.231  10.943  0.0611  0.1941 -0.0300
  639PYPI   GL110153   8.554  14.199  10.637 -0.4808 -0.2431  0.4637
  639PYPI   GL210154   8.442  14.463  10.636  0.2152 -0.1588  0.1015
  639PYPI   C1A10155   8.519  14.304  10.158  0.0497  0.1118  0.2295
  639PYPI   C2A10156   8.550  14.466   9.724 -0.1309 -0.1680 -0.0870
  639PYPI   D3A10157   8.524  14.340   9.368 -0.3038  0.3078  0.2183
  639PYPI   C4A10158   8.660  14.334   8.909 -0.0174  0.1521 -0.2674
  639PYPI   C1B10159   8.204  14.685  10.344  0.2369 -0.3386 -0.0359
  639PYPI   C2B10160   8.256  14.795   9.966 -0.0002 -0.1746 -0.0191
  639PYPI   C3B10161   8.198  14.817   9.552 -0.1704 -0.2159  0.1475
  639PYPI   C4B10162   8.208  14.719   9.194 -0.2069 -0.0697  0.0613
  640PYPI    C110163   3.155   6.992  11.146 -0.0371  0.2390 -0.1901
  640PYPI    C210164   3.260   7.182  11.481  0.1648 -0.3838  0.1150
  640PYPI    C310165   2.897   7.241  11.323  0.1672  0.1254  0.2816
  640PYPI   PO410166   3.347   7.031  10.993  0.2154 -0.0670 -0.5133
  640PYPI   GL110167   3.398   6.988  10.614 -0.0116 -0.0417  0.1267
  640PYPI   GL210168   3.222   6.906  10.455  0.0799  0.0278  0.0026
  640PYPI   C1A10169   3.327   7.302  10.211  0.3036  0.1338 -0.1569
  640PYPI   C2A10170   3.207   7.429   9.818  0.1234 -0.0216  0.0411
  640PYPI   D3A10171   3.191   7.464   9.359 -0.3608  0.2338  0.1390
  640PYPI   C4A10172   3.225   7.494   9.001 -0.0741 -0.2076 -0.0647
  640PYPI   C1B10173   3.125   6.860  10.105  0.2726  0.0909  0.2933
  640PYPI   C2B10174   3.151   6.983   9.624  0.3456 -0.0159 -0.1456
  640PYPI   C3B10175   3.241   7.024   9.178  0.2381  0.0981 -0.1238
  640PYPI   C4B10176   3.213   6.964   8.718  0.2589 -0.2896  0.1800
  641ERGO   ROH10177  15.700  16.375   9.994  0.2350  0.0632  0.0516
  641ERGO    R110178  15.884  16.377   9.779  0.1276  0.0216 -0.0424
  641ERGO    R210179  15.934  16.155   9.622  0.0937 -0.0282  0.0118
  641ERGO    R310180  15.871  16.324   9.419 -0.0446 -0.1126 -0.0165
  641ERGO    R410181  15.979  16.087   9.286  0.1817 -0.0289  0.0241
  641ERGO    R510182  16.045  16.292   9.259 -0.0041  0.0267  0.0021
  641ERGO    C110183  15.946  16.206   8.900  0.1031 -0.1083  0.0046
  641ERGO    C210184  15.909  16.244   8.560 -0.0963  0.3959 -0.0198
  642ERGO   ROH10185   1.288  17.380  10.392  0.1338  0.2351 -0.0210
  642ERGO    R110186   1.385  17.445  10.134 -0.0103  0.1069 -0.1080
  642ERGO    R210187   1.407  17.257   9.931 -0.1895  0.0233 -0.0461
  642ERGO    R310188   1.256  17.436   9.793 -0.2248  0.0093 -0.0273
  642ERGO    R410189   1.393  17.280   9.587  0.0227  0.2276 -0.0432
  642ERGO    R510190   1.393  17.497   9.606 -0.1384  0.2213  0.0968
  642ERGO    C110191   1.245  17.462   9.257  0.1130  0.3334 -0.0241
  642ERGO    C210192   1.257  17.356   8.928 -0.1584  0.0985  0.0145
  643ERGO   ROH10193   5.610   7.151   9.789  0.2859 -0.1320 -0.0228
  643ERGO    R110194   5.461   7.152   9.548  0.2884 -0.0970 -0.0236
  643ERGO    R210195   5.500   7.340   9.350  0.3139 -0.0902 -0.0080
  643ERGO    R310196   5.533   7.121   9.193  0.2859 -0.0824 -0.0261
  643ERGO    R410197   5.521   7.347   9.005 -0.3402 -0.1224 -0.0610
  643ERGO    R510198   5.398   7.166   9.000 -0.1398 -0.2776  0.2081
  643ERGO    C110199   5.564   7.145   8.657 -0.7474 -0.1337 -0.1090
  643ERGO    C210200   5.604   7.114   8.292 -0.2067  0.2269  0.1823
  644ERGO   ROH10201  16.477   7.428  10.270  0.4293  0.2517  0.1258
  644ERGO    R110202  16.676   7.423  10.069  0.2871  0.0320 -0.0143
  644ERGO    R210203  16.699   7.216   9.886 -0.1088  0.0329 -0.0773
  644ERGO    R310204  16.683   7.417   9.705  0.0243  0.0938 -0.0218
  644ERGO    R410205  16.799   7.193   9.556 -0.2658  0.0139 -0.1240
  644ERGO    R510206  16.881   7.394   9.572 -0.0540 -0.0750 -0.1076
  644ERGO    C110207  16.842   7.369   9.194 -0.2322  0.0598 -0.0990
  644ERGO    C210208  16.806   7.449   8.920 -0.0593 -0.0352  0.4652
  645ERGO   ROH10209   2.794   9.393  10.410  0.0435  0.0383 -0.0866
  645ERGO    R110210   2.699   9.512  10.171  0.1308  0.0597 -0.1116
  645ERGO    R210211   2.841   9.705  10.034  0.2172  0.0168 -0.0853
  645ERGO    R310212   2.809   9.534   9.825  0.2159  0.0196 -0.0870
  645ERGO    R410213   2.881   9.789   9.701  0.1603  0.0333 -0.0878
  645ERGO    R510214   2.707   9.667   9.654  0.1736  0.0092 -0.0690
  645ERGO    C110215   2.874   9.677   9.312  0.1259  0.0456 -0.0911
  645ERGO    C210216   2.914   9.701   8.984  0.4199 -0.2173  0.2652
  646ERGO   ROH10217  14.446  11.910  10.147  0.1745  0.1609  0.1578
  646ERGO    R110218  14.541  11.893   9.881  0.0782 -0.0791  0.1372
  646ERGO    R210219  14.416  11.741   9.687 -0.2476  0.0903  0.2143
  646ERGO    R310220  14.414  11.975   9.550  0.1358  0.0623  0.1483
  646ERGO    R410221  14.478  11.772   9.349 -0.2114 -0.1108  0.1998
  646ERGO    R510222  14.592  11.952   9.391  0.0971 -0.2814  0.1428
  646ERGO    C110223  14.513  12.010   9.023  0.1696 -0.2542  0.1295
  646ERGO    C210224  14.586  12.012   8.602  0.0603 -0.2352 -0.0583
  647ERGO   ROH10225  14.185   7.924   9.776  0.1268 -0.0675 -0.0405
  647ERGO    R110226  14.273   7.981   9.513  0.0404  0.0026 -0.0558
  647ERGO    R210227  14.242   7.803   9.304  0.1741 -0.0383 -0.0478
  647ERGO    R310228  14.120   8.014   9.184 -0.0381 -0.1517 -0.0342
  647ERGO    R410229  14.232   7.858   8.963  0.0817 -0.0386 -0.0445
  647ERGO    R510230  14.264   8.070   9.001 -0.1146 -0.0117 -0.0479
  647ERGO    C110231  14.111   8.089   8.652 -0.1713 -0.1452 -0.0298
  647ERGO    C210232  14.052   8.035   8.369  0.1178 -0.1764 -0.1798
  648ERGO   ROH10233   6.481  13.489  10.507 -0.1244  0.2169  0.0960
  648ERGO    R110234   6.428  13.652  10.282  0.2003  0.2130  0.0108
  648ERGO    R210235   6.626  13.730  10.106  0.3904 -0.1513  0.0414
  648ERGO    R310236   6.459  13.621   9.920  0.2858  0.0190  0.0352
  648ERGO    R410237   6.623  13.814   9.771  0.3335 -0.0081  0.0775
  648ERGO    R510238   6.405  13.805   9.775  0.3376  0.1028  0.1301
  648ERGO    C110239   6.466  13.760   9.401  0.2021  0.2351  0.0928
  648ERGO    C210240   6.473  13.701   9.076  0.1376  0.3370  0.1873
  649ERGO   ROH10241   8.111  17.892  10.307 -0.0629 -0.3342 -0.0536
  649ERGO    R110242   7.955  17.925  10.073 -0.0894 -0.1603 -0.0131
  649ERGO    R210243   8.032  18.091   9.865 -0.0537 -0.0987  0.0479
  649ERGO    R310244   7.998  17.865   9.717 -0.1767 -0.0170 -0.0484
  649ERGO    R410245   7.984  18.085   9.523 -0.1575  0.0815  0.0587
  649ERGO    R510246   7.836  17.927   9.552 -0.2048  0.1192  0.0280
  649ERGO    C110247   7.923  17.870   9.185 -0.3335  0.2629 -0.0255
  649ERGO    C210248   8.014  17.902   8.895  0.3719 -0.2451  0.1561
  650ERGO   ROH10249   7.962  11.943  10.062  0.0380 -0.1640 -0.0475
  650ERGO    R110250   8.024  11.854   9.800  0.0497 -0.0215 -0.0923
  650ERGO    R210251   7.832  11.825   9.604  0.0481 -0.0099 -0.0819
  650ERGO    R310252   7.997  11.987   9.462 -0.0319  0.1163 -0.0347
  650ERGO    R410253   7.861  11.823   9.260  0.0990  0.0384 -0.0790
  650ERGO    R510254   8.077  11.848   9.284  0.0872  0.1777 -0.0381
  650ERGO    C110255   8.033  11.974   8.926  0.0535  0.1852 -0.0329
  650ERGO    C210256   7.997  11.894   8.642  0.1560 -0.0636  0.2421
  651ERGO   ROH10257  10.417  11.687   6.534 -0.1712  0.0886 -0.1140
  651ERGO    R110258  10.400  11.649   6.814  0.0524  0.1831 -0.0863
  651ERGO    R210259  10.307  11.845   6.984  0.0610  0.1914 -0.0946
  651ERGO    R310260  10.137  11.649   7.065  0.2320  0.1209  0.1054
  651ERGO    R410261  10.079  11.875   7.243 -0.0357  0.2947 -0.1901
  651ERGO    R510262  10.129  11.671   7.303  0.1501  0.4134  0.0797
  651ERGO    C110263   9.787  11.708   7.468  0.0684  0.2886 -0.0578
  651ERGO    C210264   9.596  11.869   7.486 -0.0896  0.1900 -0.1791
  652ERGO   ROH10265   1.921   4.159  10.536 -0.0580 -0.1616 -0.0039
  652ERGO    R110266   2.041   4.261  10.301 -0.0064 -0.1379  0.0328
  652ERGO    R210267   2.172   4.099  10.119 -0.0014 -0.1252  0.0259
  652ERGO    R310268   2.001   4.214   9.942  0.0431 -0.0694  0.0181
  652ERGO    R410269   2.170   4.037   9.779 -0.0322 -0.1522  0.0307
  652ERGO    R510270   2.134   4.250   9.746  0.0550 -0.1403  0.0130
  652ERGO    C110271   2.007   4.109   9.415 -0.0083 -0.1156  0.0261
  652ERGO    C210272   2.033   4.151   9.023 -0.0257  0.3454 -0.2145
  653ERGO   ROH10273   0.684   1.655  10.402 -0.0379 -0.1244  0.0584
  653ERGO    R110274   0.552   1.727  10.161 -0.0655 -0.1541  0.0648
  653ERGO    R210275   0.682   1.853   9.953 -0.1505  0.0627  0.1414
  653ERGO    R310276   0.584   1.645   9.808  0.0814  0.0230  0.0357
  653ERGO    R410277   0.623   1.860   9.613 -0.0455  0.1253  0.1235
  653ERGO    R510278   0.439   1.748   9.647  0.0417 -0.0510  0.0242
  653ERGO    C110279   0.496   1.669   9.278  0.2334  0.1244  0.0138
  653ERGO    C210280   0.573   1.763   8.892  0.0362  0.0792  0.1566
  654ERGO   ROH10281  18.106  13.194  10.134  0.0557  0.1299 -0.0319
  654ERGO    R110282  18.198  13.112   9.879  0.1312  0.1078  0.0020
  654ERGO    R210283  18.029  13.007   9.687  0.2178 -0.0803  0.0263
  654ERGO    R310284  18.134  13.204   9.533  0.0856 -0.0559 -0.0345
  654ERGO    R410285  18.035  13.006   9.342 -0.0008 -0.0677  0.0207
  654ERGO    R510286  18.237  13.089   9.350 -0.0091 -0.0319 -0.1038
  654ERGO    C110287  18.138  13.191   8.996 -0.2522 -0.0374 -0.0397
  654ERGO    C210288  18.044  13.258   8.700 -0.0220  0.2144  0.2087
  655ERGO   ROH10289   4.574   6.858  10.060  0.0010  0.2106  0.0048
  655ERGO    R110290   4.561   6.780   9.788  0.0857  0.0485  0.0456
  655ERGO    R210291   4.347   6.842   9.626  0.0631 -0.1793 -0.0203
  655ERGO    R310292   4.540   6.947   9.466  0.0191 -0.1438 -0.0500
  655ERGO    R410293   4.340   6.839   9.280 -0.0187 -0.1099 -0.0195
  655ERGO    R510294   4.553   6.794   9.281 -0.0207 -0.1038 -0.0826
  655ERGO    C110295   4.518   6.936   8.929 -0.1076 -0.0362 -0.0467
  655ERGO    C210296   4.515   6.814   8.566  0.1397 -0.0627  0.3378
  656ERGO   ROH10297   2.765   6.668  10.389  0.1894 -0.1316  0.0845
  656ERGO    R110298   2.689   6.593  10.127  0.1413 -0.0199  0.0661
  656ERGO    R210299   2.562   6.766   9.954  0.2097  0.0885  0.1249
  656ERGO    R310300   2.768   6.700   9.788  0.1706  0.0453  0.0932
  656ERGO    R410301   2.561   6.810   9.611  0.1933  0.1597  0.1336
  656ERGO    R510302   2.660   6.616   9.591  0.1200  0.1254  0.0853
  656ERGO    C110303   2.754   6.773   9.256  0.1471  0.1605  0.1089
  656ERGO    C210304   2.708   6.814   8.865  0.0634 -0.1951 -0.0470
  657ERGO   ROH10305  10.971   6.448   9.625  0.1157 -0.0688 -0.0676
  657ERGO    R110306  10.861   6.372   9.375  0.1226 -0.0863 -0.0655
  657ERGO    R210307  10.793   6.556   9.180  0.0234 -0.0913 -0.0367
  657ERGO    R310308  10.954   6.402   9.025  0.0743 -0.0034 -0.0716
  657ERGO    R410309  10.805   6.568   8.835 -0.0954 -0.1200 -0.0420
  657ERGO    R510310  10.820   6.351   8.833  0.0452 -0.1110 -0.0233
  657ERGO    C110311  10.962   6.431   8.488 -0.1167 -0.0544 -0.0777
  657ERGO    C210312  10.930   6.439   8.129  0.3438 -0.1448 -0.0508
  658ERGO   ROH10313  17.006   5.233  10.284  0.1764  0.0232  0.0360
  658ERGO    R110314  17.120   5.235  10.025  0.1792  0.0355  0.0374
  658ERGO    R210315  17.239   5.012   9.913  0.2282  0.0568  0.0494
  658ERGO    R310316  17.063   5.060   9.711  0.2215  0.0094  0.0439
  658ERGO    R410317  17.322   5.025   9.577  0.2466  0.1210  0.0564
  658ERGO    R510318  17.187   5.194   9.555  0.1819  0.0726  0.0649
  658ERGO    C110319  17.206   5.077   9.193  0.2512  0.1139  0.0552
  658ERGO    C210320  17.251   5.090   8.841 -0.0534 -0.3891  0.0405
  659ERGO   ROH10321  11.316   4.198   9.296  0.0777 -0.2077 -0.1262
  659ERGO    R110322  11.228   4.078   9.055  0.0687 -0.1054 -0.1750
  659ERGO    R210323  11.204   4.220   8.819  0.1695 -0.0295 -0.1441
  659ERGO    R310324  11.365   4.023   8.722  0.1049 -0.0712 -0.1650
  659ERGO    R410325  11.286   4.179   8.486 -0.0905 -0.2097 -0.1886
  659ERGO    R510326  11.265   3.963   8.513 -0.0557 -0.1943 -0.0535
  659ERGO    C110327  11.485   3.970   8.201 -0.3026 -0.3537 -0.2341
  659ERGO    C210328  11.704   3.961   7.890 -0.0627 -0.0774 -0.0481
  660ERGO   ROH10329  14.782   0.058  10.025  0.1381  0.1319  0.0751
  660ERGO    R110330  14.684  -0.075   9.795  0.1310  0.0672  0.1152
  660ERGO    R210331  14.483   0.029   9.637  0.0846 -0.0058  0.1260
  660ERGO    R310332  14.665  -0.007   9.438  0.0612 -0.0050  0.1046
  660ERGO    R410333  14.405  -0.011   9.303  0.0433  0.0280  0.1318
  660ERGO    R510334  14.560  -0.164   9.290  0.0305  0.0150  0.1034
  660ERGO    C110335  14.530  -0.069   8.921 -0.0026  0.0485  0.1150
  660ERGO    C210336  14.447  -0.065   8.605  0.3136 -0.1910  0.2599
  661ERGO   ROH10337   6.760  10.612   9.933 -0.2026  0.1925 -0.0101
  661ERGO    R110338   6.803  10.453   9.702 -0.1115  0.1950  0.0033
  661ERGO    R210339   6.609  10.415   9.509 -0.1125  0.0224  0.0258
  661ERGO    R310340   6.802  10.506   9.342 -0.1980  0.1556  0.0006
  661ERGO    R410341   6.588  10.415   9.164 -0.1668  0.0772  0.0296
  661ERGO    R510342   6.797  10.355   9.156 -0.1451  0.1951 -0.0237
  661ERGO    C110343   6.758  10.501   8.806 -0.2786  0.2340  0.0081
  661ERGO    C210344   6.762  10.591   8.492 -0.0637  0.1179  0.1211
  662ERGO   ROH10345  16.335  11.554  10.030 -0.1873 -0.0622  0.0350
  662ERGO    R110346  16.384  11.475   9.763 -0.0867 -0.0014  0.0350
  662ERGO    R210347  16.188  11.478   9.568 -0.0280 -0.0115 -0.0246
  662ERGO    R310348  16.370  11.630   9.434 -0.0223  0.0560  0.0589
  662ERGO    R410349  16.203  11.511   9.224  0.0285  0.1084 -0.0112
  662ERGO    R510350  16.421  11.503   9.238  0.0271  0.1294  0.0238
  662ERGO    C110351  16.382  11.673   8.899  0.0670  0.2417  0.0749
  662ERGO    C210352  16.341  11.676   8.582  0.4154 -0.2673  0.0101
  663ERGO   ROH10353  15.734   9.488  10.075  0.0240  0.0357  0.0438
  663ERGO    R110354  15.770   9.587   9.813  0.0399  0.0570  0.0531
  663ERGO    R210355  16.008   9.557   9.673  0.0054 -0.0535  0.0105
  663ERGO    R310356  15.845   9.448   9.485 -0.0865  0.0644  0.0213
  663ERGO    R410357  16.071   9.557   9.334  0.0352 -0.1933  0.0164
  663ERGO    R510358  15.860   9.598   9.299  0.0785  0.0079 -0.0111
  663ERGO    C110359  15.955   9.454   8.959 -0.0338 -0.1638  0.0299
  663ERGO    C210360  15.957   9.513   8.619 -0.0971  0.0011  0.2296
  664ERGO   ROH10361   7.891   9.386  10.015  0.2572 -0.1879  0.0214
  664ERGO    R110362   7.931   9.300   9.748 -0.0129 -0.2260 -0.0092
  664ERGO    R210363   7.725   9.283   9.565 -0.1303  0.1756  0.0768
  664ERGO    R310364   7.887   9.442   9.416  0.1002 -0.0953  0.0301
  664ERGO    R410365   7.737   9.284   9.219 -0.1312  0.0613  0.0754
  664ERGO    R510366   7.953   9.303   9.232 -0.0983 -0.2457  0.0671
  664ERGO    C110367   7.896   9.434   8.878  0.0846 -0.2594  0.0308
  664ERGO    C210368   7.864   9.464   8.619  0.1169  0.1359 -0.0018
  665ERGO   ROH10369  17.147   9.204  10.211 -0.1321 -0.0232  0.0628
  665ERGO    R110370  17.292   9.126   9.981 -0.1259  0.0095  0.0562
  665ERGO    R210371  17.214   8.914   9.821 -0.1564  0.0745 -0.0104
  665ERGO    R310372  17.228   9.101   9.624 -0.0920  0.1255  0.0409
  665ERGO    R410373  17.208   8.846   9.482 -0.2536  0.1708 -0.0292
  665ERGO    R510374  17.360   8.998   9.453 -0.1749  0.1005 -0.0119
  665ERGO    C110375  17.217   8.981   9.100 -0.2495  0.2748  0.0082
  665ERGO    C210376  17.212   8.940   8.681  0.1892 -0.0815 -0.1669
  666ERGO   ROH10377   4.782   3.870  10.194 -0.2008  0.2564  0.1443
  666ERGO    R110378   4.699   3.981   9.947 -0.0759  0.1778  0.0640
  666ERGO    R210379   4.877   4.096   9.769  0.0436 -0.0263  0.0322
  666ERGO    R310380   4.766   3.920   9.595 -0.0308 -0.0587  0.1149
  666ERGO    R410381   4.864   4.138   9.426 -0.2935 -0.0122  0.0450
  666ERGO    R510382   4.662   4.056   9.428 -0.2456 -0.1034  0.2198
  666ERGO    C110383   4.752   3.996   9.063 -0.5596 -0.0343  0.1302
  666ERGO    C210384   4.734   4.067   8.711 -0.3639  0.0925 -0.1099
  667ERGO   ROH10385   8.530  16.189   9.957  0.0333 -0.0123 -0.0009
  667ERGO    R110386   8.479  16.339   9.722  0.0015  0.0241  0.0275
  667ERGO    R210387   8.653  16.342   9.506 -0.0534  0.0081 -0.0268
  667ERGO    R310388   8.431  16.267   9.369 -0.1104  0.0667  0.0362
  667ERGO    R410389   8.640  16.287   9.166 -0.1336 -0.1886  0.0076
  667ERGO    R510390   8.446  16.385   9.162 -0.0636 -0.0732 -0.0327
  667ERGO    C110391   8.423  16.185   8.838 -0.2338 -0.2482  0.0870
  667ERGO    C210392   8.483  16.180   8.608  0.2234  0.1280 -0.3987
  668ERGO   ROH10393  12.471  15.259  10.446  0.1510 -0.2444  0.1740
  668ERGO    R110394  12.569  15.181  10.192  0.0678  0.0180  0.0574
  668ERGO    R210395  12.462  14.970  10.049  0.2510 -0.0668  0.0388
  668ERGO    R310396  12.438  15.157   9.854 -0.1640  0.0026  0.1474
  668ERGO    R410397  12.467  14.903   9.710  0.1760  0.1246 -0.0010
  668ERGO    R510398  12.586  15.083   9.682 -0.1332  0.3394  0.0243
  668ERGO    C110399  12.447  15.040   9.329 -0.2574  0.3013  0.0777
  668ERGO    C210400  12.460  15.024   9.014 -0.1647  0.2594 -0.0439
  669ERGO   ROH10401   2.080  12.987  10.241 -0.0306 -0.2530  0.0015
  669ERGO    R110402   2.195  12.919   9.991  0.0231 -0.0391 -0.0338
  669ERGO    R210403   2.085  12.730   9.823  0.2197 -0.1092 -0.0842
  669ERGO    R310404   2.096  12.933   9.641 -0.0273 -0.0343 -0.0201
  669ERGO    R410405   2.078  12.689   9.480  0.3694 -0.0246 -0.0979
  669ERGO    R510406   2.229  12.845   9.463  0.1518  0.2065 -0.0126
  669ERGO    C110407   2.085  12.855   9.110  0.2247  0.0950 -0.0460
  669ERGO    C210408   2.074  12.913   8.774 -0.0409  0.0033  0.0096
  670ERGO   ROH10409   7.693   7.067   9.696 -0.1247  0.0046  0.1371
  670ERGO    R110410   7.751   6.938   9.451 -0.2022 -0.1023  0.1741
  670ERGO    R210411   7.558   6.889   9.259 -0.1791  0.2385  0.0563
  670ERGO    R310412   7.732   7.021   9.097  0.1605 -0.0650  0.1592
  670ERGO    R410413   7.555   6.877   8.913 -0.0923  0.3648  0.0510
  670ERGO    R510414   7.773   6.870   8.916 -0.0990 -0.0949  0.1218
  670ERGO    C110415   7.717   6.995   8.560  0.2771  0.1534  0.1444
  670ERGO    C210416   7.730   6.970   8.194  0.1813 -0.0255  0.2885
  671ERGO   ROH10417  14.613  16.977  10.021 -0.0488  0.2378 -0.0015
  671ERGO    R110418  14.461  16.960   9.784  0.0202 -0.0188 -0.0322
  671ERGO    R210419  14.376  17.184   9.646 -0.3869 -0.1513 -0.0119
  671ERGO    R310420  14.500  17.063   9.437 -0.1108  0.1147 -0.0086
  671ERGO    R410421  14.270  17.202   9.317 -0.4663 -0.4335 -0.0034
  671ERGO    R510422  14.320  16.991   9.295  0.0369 -0.3299  0.0154
  671ERGO    C110423  14.325  17.099   8.929 -0.2533 -0.3482  0.0046
  671ERGO    C210424  14.129  17.083   8.618  0.1339  0.2608  0.2060
  672ERGO   ROH10425   5.933   7.479   9.922  0.0462  0.0747  0.0404
  672ERGO    R110426   6.051   7.402   9.676 -0.0815  0.0111 -0.0026
  672ERGO    R210427   5.915   7.255   9.486 -0.2138  0.0400  0.0625
  672ERGO    R310428   5.987   7.460   9.323 -0.2090  0.0033  0.0198
  672ERGO    R410429   5.934   7.236   9.141 -0.1985 -0.0308  0.0677
  672ERGO    R510430   6.116   7.356   9.149 -0.2029 -0.0298  0.0480
  672ERGO    C110431   6.012   7.418   8.787 -0.1851 -0.1064  0.0306
  672ERGO    C210432   6.008   7.368   8.417  0.0154  0.4404  0.0155
  673ERGO   ROH10433  12.160   9.677  10.200 -0.1972  0.0244 -0.0514
  673ERGO    R110434  12.068   9.638   9.934 -0.1327  0.0496 -0.0782
  673ERGO    R210435  12.046   9.846   9.752 -0.0053  0.0548 -0.0931
  673ERGO    R310436  12.203   9.685   9.600 -0.0151 -0.0059 -0.0383
  673ERGO    R410437  12.119   9.899   9.419  0.1017 -0.0004 -0.0783
  673ERGO    R510438  12.098   9.686   9.385  0.0452  0.0064 -0.0652
  673ERGO    C110439  12.309   9.779   9.081  0.1549 -0.0896 -0.0185
  673ERGO    C210440  12.356   9.753   8.785 -0.1467 -0.1051  0.3700
  674PSPI    C110441  10.869  15.798   5.901  0.0986 -0.1031  0.2059
  674PSPI    C210442  10.947  15.623   5.550 -0.2124  0.1711 -0.0070
  674PSPI    C310443  11.130  15.965   5.648  0.0873 -0.0505  0.2286
  674PSPI   PO410444  10.895  15.528   6.097 -0.0298 -0.0638 -0.3215
  674PSPI   GL110445  10.855  15.345   6.544 -0.1066  0.1175 -0.1050
  674PSPI   GL210446  10.530  15.343   6.516 -0.1566  0.1142 -0.0017
  674PSPI   C1A10447  10.583  15.354   7.002 -0.1465 -0.2423 -0.4289
  674PSPI   C2A10448  10.273  15.339   7.251 -0.0704 -0.2728 -0.2767
  674PSPI   C3A10449   9.989  15.156   7.479  0.0353  0.1778 -0.1159
  674PSPI   C4A10450   9.810  14.919   7.669  0.0486 -0.2097 -0.0781
  674PSPI   C1B10451  10.314  14.975   6.764  0.2284  0.4743 -0.0161
  674PSPI   C2B10452  10.258  14.877   7.146 -0.0796 -0.4596 -0.0402
  674PSPI   C3B10453  10.380  14.865   7.548 -0.2132 -0.1670 -0.2635
  674PSPI   C4B10454  10.432  14.844   8.050  0.1762  0.1922 -0.1934
  675PSPI    C110455   2.333  10.068   5.893  0.1461 -0.0379  0.0483
  675PSPI    C210456   2.545   9.756   5.761  0.0492  0.0356 -0.2888
  675PSPI    C310457   2.537  10.096   5.550  0.0012  0.2037 -0.0205
  675PSPI   PO410458   2.343  10.087   6.221 -0.0049 -0.2258 -0.4138
  675PSPI   GL110459   2.164   9.805   6.581 -0.2026  0.0601  0.2822
  675PSPI   GL210460   1.813   9.835   6.593 -0.0952 -0.2442  0.1389
  675PSPI   C1A10461   2.201   9.892   6.985  0.1536  0.1842  0.5994
  675PSPI   C2A10462   2.232  10.340   7.300 -0.1651 -0.2798  0.1149
  675PSPI   C3A10463   2.501  10.677   7.279  0.1825 -0.0031  0.2909
  675PSPI   C4A10464   2.332  11.004   7.419  0.0423  0.0503 -0.1612
  675PSPI   C1B10465   1.752  10.057   6.995  0.1884 -0.0055  0.0336
  675PSPI   C2B10466   1.802  10.186   7.353  0.0878 -0.1812 -0.1456
  675PSPI   C3B10467   1.966  10.306   7.709  0.1117 -0.1140  0.0593
  675PSPI   C4B10468   2.330  10.599   7.792  0.2334 -0.0425  0.2633
  676PSPI    C110469   3.207  14.971   5.878  0.0324 -0.0130  0.0886
  676PSPI    C210470   3.505  15.210   5.999  0.0363  0.0375 -0.0192
  676PSPI    C310471   3.419  15.179   5.609 -0.1800  0.1189  0.0206
  676PSPI   PO410472   3.054  14.939   6.092 -0.0518  0.1010  0.1418
  676PSPI   GL110473   2.810  14.932   6.515 -0.0488 -0.1501  0.3167
  676PSPI   GL210474   2.979  14.611   6.534 -0.0623  0.0564  0.0402
  676PSPI   C1A10475   2.736  15.128   6.995 -0.0870  0.1559  0.2067
  676PSPI   C2A10476   2.590  15.311   7.428 -0.1925 -0.0444  0.0312
  676PSPI   C3A10477   2.325  15.592   7.778 -0.1943  0.0763 -0.1114
  676PSPI   C4A10478   2.303  15.569   8.208 -0.0307  0.1006 -0.1163
  676PSPI   C1B10479   3.185  14.995   6.816  0.1179  0.0975  0.4051
  676PSPI   C2B10480   3.288  15.071   7.277 -0.2400  0.3423 -0.0634
  676PSPI   C3B10481   3.224  14.990   7.640 -0.0207  0.3129  0.0309
  676PSPI   C4B10482   3.020  14.950   8.089 -0.0689  0.0650  0.2122
  677PSPI    C110483  17.971   3.497   6.521  0.3499 -0.2373 -0.1261
  677PSPI    C210484  17.865   3.267   6.211 -0.0130 -0.1289 -0.0880
  677PSPI    C310485  17.669   3.237   6.559 -0.0508  0.2190 -0.0753
  677PSPI   PO410486  18.181   3.514   6.551  0.0604 -0.0943  0.0605
  677PSPI   GL110487  18.414   3.303   6.952 -0.2280  0.0539 -0.0634
  677PSPI   GL210488  18.061   3.294   7.011  0.2767 -0.0583  0.1142
  677PSPI   C1A10489  18.710   3.130   7.296 -0.0263 -0.3495  0.3234
  677PSPI   C2A10490  18.892   3.055   7.759 -0.1591 -0.0167  0.1653
  677PSPI   C3A10491  18.763   3.019   8.117 -0.0902 -0.1127  0.3450
  677PSPI   C4A10492  18.949   3.162   8.486  0.3251 -0.0572  0.0004
  677PSPI   C1B10493  18.054   3.288   7.411 -0.1023  0.1472 -0.2001
  677PSPI   C2B10494  18.106   3.186   7.779 -0.0469 -0.2493 -0.3548
  677PSPI   C3B10495  18.285   3.124   8.160 -0.0949  0.0781 -0.2073
  677PSPI   C4B10496  18.479   3.073   8.575  0.1021  0.1088  0.2330
  678PSPI    C110497   9.171   2.360   5.575 -0.0985  0.0676  0.1254
  678PSPI    C210498   8.849   2.326   5.340 -0.0522  0.4164  0.0064
  678PSPI    C310499   9.213   2.351   5.178  0.0639 -0.2050  0.1462
  678PSPI   PO410500   9.154   2.419   5.888 -0.3554  0.0429  0.0585
  678PSPI   GL110501   9.000   2.374   6.291  0.1857 -0.0038  0.3023
  678PSPI   GL210502   8.996   2.041   6.366  0.2120 -0.1035  0.0110
  678PSPI   C1A10503   9.145   2.396   6.710  0.0985 -0.1408  0.1139
  678PSPI   C2A10504   9.189   2.220   7.072  0.2949 -0.2348 -0.0904
  678PSPI   C3A10505   9.404   2.071   7.469  0.1940 -0.0582 -0.0669
  678PSPI   C4A10506   9.572   2.223   7.835 -0.0515  0.1929  0.0786
  678PSPI   C1B10507   8.791   1.857   6.737  0.3577  0.0411 -0.1235
  678PSPI   C2B10508   8.599   1.802   7.186 -0.0526 -0.2468 -0.1264
  678PSPI   C3B10509   8.381   1.531   7.364 -0.0846 -0.0273  0.1551
  678PSPI   C4B10510   8.319   1.413   7.740 -0.3673  0.2572 -0.3582
  679PSPI    C110511   4.405   2.009   6.076 -0.1983 -0.0174  0.0759
  679PSPI    C210512   4.407   1.644   5.911 -0.2160  0.0629 -0.1037
  679PSPI    C310513   4.140   1.917   5.791 -0.0790  0.1968 -0.1069
  679PSPI   PO410514   4.340   1.932   6.355 -0.1744 -0.0927 -0.0201
  679PSPI   GL110515   4.400   1.869   6.785 -0.0214 -0.1918  0.0249
  679PSPI   GL210516   4.638   2.039   6.777 -0.1042  0.3209  0.1319
  679PSPI   C1A10517   4.583   1.729   7.154  0.0170  0.0935  0.2471
  679PSPI   C2A10518   4.564   1.662   7.632  0.1110  0.2218  0.1607
  679PSPI   C3A10519   4.611   1.807   7.941  0.0170 -0.1243 -0.4468
  679PSPI   C4A10520   4.487   1.841   8.432  0.3224 -0.0622  0.1025
  679PSPI   C1B10521   4.865   2.304   7.051  0.0469  0.0996  0.0519
  679PSPI   C2B10522   5.138   2.570   7.305 -0.2101  0.0279  0.2839
  679PSPI   C3B10523   5.339   2.726   7.622 -0.2735 -0.0117 -0.1201
  679PSPI   C4B10524   5.708   2.687   7.994  0.0515 -0.0701 -0.1074
  680PSPI    C110525  16.867  11.493   5.546  0.0286  0.0369 -0.1449
  680PSPI    C210526  17.220  11.306   5.525 -0.0182 -0.0391 -0.2690
  680PSPI    C310527  17.188  11.689   5.412  0.0114 -0.0505 -0.3164
  680PSPI   PO410528  16.830  11.441   5.903  0.3449 -0.3051  0.3325
  680PSPI   GL110529  16.550  11.140   6.074  0.1059  0.0500  0.1046
  680PSPI   GL210530  16.459  10.825   6.247  0.1917  0.0562  0.0990
  680PSPI   C1A10531  16.720  11.100   6.571  0.3710 -0.3979  0.4545
  680PSPI   C2A10532  16.697  10.898   6.885  0.0379  0.3210 -0.0197
  680PSPI   C3A10533  16.713  10.500   7.203 -0.2362  0.2112 -0.2496
  680PSPI   C4A10534  16.869  10.305   7.506 -0.0113 -0.0981 -0.0245
  680PSPI   C1B10535  16.228  10.791   6.633  0.1492 -0.0932 -0.2648
  680PSPI   C2B10536  16.301  10.787   7.122 -0.1726 -0.1438 -0.0939
  680PSPI   C3B10537  16.577  10.899   7.494 -0.0314  0.0591 -0.0889
  680PSPI   C4B10538  16.552  10.502   7.853 -0.2530 -0.1184 -0.0798
  681PSPI    C110539   4.463  16.972   6.318  0.1156  0.0249  0.1077
  681PSPI    C210540   4.516  17.172   5.976  0.0183  0.3372  0.2716
  681PSPI    C310541   4.653  17.324   6.320  0.0652  0.0529  0.3815
  681PSPI   PO410542   4.130  16.913   6.257 -0.0119  0.0652 -0.1779
  681PSPI   GL110543   3.954  16.608   6.608  0.0456 -0.0070  0.0240
  681PSPI   GL210544   4.004  16.256   6.479  0.0767  0.0933 -0.2431
  681PSPI   C1A10545   3.917  16.719   6.983 -0.3173  0.1174 -0.0396
  681PSPI   C2A10546   3.917  16.835   7.408 -0.1769 -0.0771 -0.0931
  681PSPI   C3A10547   3.947  17.043   7.721  0.2509 -0.2044 -0.2162
  681PSPI   C4A10548   4.155  17.442   7.851 -0.0596 -0.1422 -0.2512
  681PSPI   C1B10549   3.758  16.217   6.860  0.1550 -0.0252  0.3130
  681PSPI   C2B10550   3.389  15.878   7.077 -0.0489 -0.0244  0.0926
  681PSPI   C3B10551   3.462  15.571   7.368 -0.2184  0.0138  0.1586
  681PSPI   C4B10552   3.493  15.558   7.792 -0.2519 -0.1010 -0.2108
  682PSPI    C110553  12.241   3.800   4.944 -0.1329 -0.0279  0.1146
  682PSPI    C210554  12.101   4.157   5.058  0.0104  0.1293 -0.1893
  682PSPI    C310555  11.940   3.970   4.743 -0.0159 -0.0425 -0.0755
  682PSPI   PO410556  12.184   3.678   5.170  0.1989 -0.0141 -0.1093
  682PSPI   GL110557  12.422   3.545   5.581  0.3002  0.0950  0.0470
  682PSPI   GL210558  12.736   3.460   5.742 -0.1602 -0.1186 -0.0269
  682PSPI   C1A10559  12.346   3.252   5.956  0.0197  0.2208  0.1858
  682PSPI   C2A10560  12.108   3.298   6.416 -0.2683  0.1462 -0.0193
  682PSPI   C3A10561  11.798   3.433   6.624  0.0924  0.0242  0.0136
  682PSPI   C4A10562  11.627   3.718   6.953 -0.3924 -0.1251 -0.0113
  682PSPI   C1B10563  12.781   3.289   6.159  0.0100 -0.0363  0.0264
  682PSPI   C2B10564  13.023   3.441   6.555 -0.1098  0.2125  0.0575
  682PSPI   C3B10565  13.110   3.367   6.943  0.0047  0.0040  0.1401
  682PSPI   C4B10566  13.266   3.076   7.278 -0.1595  0.0844  0.0268
  683PSPI    C110567   1.499  16.524   5.818  0.0112 -0.1983  0.0725
  683PSPI    C210568   1.426  16.131   5.834  0.1185 -0.2364 -0.2823
  683PSPI    C310569   1.197  16.369   5.607 -0.0694 -0.0588  0.0838
  683PSPI   PO410570   1.482  16.689   6.049  0.3703  0.4602 -0.0115
  683PSPI   GL110571   1.303  16.892   6.383 -0.4000  0.0033  0.1249
  683PSPI   GL210572   1.604  16.825   6.629  0.2359 -0.0087  0.1078
  683PSPI   C1A10573   1.139  16.908   6.790 -0.1265  0.0361  0.1023
  683PSPI   C2A10574   1.161  17.002   7.250  0.0099 -0.0818  0.4393
  683PSPI   C3A10575   1.106  16.920   7.645  0.1042  0.1487  0.2574
  683PSPI   C4A10576   0.944  16.819   8.062 -0.0841  0.0664 -0.0241
  683PSPI   C1B10577   1.518  16.542   6.950 -0.1268  0.0605 -0.3357
  683PSPI   C2B10578   1.904  16.318   7.169 -0.0952 -0.2357  0.2633
  683PSPI   C3B10579   2.287  16.470   7.206 -0.4246  0.0971  0.0386
  683PSPI   C4B10580   2.636  16.306   7.376  0.3053  0.1422  0.2039
  684PSPI    C110581  14.849  10.191   5.434  0.2466  0.0263 -0.0821
  684PSPI    C210582  14.776  10.563   5.306  0.0573  0.0073 -0.0317
  684PSPI    C310583  14.523  10.266   5.215  0.1451 -0.0865  0.0283
  684PSPI   PO410584  14.935  10.277   5.700 -0.2439  0.1045 -0.1383
  684PSPI   GL110585  15.030  10.418   6.066  0.2152 -0.4066 -0.0299
  684PSPI   GL210586  15.132  10.729   6.162  0.0015  0.0495  0.0069
  684PSPI   C1A10587  14.950  10.249   6.510  0.5186  0.0773 -0.2900
  684PSPI   C2A10588  14.993  10.256   6.909 -0.0020 -0.0896 -0.0471
  684PSPI   C3A10589  15.349  10.441   7.189 -0.3725 -0.1815 -0.1456
  684PSPI   C4A10590  15.596  10.459   7.680 -0.0537  0.0625 -0.1448
  684PSPI   C1B10591  15.365  10.892   6.554  0.3786  0.2442 -0.1434
  684PSPI   C2B10592  15.368  10.952   6.995  0.1380 -0.3076 -0.1812
  684PSPI   C3B10593  15.314  10.858   7.382  0.0879 -0.0047 -0.0633
  684PSPI   C4B10594  15.308  10.873   7.794 -0.1022  0.2893  0.3543
  685PSPI    C110595  14.854   0.215   5.541 -0.2301  0.0225  0.1251
  685PSPI    C210596  14.579   0.447   5.367 -0.0944  0.1102  0.0254
  685PSPI    C310597  14.563   0.050   5.321 -0.2323  0.1108  0.0610
  685PSPI   PO410598  14.926   0.319   5.823  0.1083  0.1058  0.1441
  685PSPI   GL110599  14.847   0.181   6.277 -0.1151  0.0826  0.0378
  685PSPI   GL210600  15.069   0.045   6.465 -0.1345 -0.0490  0.1339
  685PSPI   C1A10601  14.520   0.107   6.513  0.0339 -0.2225  0.1747
  685PSPI   C2A10602  14.369   0.088   6.900  0.0237  0.0487  0.2340
  685PSPI   C3A10603  14.180  -0.165   7.237  0.3159  0.1322  0.1007
  685PSPI   C4A10604  14.264  -0.192   7.601 -0.1665  0.1244 -0.1004
  685PSPI   C1B10605  14.823  -0.069   6.867 -0.1626  0.2298 -0.1338
  685PSPI   C2B10606  14.786  -0.139   7.244 -0.3179  0.1608  0.2384
  685PSPI   C3B10607  15.154  -0.183   7.494 -0.0434 -0.0571  0.1104
  685PSPI   C4B10608  15.288  -0.480   7.760 -0.3965  0.0104  0.1338
  686PSPI    C110609   2.560   7.068   6.385  0.1092  0.1773 -0.0048
  686PSPI    C210610   2.293   6.885   6.150  0.1932  0.1725 -0.0972
  686PSPI    C310611   2.642   6.707   6.234  0.1207  0.1283  0.1173
  686PSPI   PO410612   2.650   7.286   6.250  0.2603  0.3263  0.2464
  686PSPI   GL110613   3.031   7.497   6.369  0.2851  0.1405 -0.0380
  686PSPI   GL210614   2.978   7.816   6.202  0.0222  0.1457 -0.2211
  686PSPI   C1A10615   2.910   7.500   6.819 -0.0321  0.0783 -0.0287
  686PSPI   C2A10616   2.854   7.250   7.162  0.1146 -0.0583 -0.3378
  686PSPI   C3A10617   3.077   7.046   7.509 -0.1311  0.1084 -0.0149
  686PSPI   C4A10618   3.191   7.215   7.809 -0.2553 -0.1428 -0.2734
  686PSPI   C1B10619   2.673   7.815   6.567 -0.0577  0.1510  0.1321
  686PSPI   C2B10620   2.449   7.977   6.850 -0.0015 -0.0506  0.0337
  686PSPI   C3B10621   2.422   8.002   7.397  0.1549  0.2853 -0.1039
  686PSPI   C4B10622   2.470   8.135   7.828 -0.0485 -0.5013  0.2076
  687PSPI    C110623  10.910   5.871   5.210 -0.3399 -0.2552  0.0005
  687PSPI    C210624  11.078   5.516   5.134  0.0943 -0.0749  0.0899
  687PSPI    C310625  11.087   5.805   4.857 -0.0569 -0.0575  0.1022
  687PSPI   PO410626  11.015   5.899   5.453 -0.1157 -0.0019 -0.0544
  687PSPI   GL110627  10.867   5.976   5.822 -0.3766  0.0243 -0.2586
  687PSPI   GL210628  10.729   6.170   5.962  0.1387  0.3070  0.0376
  687PSPI   C1A10629  10.882   5.875   6.335  0.0029  0.0534  0.0721
  687PSPI   C2A10630  11.111   5.665   6.733  0.0765 -0.0059  0.0352
  687PSPI   C3A10631  11.142   5.732   7.119 -0.1273  0.1131  0.3847
  687PSPI   C4A10632  11.215   5.744   7.547  0.2864  0.2492  0.0988
  687PSPI   C1B10633  10.321   6.140   6.176 -0.4210  0.3011  0.0250
  687PSPI   C2B10634  10.319   5.888   6.519  0.0714 -0.1791 -0.2555
  687PSPI   C3B10635  10.489   5.680   6.942  0.1325 -0.0340  0.2904
  687PSPI   C4B10636  10.537   5.365   7.211  0.0531 -0.2823 -0.0681
  688PSPI    C110637  12.956   7.179   5.365 -0.0900 -0.1999  0.1036
  688PSPI    C210638  13.150   6.886   5.173 -0.0102 -0.0202 -0.0938
  688PSPI    C310639  13.081   7.235   4.989 -0.1032  0.0866  0.1396
  688PSPI   PO410640  13.077   7.160   5.629 -0.1918 -0.2199  0.0153
  688PSPI   GL110641  13.092   6.981   6.026 -0.0874 -0.3871  0.1328
  688PSPI   GL210642  13.143   7.319   6.105  0.1467 -0.2405 -0.0924
  688PSPI   C1A10643  13.067   6.802   6.396 -0.0464  0.1446  0.2408
  688PSPI   C2A10644  13.018   6.600   6.787  0.1992  0.0431 -0.1090
  688PSPI   C3A10645  13.066   6.242   7.100  0.1246  0.0260 -0.0102
  688PSPI   C4A10646  13.155   5.785   7.119 -0.1511  0.1516 -0.0290
  688PSPI   C1B10647  13.106   7.339   6.539 -0.0466  0.0599  0.3705
  688PSPI   C2B10648  13.103   7.427   6.978 -0.2164 -0.3377  0.0380
  688PSPI   C3B10649  13.194   7.505   7.403  0.1251  0.0309  0.1955
  688PSPI   C4B10650  13.428   7.801   7.794  0.2420 -0.1958 -0.2275
  689PSPI    C110651   7.946   4.220   5.544  0.1859  0.0160 -0.1680
  689PSPI    C210652   7.594   4.343   5.398  0.0695  0.3072  0.3369
  689PSPI    C310653   7.929   4.396   5.185 -0.2017 -0.1155 -0.2185
  689PSPI   PO410654   7.979   4.348   5.789  0.0078  0.1453 -0.3434
  689PSPI   GL110655   8.032   4.142   6.231  0.1836  0.1269  0.2529
  689PSPI   GL210656   8.352   4.188   6.328 -0.0832 -0.1524  0.0301
  689PSPI   C1A10657   7.813   3.953   6.582  0.1458  0.1260 -0.0117
  689PSPI   C2A10658   7.685   4.132   6.993 -0.0773 -0.1091  0.1401
  689PSPI   C3A10659   7.422   4.349   7.306 -0.1962  0.1030 -0.0562
  689PSPI   C4A10660   7.111   4.646   7.303  0.1951  0.0798  0.3220
  689PSPI   C1B10661   8.427   4.016   6.675 -0.2903  0.1030  0.0079
  689PSPI   C2B10662   8.619   3.739   6.985  0.0363  0.3130  0.3368
  689PSPI   C3B10663   8.972   3.617   7.288  0.0376 -0.0368  0.1679
  689PSPI   C4B10664   9.319   3.543   7.601 -0.3677  0.0439  0.1552
  690PSPI    C110665   1.070   2.887   6.426  0.2232  0.2843  0.3616
  690PSPI    C210666   1.103   3.256   6.275  0.2408  0.2150  0.1934
  690PSPI    C310667   1.256   2.945   6.076 -0.1933  0.0571  0.0940
  690PSPI   PO410668   1.112   3.027   6.747 -0.0757  0.3727  0.3116
  690PSPI   GL110669   1.413   3.013   6.972  0.0868  0.0125  0.1212
  690PSPI   GL210670   1.550   2.689   7.060 -0.0981  0.0041  0.0093
  690PSPI   C1A10671   1.294   3.203   7.310  0.3014 -0.0373  0.3063
  690PSPI   C2A10672   1.302   3.108   7.703 -0.0844 -0.1189  0.0523
  690PSPI   C3A10673   1.522   3.085   8.118 -0.1534  0.1422  0.0329
  690PSPI   C4A10674   1.721   3.232   8.452  0.0491  0.0608 -0.2042
  690PSPI   C1B10675   1.722   2.954   7.400 -0.3239 -0.1037  0.5165
  690PSPI   C2B10676   1.848   3.177   7.700 -0.0046 -0.0120 -0.2548
  690PSPI   C3B10677   2.034   3.310   8.083  0.2251 -0.0277 -0.0504
  690PSPI   C4B10678   2.431   3.383   8.267  0.3052 -0.0722 -0.2399
  691PSPI    C110679   7.693  11.802   6.024  0.0849 -0.0754 -0.0611
  691PSPI    C210680   7.954  11.662   5.755  0.0773 -0.4155  0.1031
  691PSPI    C310681   7.575  11.534   5.752 -0.0825  0.0425 -0.1057
  691PSPI   PO410682   7.785  12.030   6.102 -0.1913 -0.4406  0.2892
  691PSPI   GL110683   7.960  12.108   6.483  0.0451 -0.0903 -0.2787
  691PSPI   GL210684   7.976  11.931   6.628  0.0203 -0.0890  0.1436
  691PSPI   C1A10685   7.910  12.404   6.881  0.1641  0.0970  0.2297
  691PSPI   C2A10686   7.935  12.756   7.183 -0.0711 -0.0431 -0.4104
  691PSPI   C3A10687   7.933  12.802   7.599  0.1095  0.1223  0.1897
  691PSPI   C4A10688   8.103  12.768   8.070 -0.2817  0.1409  0.0917
  691PSPI   C1B10689   7.921  11.942   7.087  0.3915  0.4501 -0.1665
  691PSPI   C2B10690   7.822  11.998   7.504  0.1907  0.2180 -0.0555
  691PSPI   C3B10691   7.966  12.315   7.820  0.3017  0.0283 -0.0732
  691PSPI   C4B10692   7.624  12.674   8.003 -0.0449  0.1928  0.2148
  692PSPI    C110693  16.814   6.507   5.807 -0.0713 -0.0091 -0.3166
  692PSPI    C210694  16.968   6.323   6.127  0.1094  0.2308 -0.2629
  692PSPI    C310695  16.959   6.136   5.774 -0.3189 -0.1318 -0.0690
  692PSPI   PO410696  16.964   6.712   5.788  0.3582 -0.2557  0.0798
  692PSPI   GL110697  17.133   6.821   6.269  0.2355  0.2391 -0.0265
  692PSPI   GL210698  16.852   6.924   6.389 -0.0669 -0.2379 -0.0599
  692PSPI   C1A10699  17.423   6.796   6.620  0.0568  0.1811  0.1978
  692PSPI   C2A10700  17.447   6.748   7.017  0.3597  0.2459 -0.0374
  692PSPI   C3A10701  17.333   6.712   7.466 -0.1926 -0.0287  0.3700
  692PSPI   C4A10702  17.056   6.489   7.794  0.0743  0.0067 -0.2280
  692PSPI   C1B10703  16.952   6.631   6.760 -0.3276 -0.2304 -0.3062
  692PSPI   C2B10704  16.973   6.439   7.210 -0.2260  0.1470 -0.0373
  692PSPI   C3B10705  16.635   6.250   7.567 -0.3696  0.3006  0.1268
  692PSPI   C4B10706  16.475   6.277   7.961  0.0517 -0.0105 -0.0487
  693POPI    C110707  10.082  16.679   6.014  0.1500 -0.0199 -0.0047
  693POPI    C210708  10.126  16.730   5.620  0.0263  0.0368 -0.0114
  693POPI    C310709   9.826  16.911   5.813  0.0144 -0.0880  0.0884
  693POPI   PO410710  10.081  16.415   6.095 -0.0620  0.1396 -0.0331
  693POPI   GL110711  10.198  16.268   6.377  0.1385 -0.3137 -0.3142
  693POPI   GL210712  10.057  16.516   6.724 -0.0900  0.2787 -0.0047
  693POPI   C1A10713  10.434  16.206   6.810 -0.1498  0.0439 -0.2762
  693POPI   D2A10714  10.777  16.277   7.085 -0.1288  0.1677  0.2112
  693POPI   C3A10715  10.848  16.364   7.467  0.2600  0.0724  0.3437
  693POPI   C4A10716  10.994  16.625   7.718  0.1022 -0.4226  0.1681
  693POPI   C1B10717   9.911  16.470   7.141 -0.1185  0.0684 -0.2581
  693POPI   C2B10718   9.770  16.150   7.363  0.0771 -0.0974 -0.0952
  693POPI   C3B10719   9.421  15.859   7.525  0.1116 -0.0902 -0.2327
  693POPI   C4B10720   9.317  15.775   7.975  0.1351 -0.2112  0.2956
  694POPI    C110721   5.430   3.245   5.959 -0.1177 -0.1334  0.0028
  694POPI    C210722   5.071   3.253   6.135 -0.1575  0.2849 -0.0860
  694POPI    C310723   5.098   3.247   5.736 -0.0648  0.2066 -0.0789
  694POPI   PO410724   5.530   3.270   6.256 -0.1460  0.0320 -0.4605
  694POPI   GL110725   5.568   3.107   6.675  0.1263  0.2039 -0.3519
  694POPI   GL210726   5.879   3.092   6.695  0.1928 -0.0397  0.1125
  694POPI   C1A10727   5.678   3.129   7.163  0.3393  0.0993 -0.0185
  694POPI   D2A10728   5.600   3.261   7.588 -0.1322  0.0950  0.0842
  694POPI   C3A10729   5.862   3.422   7.767  0.2455 -0.1386  0.1145
  694POPI   C4A10730   6.330   3.474   7.876  0.0747  0.4191  0.2275
  694POPI   C1B10731   6.189   3.063   6.982  0.0693 -0.0975 -0.0402
  694POPI   C2B10732   6.261   2.695   7.204 -0.2410 -0.0577  0.2097
  694POPI   C3B10733   6.378   2.489   7.566 -0.1582  0.0017 -0.1759
  694POPI   C4B10734   6.143   2.488   7.885  0.1169  0.1978  0.0268
  695POPI    C110735   0.022   2.944   6.504 -0.2707  0.2913  0.1678
  695POPI    C210736  -0.196   2.611   6.470  0.0535  0.0722  0.1864
  695POPI    C310737  -0.049   2.788   6.143 -0.1680  0.2344  0.1719
  695POPI   PO410738   0.184   2.841   6.660  0.0891  0.0432  0.0374
  695POPI   GL110739   0.138   2.831   7.132 -0.4463 -0.0590  0.1060
  695POPI   GL210740   0.424   2.630   7.149 -0.0042 -0.0341  0.0790
  695POPI   C1A10741   0.144   2.865   7.528 -0.2467 -0.0480  0.3410
  695POPI   D2A10742   0.192   2.746   7.884  0.1719 -0.5446  0.0780
  695POPI   C3A10743  -0.108   2.656   8.158  0.2271 -0.1021  0.2662
  695POPI   C4A10744  -0.129   2.722   8.501 -0.1300  0.1635  0.2325
  695POPI   C1B10745   0.605   2.622   7.555 -0.0939 -0.2606  0.3540
  695POPI   C2B10746   0.785   2.598   7.969 -0.0216  0.3889  0.0070
  695POPI   C3B10747   1.061   2.869   8.283  0.1487  0.0960 -0.0168
  695POPI   C4B10748   1.328   2.824   8.572  0.0220 -0.1082 -0.0033
  696POPI    C110749  17.590   8.430   5.824  0.0325 -0.0311  0.1305
  696POPI    C210750  17.711   8.745   5.609  0.0173  0.0155  0.1903
  696POPI    C310751  17.910   8.399   5.586  0.0402  0.0324  0.1325
  696POPI   PO410752  17.572   8.473   6.095 -0.1302  0.0239 -0.3670
  696POPI   GL110753  17.664   8.136   6.430  0.0896  0.4486 -0.1616
  696POPI   GL210754  17.797   7.842   6.454  0.1216  0.1252 -0.1927
  696POPI   C1A10755  17.731   8.099   6.956 -0.3393  0.1086  0.0245
  696POPI   D2A10756  17.579   8.037   7.262  0.1937 -0.0184  0.0254
  696POPI   C3A10757  17.134   8.074   7.454  0.0334  0.0205  0.2294
  696POPI   C4A10758  16.886   8.271   7.740  0.1949 -0.1619 -0.3021
  696POPI   C1B10759  17.985   7.687   6.829 -0.0793 -0.1234  0.1997
  696POPI   C2B10760  17.843   7.636   7.229  0.0447  0.3182 -0.1415
  696POPI   C3B10761  17.818   7.509   7.607  0.2720 -0.0261 -0.2603
  696POPI   C4B10762  17.657   7.342   7.902 -0.2368 -0.2056 -0.0491
  697POPI    C110763   5.985   1.277   5.856  0.0168  0.0371 -0.1217
  697POPI    C210764   5.723   1.148   5.582 -0.0874 -0.1805  0.0767
  697POPI    C310765   6.093   0.996   5.593 -0.0567 -0.1117  0.0056
  697POPI   PO410766   5.740   1.401   6.031  0.2239 -0.0035  0.0062
  697POPI   GL110767   5.541   1.253   6.403 -0.1833  0.0079  0.0594
  697POPI   GL210768   5.193   1.497   6.365 -0.1629  0.0304  0.1987
  697POPI   C1A10769   5.586   1.542   6.805 -0.2883  0.0721 -0.2633
  697POPI   D2A10770   5.759   1.884   7.044 -0.0973 -0.0741  0.0617
  697POPI   C3A10771   5.986   1.743   7.427  0.2477  0.0621 -0.1605
  697POPI   C4A10772   6.292   1.829   7.660 -0.1155  0.5481  0.1665
  697POPI   C1B10773   5.132   1.748   6.835  0.2091  0.1236 -0.0960
  697POPI   C2B10774   5.062   1.885   7.267  0.0928  0.0649 -0.1792
  697POPI   C3B10775   4.994   2.093   7.704 -0.0639 -0.0631 -0.3346
  697POPI   C4B10776   5.408   2.284   7.914  0.3679 -0.1530  0.0756
  698POPI    C110777  11.654   9.639   5.808  0.0028  0.1339  0.1514
  698POPI    C210778  11.927   9.708   5.524 -0.1193  0.3130  0.0759
  698POPI    C310779  11.600   9.937   5.547 -0.2988  0.0561  0.1213
  698POPI   PO410780  11.740   9.596   5.973 -0.2657  0.1981  0.1026
  698POPI   GL110781  11.807   9.766   6.340  0.1159 -0.3826  0.2803
  698POPI   GL210782  11.610   9.990   6.551 -0.3547  0.3601  0.1497
  698POPI   C1A10783  12.151   9.798   6.627 -0.0648  0.0658 -0.3147
  698POPI   D2A10784  12.259   9.797   7.071 -0.0936 -0.0073 -0.1666
  698POPI   C3A10785  12.432   9.584   7.279 -0.0437  0.2373 -0.1102
  698POPI   C4A10786  12.472   9.117   7.383  0.0188 -0.0272 -0.3377
  698POPI   C1B10787  11.701   9.799   6.928 -0.1140  0.3138  0.1470
  698POPI   C2B10788  11.875   9.598   7.331 -0.1430  0.2069  0.1023
  698POPI   C3B10789  11.733   9.528   7.791 -0.1530  0.0322  0.0948
  698POPI   C4B10790  11.638   9.363   8.299 -0.2968  0.3092 -0.0246
  699POPI    C110791  11.138  14.000   5.592  0.1718 -0.0966 -0.2276
  699POPI    C210792  10.855  13.719   5.621  0.0514  0.0481  0.0326
  699POPI    C310793  11.015  13.806   5.264 -0.1532 -0.1110 -0.1003
  699POPI   PO410794  11.335  13.849   5.829  0.1398  0.2376  0.0443
  699POPI   GL110795  11.473  13.493   6.066 -0.3064  0.0612 -0.0074
  699POPI   GL210796  11.845  13.490   6.213  0.5342 -0.3581 -0.0481
  699POPI   C1A10797  11.453  13.519   6.508 -0.2393  0.1916 -0.2461
  699POPI   D2A10798  11.629  13.281   6.908  0.1805 -0.3903  0.1467
  699POPI   C3A10799  11.977  13.228   7.114  0.1682 -0.2066  0.3418
  699POPI   C4A10800  12.355  13.162   7.259 -0.2081 -0.0522 -0.0353
  699POPI   C1B10801  11.996  13.409   6.624  0.1046  0.0291  0.0138
  699POPI   C2B10802  12.049  13.685   7.030 -0.1770  0.3367  0.3061
  699POPI   C3B10803  12.000  14.071   7.310  0.0810  0.2263  0.0884
  699POPI   C4B10804  11.980  14.446   7.550  0.1474  0.2479 -0.0106
  700POPI    C110805   6.506   5.846   5.727 -0.2345  0.0504  0.1483
  700POPI    C210806   6.354   5.580   5.469 -0.1125 -0.0377  0.1667
  700POPI    C310807   6.651   5.822   5.355 -0.1844  0.0517  0.1677
  700POPI   PO410808   6.284   5.887   5.901  0.0577 -0.1424 -0.1277
  700POPI   GL110809   6.209   5.923   6.313 -0.1030  0.3754  0.2766
  700POPI   GL210810   6.140   6.188   6.259  0.2176 -0.1640  0.1410
  700POPI   C1A10811   6.288   5.899   6.763 -0.1715  0.0977 -0.0533
  700POPI   D2A10812   6.168   6.164   7.197 -0.0843  0.0113 -0.1017
  700POPI   C3A10813   6.389   6.059   7.576  0.1665 -0.0181  0.0056
  700POPI   C4A10814   6.629   6.107   7.917 -0.2540  0.1292  0.4007
  700POPI   C1B10815   6.451   6.369   6.507 -0.1382  0.0859  0.0186
  700POPI   C2B10816   6.596   6.254   6.902  0.0484 -0.4764 -0.0202
  700POPI   C3B10817   6.609   6.434   7.271  0.0238  0.0133 -0.3755
  700POPI   C4B10818   6.561   6.636   7.763  0.0724 -0.0528  0.2882
  701POPI    C110819   6.019  14.054   6.128 -0.2777 -0.2556 -0.0784
  701POPI    C210820   5.676  14.233   6.026 -0.1856 -0.0103  0.0338
  701POPI    C310821   6.018  14.337   5.845 -0.1401 -0.1163  0.0581
  701POPI   PO410822   5.995  14.065   6.364 -0.0553  0.0758  0.1073
  701POPI   GL110823   5.975  13.628   6.602  0.1417  0.0271  0.0864
  701POPI   GL210824   5.791  13.873   6.813 -0.0555  0.0577  0.2060
  701POPI   C1A10825   6.242  13.737   6.956  0.1907 -0.2192 -0.2211
  701POPI   D2A10826   6.274  13.941   7.331 -0.0930  0.1191  0.0587
  701POPI   C3A10827   6.075  13.768   7.633  0.0672 -0.1068 -0.2279
  701POPI   C4A10828   6.056  13.755   8.159  0.1518 -0.2372  0.0925
  701POPI   C1B10829   5.799  13.792   7.149 -0.1722  0.0989  0.1414
  701POPI   C2B10830   5.525  13.964   7.515  0.0616  0.2646  0.0840
  701POPI   C3B10831   5.607  13.997   7.903  0.1101  0.0811  0.1198
  701POPI   C4B10832   5.570  14.258   8.239 -0.0312 -0.2427  0.4236
  702POPI    C110833  17.283  17.035   5.790  0.0905 -0.0543  0.1307
  702POPI    C210834  17.488  17.266   5.536 -0.0849 -0.0081  0.0296
  702POPI    C310835  17.508  16.868   5.504 -0.1126 -0.0025 -0.0622
  702POPI   PO410836  17.345  17.204   6.057 -0.0268 -0.1724  0.2799
  702POPI   GL110837  17.260  17.300   6.457 -0.1783 -0.1212  0.1366
  702POPI   GL210838  16.927  17.212   6.357  0.5696  0.1485  0.2517
  702POPI   C1A10839  17.505  17.661   6.565 -0.0038  0.1612 -0.0203
  702POPI   D2A10840  17.643  17.602   6.979 -0.0103 -0.1943 -0.2577
  702POPI   C3A10841  18.009  17.792   7.137 -0.2168 -0.2896 -0.1018
  702POPI   C4A10842  18.417  17.538   7.098 -0.1216 -0.0600  0.1046
  702POPI   C1B10843  16.876  16.922   6.708 -0.1193  0.1847 -0.3209
  702POPI   C2B10844  16.722  17.007   7.175 -0.0855  0.0212  0.1447
  702POPI   C3B10845  16.840  17.414   7.438  0.3244 -0.1645  0.0439
  702POPI   C4B10846  16.974  17.821   7.504 -0.5969 -0.1781 -0.0789
  703POPI    C110847   8.714   3.715   5.203  0.0776  0.0368 -0.1202
  703POPI    C210848   9.017   3.789   4.953  0.3146 -0.0102  0.1479
  703POPI    C310849   8.897   3.412   5.016  0.2948 -0.0032  0.1516
  703POPI   PO410850   8.821   3.862   5.448  0.3387 -0.0226 -0.0300
  703POPI   GL110851   9.018   3.879   5.823  0.0263  0.1127 -0.1891
  703POPI   GL210852   8.878   4.138   5.976  0.0003  0.2958  0.3981
  703POPI   C1A10853   9.349   3.993   6.044  0.3173 -0.0209 -0.1685
  703POPI   D2A10854   9.691   4.363   6.136  0.1420 -0.3185 -0.1417
  703POPI   C3A10855   9.805   4.476   6.482 -0.2464 -0.0012 -0.4350
  703POPI   C4A10856   9.925   4.290   6.836  0.1193  0.1926 -0.1514
  703POPI   C1B10857   8.962   4.052   6.446  0.0894 -0.1865 -0.0398
  703POPI   C2B10858   8.950   4.115   6.862 -0.0736 -0.2496 -0.2884
  703POPI   C3B10859   8.769   4.173   7.226 -0.0077  0.0385  0.1054
  703POPI   C4B10860   8.521   3.844   7.500 -0.0110  0.1314  0.1624
  704POPI    C110861  14.058  11.003   5.412  0.1698  0.1204  0.2085
  704POPI    C210862  14.424  10.914   5.278  0.2066  0.3129  0.1782
  704POPI    C310863  14.309  11.296   5.307 -0.2084  0.2438 -0.3981
  704POPI   PO410864  13.874  10.850   5.572 -0.1122  0.0479  0.1414
  704POPI   GL110865  13.710  10.649   6.135  0.0144 -0.1646 -0.1604
  704POPI   GL210866  14.002  10.779   6.033 -0.0569 -0.0053  0.0642
  704POPI   C1A10867  13.461  10.675   6.539 -0.6877  0.6238 -0.1120
  704POPI   D2A10868  13.355  10.646   7.004  0.0238 -0.1188  0.0861
  704POPI   C3A10869  13.081  10.901   7.296  0.1916  0.0724  0.0955
  704POPI   C4A10870  13.033  10.995   7.729 -0.2693  0.4432  0.1152
  704POPI   C1B10871  13.999  10.812   6.624 -0.0465  0.1744  0.2011
  704POPI   C2B10872  13.923  10.855   7.075 -0.3036  0.2234  0.3108
  704POPI   C3B10873  13.658  10.771   7.409 -0.2219 -0.2263 -0.2431
  704POPI   C4B10874  13.471  11.157   7.571 -0.1174  0.0925  0.0579
  705POPI    C110875  16.908   4.904   6.233 -0.0167 -0.0042 -0.0901
  705POPI    C210876  17.153   4.735   6.500  0.1289  0.1992 -0.0929
  705POPI    C310877  17.299   4.874   6.154 -0.0545 -0.0372 -0.2688
  705POPI   PO410878  16.685   4.642   6.262  0.3651 -0.0616 -0.0020
  705POPI   GL110879  16.611   4.174   6.373 -0.1366 -0.3994  0.1365
  705POPI   GL210880  16.284   4.144   6.370 -0.1175 -0.1199 -0.0956
  705POPI   C1A10881  16.696   4.253   6.788  0.2208 -0.1694 -0.1797
  705POPI   D2A10882  16.899   4.080   7.226 -0.0552  0.2198 -0.1039
  705POPI   C3A10883  17.075   4.303   7.537  0.1113 -0.3501  0.0006
  705POPI   C4A10884  17.269   4.637   7.917 -0.0188  0.0736  0.0438
  705POPI   C1B10885  16.319   3.940   6.737  0.3118 -0.0995  0.0001
  705POPI   C2B10886  16.157   4.012   7.108  0.0378 -0.1884  0.2097
  705POPI   C3B10887  15.928   3.936   7.467 -0.0506 -0.2062  0.1019
  705POPI   C4B10888  15.927   3.585   7.812 -0.0894  0.0691  0.0194
  706POPI    C110889   8.515  12.975   5.884  0.2170 -0.1526 -0.0896
  706POPI    C210890   8.724  13.283   5.737  0.0283  0.0739  0.1103
  706POPI    C310891   8.409  13.140   5.536 -0.0002  0.1373  0.1095
  706POPI   PO410892   8.738  12.769   5.955  0.4085  0.1117 -0.1586
  706POPI   GL110893   8.640  12.637   6.369 -0.1905  0.1028 -0.1430
  706POPI   GL210894   8.765  12.897   6.544 -0.1795 -0.0814  0.0455
  706POPI   C1A10895   8.350  12.808   6.869  0.1328 -0.0041  0.2175
  706POPI   D2A10896   8.391  12.965   7.288 -0.0164 -0.2293 -0.2970
  706POPI   C3A10897   8.696  12.763   7.452  0.0045  0.0255 -0.0779
  706POPI   C4A10898   8.969  12.479   7.724  0.0597 -0.1575  0.2568
  706POPI   C1B10899   8.933  13.142   6.925 -0.0943  0.1489  0.1668
  706POPI   C2B10900   9.012  13.354   7.340 -0.0807  0.0907  0.1715
  706POPI   C3B10901   9.158  13.442   7.722 -0.0663 -0.0704 -0.0971
  706POPI   C4B10902   9.195  13.779   8.045 -0.0888 -0.0020 -0.0982
  707POPI    C110903   2.248  11.851   5.884 -0.0630  0.1442 -0.1510
  707POPI    C210904   2.621  11.964   5.977 -0.0107 -0.2214  0.1060
  707POPI    C310905   2.557  11.723   5.664 -0.0331 -0.1580  0.0614
  707POPI   PO410906   2.218  11.649   6.213  0.1004 -0.1131  0.0246
  707POPI   GL110907   2.171  11.557   6.679 -0.1830  0.0946  0.0791
  707POPI   GL210908   1.971  11.708   6.652 -0.2214  0.2157 -0.2133
  707POPI   C1A10909   1.728  11.289   6.782 -0.1772  0.0124  0.1293
  707POPI   D2A10910   1.645  10.803   6.690 -0.0347 -0.1722  0.1274
  707POPI   C3A10911   1.820  10.737   7.063  0.1913 -0.1244 -0.2931
  707POPI   C4A10912   1.863  10.776   7.547 -0.0359  0.1437  0.2387
  707POPI   C1B10913   1.484  11.726   6.764  0.2415 -0.0750  0.2713
  707POPI   C2B10914   1.243  11.876   7.088  0.1240  0.2978  0.1937
  707POPI   C3B10915   0.989  12.034   7.397 -0.0979  0.2850  0.4436
  707POPI   C4B10916   0.919  12.599   7.413  0.2422  0.1136  0.3396
  708POPI    C110917  11.390  18.121   5.689  0.0066 -0.0012 -0.4647
  708POPI    C210918  11.425  18.511   5.768 -0.0161 -0.0929  0.0284
  708POPI    C310919  11.635  18.348   5.469  0.0926  0.2699 -0.0987
  708POPI   PO410920  11.475  17.943   5.921  0.0418 -0.1257 -0.1368
  708POPI   GL110921  11.597  18.012   6.367  0.0611  0.0418  0.2107
  708POPI   GL210922  11.423  18.322   6.198  0.1237  0.4694  0.1277
  708POPI   C1A10923  11.507  18.309   6.651  0.0896 -0.0813  0.2353
  708POPI   D2A10924  11.433  18.640   6.987 -0.0762 -0.0828 -0.0051
  708POPI   C3A10925  11.243  18.462   7.323  0.1444 -0.2299  0.2911
  708POPI   C4A10926  11.158  18.237   7.516 -0.2562 -0.2314  0.1042
  708POPI   C1B10927  11.043  18.462   6.361  0.1135  0.2261  0.2469
  708POPI   C2B10928  10.907  18.810   6.562  0.3971  0.0139 -0.0278
  708POPI   C3B10929  10.948  18.806   7.044 -0.0053  0.1294  0.0392
  708POPI   C4B10930  10.682  18.963   7.427  0.1219  0.2322  0.0242
  709POPI    C110931   3.592  14.419   5.975 -0.0262 -0.0762  0.0052
  709POPI    C210932   3.838  14.721   5.881  0.0250 -0.0933  0.0843
  709POPI    C310933   3.529  14.634   5.643 -0.0231  0.0582  0.0909
  709POPI   PO410934   3.626  14.353   6.337  0.1115 -0.1577 -0.1529
  709POPI   GL110935   3.350  14.379   6.755  0.2158  0.1396 -0.3683
  709POPI   GL210936   3.511  14.071   6.862  0.1322  0.2290  0.2023
  709POPI   C1A10937   3.215  14.588   7.142  0.2016 -0.1872 -0.0232
  709POPI   D2A10938   3.126  14.463   7.511  0.0617  0.3986  0.0923
  709POPI   C3A10939   2.847  14.301   7.562 -0.0354  0.0381 -0.4849
  709POPI   C4A10940   2.666  13.899   7.591  0.1873 -0.2792 -0.1694
  709POPI   C1B10941   3.485  14.094   7.374  0.2168  0.0986  0.1452
  709POPI   C2B10942   3.444  14.249   7.802 -0.0777  0.1844  0.2847
  709POPI   C3B10943   3.569  14.393   8.250 -0.1054 -0.0888 -0.2834
  709POPI   C4B10944   3.795  14.476   8.536  0.1714 -0.3832  0.0057
  710POPI    C110945  13.266   7.645   5.367  0.1947 -0.0452 -0.0206
  710POPI    C210946  13.057   7.986   5.363  0.0222 -0.1469  0.1647
  710POPI    C310947  12.996   7.711   5.079  0.1795 -0.0141  0.0008
  710POPI   PO410948  13.521   7.758   5.475 -0.0296  0.2224  0.1794
  710POPI   GL110949  13.422   8.027   5.870  0.2359 -0.1101 -0.0276
  710POPI   GL210950  13.128   7.822   5.800 -0.2785  0.3594  0.1856
  710POPI   C1A10951  13.482   8.196   6.285 -0.3762 -0.0543  0.0509
  710POPI   D2A10952  13.662   8.421   6.664  0.1519  0.0429  0.1343
  710POPI   C3A10953  13.222   8.409   6.796 -0.1979  0.0575 -0.0668
  710POPI   C4A10954  13.089   8.380   7.225  0.1432 -0.0114  0.0136
  710POPI   C1B10955  13.231   7.801   6.326  0.1174 -0.1594  0.1873
  710POPI   C2B10956  13.040   7.960   6.700  0.1631 -0.4669  0.0120
  710POPI   C3B10957  12.955   7.894   7.178 -0.3522  0.0499  0.1582
  710POPI   C4B10958  12.839   7.810   7.541 -0.1146 -0.0691  0.1669
  711POPI    C110959   6.530  16.999   6.140  0.1577  0.1729  0.1148
  711POPI    C210960   6.591  16.832   5.782  0.3403  0.2908  0.0898
  711POPI    C310961   6.292  17.093   5.833  0.1988  0.1339  0.0709
  711POPI   PO410962   6.793  16.898   6.276  0.0541  0.3335  0.0459
  711POPI   GL110963   6.862  16.890   6.703 -0.0272  0.1619 -0.0473
  711POPI   GL210964   6.647  16.965   6.914 -0.1730 -0.3267  0.1178
  711POPI   C1A10965   7.127  17.188   6.949 -0.1083 -0.1706 -0.3790
  711POPI   D2A10966   7.295  17.046   7.283 -0.1266  0.0208  0.0068
  711POPI   C3A10967   7.148  16.633   7.548 -0.0855 -0.0493  0.1710
  711POPI   C4A10968   6.942  16.422   7.871 -0.0611  0.3155  0.0955
  711POPI   C1B10969   6.728  16.774   7.316  0.1526  0.0240 -0.1781
  711POPI   C2B10970   6.555  16.604   7.595  0.0608 -0.1698  0.2447
  711POPI   C3B10971   6.445  16.380   7.999 -0.0316 -0.1848  0.0867
  711POPI   C4B10972   6.368  16.041   8.308 -0.0600  0.1074 -0.1438
  712POPI    C110973   5.619  16.031   6.241 -0.1410 -0.1385 -0.0197
  712POPI    C210974   5.616  16.427   6.180  0.0294 -0.1825 -0.3319
  712POPI    C310975   5.950  16.216   6.113 -0.0285 -0.3657 -0.0626
  712POPI   PO410976   5.392  16.074   6.524 -0.0434 -0.1191  0.2452
  712POPI   GL110977   5.170  15.729   6.883  0.2689 -0.1619  0.2536
  712POPI   GL210978   4.938  15.479   7.012  0.1200  0.1134  0.0119
  712POPI   C1A10979   5.379  16.008   7.219  0.0680 -0.3588 -0.4168
  712POPI   D2A10980   5.415  16.144   7.644 -0.1049  0.3567 -0.0447
  712POPI   C3A10981   5.005  16.043   7.815  0.0704 -0.0965 -0.0146
  712POPI   C4A10982   4.942  16.019   8.318 -0.5426 -0.3199  0.0019
  712POPI   C1B10983   5.172  15.222   7.331  0.1989  0.3739 -0.0014
  712POPI   C2B10984   5.584  15.187   7.313  0.1295  0.1471  0.1534
  712POPI   C3B10985   6.030  15.167   7.236 -0.1772  0.2480  0.0496
  712POPI   C4B10986   6.159  15.510   6.934 -0.0424 -0.2008 -0.0494
  713POPI    C110987   5.123  11.979   5.999 -0.1661  0.1047  0.0008
  713POPI    C210988   4.724  11.992   5.976 -0.1589  0.0577 -0.1632
  713POPI    C310989   4.926  12.303   6.125 -0.2628  0.0399  0.0179
  713POPI   PO410990   5.147  11.747   6.019 -0.0119  0.0049 -0.0070
  713POPI   GL110991   5.158  11.583   6.453 -0.1564  0.2778 -0.2375
  713POPI   GL210992   4.887  11.814   6.525  0.1689  0.2169 -0.0942
  713POPI   C1A10993   5.291  11.515   6.864 -0.2477  0.0386  0.3349
  713POPI   D2A10994   5.411  11.411   7.290  0.3415  0.1638  0.1148
  713POPI   C3A10995   5.619  11.559   7.577 -0.3218  0.1805  0.0748
  713POPI   C4A10996   6.008  11.664   7.705 -0.0398 -0.2039 -0.0334
  713POPI   C1B10997   4.912  11.779   7.025 -0.3404 -0.1563  0.2451
  713POPI   C2B10998   4.904  11.720   7.356 -0.3570  0.0752  0.1342
  713POPI   C3B10999   4.741  11.991   7.636  0.2355 -0.1178 -0.2492
  713POPI   C4B11000   4.652  12.026   8.097  0.1098 -0.2027  0.1159
  714POPI    C111001   1.006   6.021   6.471 -0.0560  0.0799  0.1888
  714POPI    C211002   0.884   5.772   6.183 -0.0940  0.0119  0.2633
  714POPI    C311003   0.781   6.158   6.170  0.1367  0.0686  0.0374
  714POPI   PO411004   1.212   5.952   6.569  0.0313 -0.0582  0.1672
  714POPI   GL111005   1.438   6.268   6.906 -0.0704 -0.4295 -0.2451
  714POPI   GL211006   1.163   6.330   6.928  0.0735 -0.0451 -0.1221
  714POPI   C1A11007   1.839   6.282   7.071  0.0703 -0.0127  0.0812
  714POPI   D2A11008   1.856   6.280   7.543  0.1027 -0.2002  0.1984
  714POPI   C3A11009   2.017   6.697   7.764  0.0723  0.1212  0.0675
  714POPI   C4A11010   2.156   7.112   7.741 -0.1091 -0.1136 -0.3787
  714POPI   C1B11011   1.241   6.660   7.216  0.0133  0.0572 -0.0191
  714POPI   C2B11012   1.430   6.621   7.568  0.3306  0.0109  0.1545
  714POPI   C3B11013   1.579   7.013   7.851 -0.2122  0.0241 -0.1308
  714POPI   C4B11014   1.794   7.222   8.066 -0.0756  0.0164 -0.0032
  715POPI    C111015   5.010  17.374   5.894 -0.0627 -0.0575  0.1303
  715POPI    C211016   5.406  17.365   5.952 -0.0592 -0.3713  0.0776
  715POPI    C311017   5.205  17.708   5.996  0.2361 -0.1819 -0.0179
  715POPI   PO411018   5.001  17.073   5.979 -0.0166  0.0568 -0.1605
  715POPI   GL111019   4.955  16.932   6.321  0.0406 -0.1051  0.3162
  715POPI   GL211020   5.212  16.635   6.464 -0.2486 -0.0585 -0.0039
  715POPI   C1A11021   4.881  17.154   6.731  0.1347  0.0671 -0.2673
  715POPI   D2A11022   4.906  17.585   6.819 -0.0551 -0.0969  0.1693
  715POPI   C3A11023   4.846  17.917   7.122 -0.3791  0.0582  0.2854
  715POPI   C4A11024   4.785  18.131   7.545  0.0702  0.2160  0.0323
  715POPI   C1B11025   5.259  16.823   6.787  0.0761 -0.2552 -0.0206
  715POPI   C2B11026   5.329  17.224   7.050 -0.0313 -0.1791 -0.0849
  715POPI   C3B11027   5.187  17.558   7.224  0.1331 -0.0794 -0.2403
  715POPI   C4B11028   5.111  17.794   7.565 -0.2233 -0.3749 -0.2927
  716POPI    C111029  12.947  17.946   5.355 -0.2046  0.1315  0.0396
  716POPI    C211030  13.256  18.016   5.599  0.0538 -0.3437 -0.1391
  716POPI    C311031  13.315  17.990   5.204 -0.2410 -0.2982 -0.1882
  716POPI   PO411032  12.762  17.782   5.535 -0.0839  0.2267  0.2218
  716POPI   GL111033  12.940  17.683   5.931 -0.1435  0.3931 -0.1348
  716POPI   GL211034  12.995  17.291   6.013 -0.2446 -0.3565  0.0460
  716POPI   C1A11035  13.054  17.802   6.393 -0.1770  0.0486  0.0232
  716POPI   D2A11036  12.881  18.153   6.713  0.0236  0.3417  0.1154
  716POPI   C3A11037  12.787  17.980   7.055  0.1196  0.6751  0.0939
  716POPI   C4A11038  12.711  17.608   7.335  0.2268 -0.2550 -0.0234
  716POPI   C1B11039  12.990  17.330   6.420  0.0463  0.2857  0.0217
  716POPI   C2B11040  13.005  17.584   6.839 -0.0152  0.0027 -0.5707
  716POPI   C3B11041  13.235  17.679   7.228 -0.1301 -0.0170 -0.0622
  716POPI   C4B11042  12.957  17.935   7.544 -0.0291 -0.0794 -0.0832
  717POPI    C111043  14.440   6.779   5.344 -0.0625  0.0250  0.0172
  717POPI    C211044  14.811   6.830   5.484 -0.0359 -0.3001  0.0737
  717POPI    C311045  14.752   6.750   5.096 -0.0857  0.2450 -0.0400
  717POPI   PO411046  14.243   6.511   5.604  0.2540 -0.5441  0.1671
  717POPI   GL111047  14.466   6.376   5.964  0.1289  0.2290 -0.2869
  717POPI   GL211048  14.446   6.039   5.990  0.3709  0.0452 -0.1247
  717POPI   C1A11049  14.371   6.576   6.362 -0.1427  0.1298 -0.0177
  717POPI   D2A11050  14.266   6.704   6.755  0.0406 -0.0364  0.1104
  717POPI   C3A11051  14.319   6.420   7.085  0.0049 -0.1275 -0.3200
  717POPI   C4A11052  14.445   6.399   7.494  0.1200  0.2075  0.1276
  717POPI   C1B11053  14.545   6.110   6.389 -0.0512 -0.0347  0.5418
  717POPI   C2B11054  14.540   6.082   6.781 -0.2048 -0.0756 -0.2408
  717POPI   C3B11055  14.417   5.929   7.311 -0.0756  0.0177  0.0362
  717POPI   C4B11056  14.238   5.908   7.731  0.1232  0.2480 -0.0370
  718POPI    C111057   9.568   5.251   5.526 -0.0372 -0.0677  0.1374
  718POPI    C211058   9.260   5.452   5.369 -0.1109 -0.2481  0.0485
  718POPI    C311059   9.625   5.487   5.209 -0.0634  0.0426  0.2143
  718POPI   PO411060   9.425   5.070   5.756  0.1506  0.2503  0.2448
  718POPI   GL111061   9.155   4.849   6.090 -0.0999 -0.2258 -0.0237
  718POPI   GL211062   8.847   5.028   6.226  0.0972  0.3389  0.0788
  718POPI   C1A11063   9.157   4.462   6.308 -0.0397  0.2337 -0.2220
  718POPI   D2A11064   9.461   4.141   6.511 -0.1026  0.1477 -0.0590
  718POPI   C3A11065   9.735   3.944   6.405  0.0417 -0.4415  0.0477
  718POPI   C4A11066   9.886   3.747   6.002  0.0941  0.0599 -0.2645
  718POPI   C1B11067   8.970   4.900   6.653  0.1570 -0.1337  0.0683
  718POPI   C2B11068   9.191   5.044   6.962 -0.0909 -0.3370  0.1872
  718POPI   C3B11069   9.417   4.998   7.252  0.1172 -0.0123  0.3993
  718POPI   C4B11070   9.698   5.029   7.523 -0.3550  0.0852  0.0216
  719POPI    C111071   6.600  10.157   5.732  0.0721 -0.1962  0.0177
  719POPI    C211072   6.457   9.856   5.510 -0.3196 -0.1056  0.1389
  719POPI    C311073   6.331  10.230   5.444  0.0560  0.0156  0.0849
  719POPI   PO411074   6.489  10.127   6.035 -0.0447  0.0289  0.0868
  719POPI   GL111075   6.421   9.748   6.352 -0.1327  0.1240 -0.0887
  719POPI   GL211076   6.414   9.405   6.296  0.5126 -0.0352  0.1868
  719POPI   C1A11077   6.269   9.730   6.777  0.1408  0.1579 -0.1178
  719POPI   D2A11078   6.077   9.598   7.219  0.0638 -0.0078 -0.1950
  719POPI   C3A11079   6.229   9.499   7.557  0.3802  0.0080  0.2474
  719POPI   C4A11080   6.238   9.299   7.913 -0.0275  0.2611 -0.0056
  719POPI   C1B11081   6.145   9.283   6.712  0.2071 -0.0477  0.1221
  719POPI   C2B11082   5.956   9.129   7.190 -0.2238  0.1198  0.1918
  719POPI   C3B11083   5.968   9.007   7.649 -0.1284 -0.1369  0.2326
  719POPI   C4B11084   6.287   8.812   7.844  0.1701 -0.0649 -0.2196
  720POPI    C111085  12.203  11.782   5.645  0.0567  0.3758 -0.0635
  720POPI    C211086  12.552  11.797   5.450  0.0530 -0.0909 -0.1180
  720POPI    C311087  12.211  11.874   5.256  0.0920 -0.0322 -0.1637
  720POPI   PO411088  12.249  11.945   5.907  0.0215  0.2192  0.1786
  720POPI   GL111089  12.201  11.799   6.355 -0.5900  0.2996  0.2320
  720POPI   GL211090  11.939  12.003   6.258 -0.1886  0.0441 -0.4315
  720POPI   C1A11091  12.192  11.708   6.792 -0.2268 -0.1000 -0.0627
  720POPI   D2A11092  11.930  11.838   7.159  0.1631 -0.1070 -0.0104
  720POPI   C3A11093  11.912  11.719   7.646  0.0379  0.0342  0.1658
  720POPI   C4A11094  11.922  11.759   8.113 -0.1415 -0.0499 -0.3143
  720POPI   C1B11095  11.729  11.879   6.643  0.1612  0.1398  0.1951
  720POPI   C2B11096  11.405  11.841   6.921  0.1068 -0.0065  0.1906
  720POPI   C3B11097  11.471  11.633   7.257  0.1704  0.0134  0.0601
  720POPI   C4B11098  11.480  11.436   7.775  0.2355 -0.0905 -0.0578
  721POPI    C111099   6.806  18.151   6.066 -0.0054 -0.0438 -0.0960
  721POPI    C211100   6.641  17.850   5.861 -0.0801 -0.0005 -0.1000
  721POPI    C311101   6.883  18.109   5.676 -0.1255  0.0225 -0.1276
  721POPI   PO411102   6.661  18.199   6.377 -0.2368  0.0390  0.3604
  721POPI   GL111103   6.556  18.532   6.636 -0.0099 -0.0220  0.0304
  721POPI   GL211104   6.247  18.425   6.612  0.1469  0.4291  0.1329
  721POPI   C1A11105   6.578  18.589   7.030  0.0243  0.4219  0.1425
  721POPI   D2A11106   6.455  18.761   7.308 -0.0831  0.0955 -0.0621
  721POPI   C3A11107   6.049  18.598   7.239 -0.0118  0.0027  0.3277
  721POPI   C4A11108   5.740  18.565   7.463 -0.1124 -0.1646 -0.0502
  721POPI   C1B11109   6.217  18.166   6.921  0.3258  0.2433 -0.2989
  721POPI   C2B11110   6.055  18.043   7.332  0.0664  0.0301 -0.0642
  721POPI   C3B11111   5.999  18.180   7.761 -0.3203  0.2011 -0.0653
  721POPI   C4B11112   5.919  18.167   8.321 -0.1128  0.4091  0.1130
  722POPI    C111113   7.196   3.372   6.017 -0.2263  0.3125  0.0931
  722POPI    C211114   7.579   3.480   5.979 -0.1662  0.0512 -0.0695
  722POPI    C311115   7.365   3.387   5.654 -0.3784  0.2260  0.0178
  722POPI   PO411116   7.215   3.119   6.169  0.0919  0.2760  0.0860
  722POPI   GL111117   7.327   3.188   6.493  0.2531  0.1211 -0.1885
  722POPI   GL211118   7.426   3.537   6.426  0.0226  0.0966  0.1063
  722POPI   C1A11119   7.244   3.363   6.896  0.1356 -0.0604  0.3173
  722POPI   D2A11120   7.341   3.202   7.274 -0.2163 -0.2900 -0.1763
  722POPI   C3A11121   7.088   3.110   7.690 -0.1750 -0.0172  0.0322
  722POPI   C4A11122   7.208   2.826   8.071  0.1145 -0.2275  0.1439
  722POPI   C1B11123   7.324   3.853   6.752 -0.1027 -0.1807 -0.0213
  722POPI   C2B11124   7.010   3.806   6.976 -0.4693  0.0736  0.4049
  722POPI   C3B11125   6.980   3.633   7.291  0.2478 -0.2397  0.1643
  722POPI   C4B11126   7.127   3.606   7.669  0.4525  0.2713 -0.2500
  723POPI    C111127  10.093   6.963   5.757 -0.0093 -0.0594  0.5156
  723POPI    C211128  10.229   7.247   6.003  0.4896  0.0758  0.1034
  723POPI    C311129  10.437   7.151   5.676 -0.0738 -0.2155 -0.1833
  723POPI   PO411130   9.814   6.988   5.857  0.1166  0.1039  0.1770
  723POPI   GL111131   9.663   7.020   6.310 -0.3131 -0.1655 -0.2659
  723POPI   GL211132   9.291   7.025   6.436  0.1351 -0.1655 -0.1822
  723POPI   C1A11133   9.715   6.787   6.638  0.0077  0.1821  0.0643
  723POPI   D2A11134   9.727   6.579   6.966 -0.5153 -0.0722 -0.0351
  723POPI   C3A11135   9.954   6.751   7.334 -0.0013 -0.0314  0.0389
  723POPI   C4A11136   9.955   6.700   7.776 -0.1404 -0.3426 -0.0224
  723POPI   C1B11137   9.247   6.676   6.743  0.0443 -0.0329 -0.2453
  723POPI   C2B11138   9.274   6.562   7.147 -0.2706 -0.3585  0.0338
  723POPI   C3B11139   8.960   6.550   7.476  0.1010 -0.0514 -0.1476
  723POPI   C4B11140   8.565   6.543   7.648 -0.2564  0.1614 -0.1727
  724POPI    C111141  10.333   6.470   5.547 -0.0964  0.0530  0.0152
  724POPI    C211142  10.601   6.216   5.393 -0.1264 -0.0502  0.1311
  724POPI    C311143  10.321   6.083   5.644 -0.4435  0.0111 -0.1817
  724POPI   PO411144  10.438   6.598   5.696 -0.0938  0.1129 -0.1265
  724POPI   GL111145  10.456   6.661   6.109  0.1264 -0.3026 -0.2937
  724POPI   GL211146  10.151   6.831   6.306 -0.2561 -0.2908 -0.3980
  724POPI   C1A11147  10.685   6.435   6.384  0.1313 -0.0721  0.4858
  724POPI   D2A11148  10.689   6.206   6.714 -0.2476 -0.2749  0.0305
  724POPI   C3A11149  10.700   6.182   7.095 -0.1479  0.0567  0.2363
  724POPI   C4A11150  10.724   5.867   7.317 -0.0370  0.0046 -0.2741
  724POPI   C1B11151  10.333   6.578   6.663 -0.1889 -0.0824 -0.0870
  724POPI   C2B11152  10.376   6.744   7.133 -0.1424 -0.0808 -0.0309
  724POPI   C3B11153  10.387   6.939   7.517 -0.3006 -0.0481  0.0042
  724POPI   C4B11154  10.186   7.182   7.744  0.1130 -0.0977 -0.0417
  725POPI    C111155  11.566   7.088   5.670 -0.0824 -0.0197 -0.1570
  725POPI    C211156  11.226   7.219   5.834  0.1963  0.3016  0.1813
  725POPI    C311157  11.356   7.376   5.490 -0.1784 -0.0828 -0.1469
  725POPI   PO411158  11.487   6.713   5.668 -0.0708 -0.2240 -0.0951
  725POPI   GL111159  11.366   6.692   6.061 -0.0954 -0.1074 -0.0556
  725POPI   GL211160  11.005   6.689   6.112 -0.0188 -0.0049  0.0627
  725POPI   C1A11161  11.577   6.768   6.361 -0.2671 -0.4078 -0.0300
  725POPI   D2A11162  11.929   6.977   6.430 -0.0491 -0.0560  0.1161
  725POPI   C3A11163  12.037   7.068   6.833 -0.0553 -0.0773 -0.0760
  725POPI   C4A11164  12.292   7.119   7.202 -0.1792 -0.0023  0.0133
  725POPI   C1B11165  11.076   6.913   6.442  0.3458  0.0342 -0.2101
  725POPI   C2B11166  11.024   7.273   6.648  0.1555 -0.0512 -0.2633
  725POPI   C3B11167  11.106   7.501   7.020  0.1028 -0.1702  0.0110
  725POPI   C4B11168  11.487   7.631   7.265  0.3518  0.1373 -0.0431
  726POPI    C111169   5.537   0.459   6.040 -0.0355 -0.2256  0.1343
  726POPI    C211170   5.191   0.335   5.883 -0.0947  0.1104 -0.0096
  726POPI    C311171   5.529   0.300   5.673 -0.0566 -0.1141  0.0861
  726POPI   PO411172   5.486   0.405   6.341 -0.0358 -0.0085 -0.1400
  726POPI   GL111173   5.686   0.469   6.755 -0.0024 -0.2057  0.0189
  726POPI   GL211174   5.767   0.853   6.620 -0.1992 -0.2647  0.3340
  726POPI   C1A11175   5.615   0.113   6.981  0.1002 -0.4328 -0.0202
  726POPI   D2A11176   5.409  -0.185   7.222 -0.1277 -0.0816 -0.0074
  726POPI   C3A11177   5.542  -0.185   7.619  0.0418  0.1172 -0.0416
  726POPI   C4A11178   5.482  -0.131   8.046  0.0491 -0.0293 -0.3645
  726POPI   C1B11179   5.929   0.807   7.007 -0.1438  0.0382 -0.1932
  726POPI   C2B11180   6.140   1.065   7.310 -0.2386  0.1385  0.0290
  726POPI   C3B11181   6.181   1.282   7.621  0.2306  0.2691 -0.1304
  726POPI   C4B11182   6.501   1.479   7.940  0.0424  0.0410  0.0059
  727POPI    C111183   3.918   9.229   5.912 -0.3140 -0.0650 -0.1619
  727POPI    C211184   4.070   9.436   5.605 -0.0422  0.0251  0.0296
  727POPI    C311185   3.905   9.076   5.542  0.2445 -0.0726 -0.1862
  727POPI   PO411186   4.121   9.312   6.147 -0.1218 -0.0508 -0.1822
  727POPI   GL111187   4.321   9.056   6.532 -0.0516 -0.1603  0.1233
  727POPI   GL211188   4.227   8.765   6.783  0.1491 -0.2683  0.2139
  727POPI   C1A11189   4.635   9.114   6.884 -0.2478 -0.0846 -0.0624
  727POPI   D2A11190   4.941   9.012   7.312  0.1167 -0.0622  0.3177
  727POPI   C3A11191   5.081   9.359   7.542 -0.0078  0.0160 -0.1009
  727POPI   C4A11192   5.278   9.684   7.892  0.2658  0.1306 -0.0626
  727POPI   C1B11193   4.345   8.868   7.220  0.2064 -0.0710  0.0363
  727POPI   C2B11194   4.067   9.024   7.459  0.3052  0.0569  0.2530
  727POPI   C3B11195   3.737   8.852   7.666  0.2946  0.0412 -0.2467
  727POPI   C4B11196   3.674   8.656   8.034 -0.0494  0.3765 -0.2434
  728POPI    C111197   1.025   0.258   6.066 -0.1530 -0.2431  0.0531
  728POPI    C211198   0.932   0.626   5.937 -0.0313 -0.2209  0.0272
  728POPI    C311199   0.757   0.306   5.773 -0.0490 -0.1806 -0.0326
  728POPI   PO411200   1.011   0.225   6.477 -0.1458  0.0752  0.1481
  728POPI   GL111201   0.641   0.112   6.767 -0.0083  0.1113  0.2315
  728POPI   GL211202   0.475   0.355   6.729 -0.3648 -0.0171  0.0708
  728POPI   C1A11203   0.697   0.094   7.163  0.0614  0.1278  0.0573
  728POPI   D2A11204   0.525   0.227   7.607  0.1513 -0.0269 -0.0042
  728POPI   C3A11205   0.747   0.039   7.866 -0.0691 -0.0745  0.1170
  728POPI   C4A11206   0.733   0.100   8.300 -0.1102  0.1486  0.1097
  728POPI   C1B11207   0.150   0.357   6.970 -0.0528 -0.3233  0.1515
  728POPI   C2B11208  -0.094   0.545   7.363 -0.3223 -0.2073 -0.1019
  728POPI   C3B11209  -0.332   0.481   7.611 -0.1565 -0.1972 -0.1670
  728POPI   C4B11210  -0.171   0.230   7.858 -0.1032  0.2776 -0.0742
  729POPI    C111211   1.380  10.004   5.825  0.1436  0.0357 -0.1592
  729POPI    C211212   1.286   9.739   5.541  0.0189 -0.0164 -0.0700
  729POPI    C311213   1.602   9.675   5.777 -0.0578 -0.1275  0.0042
  729POPI   PO411214   1.081  10.087   5.885  0.1063 -0.1083  0.2227
  729POPI   GL111215   1.058  10.059   6.309  0.2734  0.4224  0.1199
  729POPI   GL211216   1.305   9.907   6.363  0.0376  0.0313 -0.2605
  729POPI   C1A11217   0.856  10.244   6.679 -0.0947  0.1977  0.2178
  729POPI   D2A11218   0.996  10.409   7.050 -0.2099 -0.3434 -0.0216
  729POPI   C3A11219   0.738  10.455   7.408  0.1024  0.0981  0.1692
  729POPI   C4A11220   0.474  10.516   7.702 -0.3708 -0.1204  0.0268
  729POPI   C1B11221   1.266  10.026   6.774  0.0687  0.4688 -0.1126
  729POPI   C2B11222   1.319  10.093   7.243  0.1369 -0.1679 -0.0510
  729POPI   C3B11223   1.475   9.953   7.592 -0.0976 -0.1572  0.1927
  729POPI   C4B11224   1.765   9.756   8.041 -0.5186 -0.2104  0.2733
  730POPI    C111225  13.280   0.284   5.844  0.0963  0.0850  0.0966
  730POPI    C211226  13.229   0.602   6.082  0.0394  0.2372 -0.1161
  730POPI    C311227  12.911   0.402   5.943  0.0788 -0.0581  0.2058
  730POPI   PO411228  13.616   0.223   5.913 -0.1852  0.0338  0.0077
  730POPI   GL111229  13.976  -0.017   6.218  0.1370 -0.0478 -0.0366
  730POPI   GL211230  13.911   0.292   6.351  0.0864 -0.1724 -0.0890
  730POPI   C1A11231  13.646  -0.169   6.495 -0.3977 -0.0892 -0.0064
  730POPI   D2A11232  13.410  -0.157   6.860  0.1307  0.0975 -0.1538
  730POPI   C3A11233  13.203   0.014   7.155  0.3350 -0.0384  0.0734
  730POPI   C4A11234  12.960   0.379   7.114 -0.0763 -0.0131 -0.1763
  730POPI   C1B11235  13.892   0.177   6.757  0.0580 -0.0471  0.2261
  730POPI   C2B11236  13.721   0.118   7.236  0.0868 -0.1951 -0.2583
  730POPI   C3B11237  13.474  -0.181   7.536  0.1857 -0.2237 -0.0685
  730POPI   C4B11238  13.307  -0.047   7.929  0.1836 -0.2917  0.0563
  731POPI    C111239   4.233  10.330   5.984  0.2449 -0.0017 -0.0640
  731POPI    C211240   4.255  10.028   5.721 -0.0026 -0.1679  0.1018
  731POPI    C311241   4.194  10.402   5.592  0.3869 -0.1722 -0.1112
  731POPI   PO411242   4.442  10.256   6.126 -0.0313 -0.0690  0.1640
  731POPI   GL111243   4.344  10.129   6.560  0.0322 -0.1110  0.2082
  731POPI   GL211244   4.052   9.991   6.391  0.1232 -0.0340 -0.3001
  731POPI   C1A11245   4.339  10.011   7.064  0.1077  0.2558  0.1041
  731POPI   D2A11246   4.322   9.895   7.540  0.0245 -0.5503  0.0799
  731POPI   C3A11247   4.481  10.137   7.968  0.2278 -0.3091 -0.0864
  731POPI   C4A11248   4.214  10.311   8.382 -0.1203 -0.0010  0.0256
  731POPI   C1B11249   3.901   9.950   6.791  0.0270  0.2109 -0.1741
  731POPI   C2B11250   3.560  10.018   6.938 -0.2904  0.0606  0.4534
  731POPI   C3B11251   3.278   9.950   7.130  0.1010  0.0320  0.1171
  731POPI   C4B11252   3.126  10.045   7.529  0.1158  0.0478 -0.0522
  732POPI    C111253   4.529   3.512   5.815  0.1379 -0.0963 -0.0195
  732POPI    C211254   4.836   3.745   5.922  0.0414  0.1067 -0.1769
  732POPI    C311255   4.793   3.635   5.540 -0.2242  0.2936 -0.2030
  732POPI   PO411256   4.593   3.346   6.113  0.0621  0.1485  0.1377
  732POPI   GL111257   4.740   3.499   6.550  0.1052 -0.2640 -0.2106
  732POPI   GL211258   4.806   3.729   6.474  0.1096  0.1202 -0.0581
  732POPI   C1A11259   4.856   3.484   7.034  0.3404 -0.2501 -0.1949
  732POPI   D2A11260   4.916   3.668   7.404  0.0168  0.2067 -0.0201
  732POPI   C3A11261   5.110   3.494   7.697  0.0505 -0.0618 -0.3994
  732POPI   C4A11262   5.286   3.590   8.062  0.2503  0.1708  0.0975
  732POPI   C1B11263   4.886   3.963   6.744  0.2558  0.2788  0.0949
  732POPI   C2B11264   5.062   4.114   7.198  0.0701  0.0596 -0.2910
  732POPI   C3B11265   5.169   4.186   7.513  0.1086  0.0622 -0.0549
  732POPI   C4B11266   5.194   4.556   7.788 -0.0643  0.1147 -0.3601
  733POPI    C111267  17.149   3.627   6.102 -0.3059  0.0694  0.2448
  733POPI    C211268  16.939   3.287   6.119  0.0507 -0.1767 -0.0960
  733POPI    C311269  17.339   3.276   6.124  0.0664  0.2614  0.1753
  733POPI   PO411270  16.982   3.799   6.273  0.0377  0.0380  0.0554
  733POPI   GL111271  16.733   3.737   6.651 -0.0574 -0.1716 -0.0215
  733POPI   GL211272  16.521   3.548   6.501 -0.4349  0.0261  0.1125
  733POPI   C1A11273  16.663   3.708   7.064 -0.0132 -0.2364 -0.3506
  733POPI   D2A11274  16.882   3.590   7.313 -0.0608  0.1600 -0.2335
  733POPI   C3A11275  16.976   3.786   7.624  0.0179 -0.2275  0.0558
  733POPI   C4A11276  17.192   3.994   8.032  0.2192  0.3403  0.1054
  733POPI   C1B11277  16.326   3.477   6.850 -0.0263  0.1814 -0.2565
  733POPI   C2B11278  16.288   3.527   7.317  0.1392  0.1832 -0.1635
  733POPI   C3B11279  16.411   3.828   7.551 -0.0294  0.1321  0.0921
  733POPI   C4B11280  16.446   4.342   7.280  0.2090  0.0606  0.2801
  734POPI    C111281   4.654   3.032   5.730  0.4295 -0.2937  0.0073
  734POPI    C211282   4.449   2.746   5.539  0.0265 -0.0115  0.0054
  734POPI    C311283   4.762   2.921   5.361  0.0990 -0.2508 -0.1055
  734POPI   PO411284   4.755   2.852   6.036 -0.1954  0.0260 -0.0516
  734POPI   GL111285   4.575   2.953   6.432  0.0022 -0.1821  0.0007
  734POPI   GL211286   4.932   2.961   6.515 -0.2252 -0.0492  0.2064
  734POPI   C1A11287   4.559   3.167   6.858  0.1070  0.0390 -0.0143
  734POPI   D2A11288   4.340   3.333   7.187 -0.0583 -0.0580 -0.2900
  734POPI   C3A11289   4.483   3.517   7.547 -0.0268 -0.0886  0.1969
  734POPI   C4A11290   4.671   3.518   7.907 -0.2948  0.1180 -0.1609
  734POPI   C1B11291   5.107   3.027   6.842  0.3372  0.2615 -0.2435
  734POPI   C2B11292   5.189   3.178   7.298  0.1534  0.2189 -0.2637
  734POPI   C3B11293   4.919   3.060   7.636  0.2277  0.0572 -0.4136
  734POPI   C4B11294   4.911   3.121   8.095 -0.2353  0.5195  0.2058
  735POPI    C111295  15.207   6.352   5.621  0.2929 -0.0807  0.0381
  735POPI    C211296  15.267   6.607   5.319  0.1346  0.1696  0.2142
  735POPI    C311297  15.552   6.346   5.419  0.1058 -0.0679 -0.2904
  735POPI   PO411298  15.055   6.524   5.796  0.2222 -0.1902  0.0161
  735POPI   GL111299  14.843   6.845   6.133  0.1134 -0.1050  0.2538
  735POPI   GL211300  14.541   6.863   5.918  0.1932 -0.2116  0.0342
  735POPI   C1A11301  14.950   7.109   6.364 -0.1203  0.0515 -0.1123
  735POPI   D2A11302  15.318   7.167   6.662  0.1846  0.0598 -0.2498
  735POPI   C3A11303  15.332   7.386   6.998  0.0612 -0.0996  0.1543
  735POPI   C4A11304  15.399   7.753   7.229  0.2207 -0.2338 -0.2422
  735POPI   C1B11305  14.406   7.071   6.397 -0.0498 -0.1898 -0.0782
  735POPI   C2B11306  14.362   7.193   6.874  0.2420  0.0544  0.2020
  735POPI   C3B11307  14.501   6.850   7.215 -0.0286 -0.0206 -0.0845
  735POPI   C4B11308  14.887   6.729   7.446 -0.3473  0.1061 -0.0858
  736POPI    C111309   9.006   7.287   6.133 -0.0218  0.0301 -0.1325
  736POPI    C211310   9.125   7.172   5.768 -0.1243 -0.1385 -0.1139
  736POPI    C311311   9.396   7.275   6.044 -0.0393 -0.1633 -0.1877
  736POPI   PO411312   8.678   7.326   6.167  0.1765 -0.0673 -0.0003
  736POPI   GL111313   8.398   7.300   6.577 -0.3090  0.2634  0.0987
  736POPI   GL211314   8.570   7.680   6.590  0.2029 -0.0873  0.1753
  736POPI   C1A11315   8.574   7.038   6.927 -0.0244  0.0073 -0.0167
  736POPI   D2A11316   8.642   6.734   7.144 -0.1281  0.1434 -0.0924
  736POPI   C3A11317   8.771   6.362   6.985  0.0553 -0.1395  0.0449
  736POPI   C4A11318   8.660   5.950   7.013  0.2319 -0.1519  0.0600
  736POPI   C1B11319   8.304   7.879   6.875 -0.0885 -0.2484 -0.1203
  736POPI   C2B11320   8.032   7.926   7.196 -0.0169 -0.0933 -0.0242
  736POPI   C3B11321   8.100   7.997   7.626  0.0448 -0.1250 -0.1752
  736POPI   C4B11322   8.420   8.018   8.022  0.1150 -0.3769  0.1454
  737POPI    C111323   4.131  12.905   6.159 -0.0767 -0.0743  0.2178
  737POPI    C211324   3.752  12.840   6.049 -0.0271 -0.0524  0.0303
  737POPI    C311325   4.051  12.670   5.845  0.0649 -0.0624  0.1724
  737POPI   PO411326   4.117  12.998   6.350 -0.2414 -0.1275 -0.0145
  737POPI   GL111327   3.977  13.367   6.650  0.3936 -0.0868 -0.0146
  737POPI   GL211328   3.664  13.229   6.660 -0.0026 -0.4635 -0.2106
  737POPI   C1A11329   3.997  13.533   7.038  0.0510 -0.1331  0.0635
  737POPI   D2A11330   4.310  13.627   7.286  0.3309  0.0930 -0.0715
  737POPI   C3A11331   4.265  13.588   7.682  0.0446 -0.0067 -0.2046
  737POPI   C4A11332   4.511  13.556   8.061  0.0517  0.2440  0.0757
  737POPI   C1B11333   3.588  13.316   7.105  0.0850  0.0330  0.2519
  737POPI   C2B11334   3.595  13.554   7.442 -0.0036  0.1647 -0.1140
  737POPI   C3B11335   3.689  13.763   7.816 -0.0383 -0.0098  0.3951
  737POPI   C4B11336   3.600  13.938   8.150 -0.0742 -0.0385  0.1495
  738POPS   CNO11337   4.934  15.441   6.424  0.1066  0.0183 -0.0554
  738POPS   PO411338   4.688  15.037   6.647 -0.2544  0.1001 -0.1175
  738POPS   GL111339   4.844  14.956   7.026  0.0548  0.0309  0.0733
  738POPS   GL211340   4.787  14.622   6.979  0.1843 -0.0778  0.4021
  738POPS   C1A11341   4.874  14.867   7.467  0.2178  0.0554 -0.0517
  738POPS   D2A11342   4.712  14.805   7.823  0.0222  0.2860  0.2684
  738POPS   C3A11343   4.476  14.841   7.942 -0.0414 -0.1388 -0.1245
  738POPS   C4A11344   4.153  15.122   7.901  0.0330 -0.1659 -0.0278
  738POPS   C1B11345   4.641  14.377   7.192 -0.1554 -0.1864  0.0574
  738POPS   C2B11346   4.415  14.198   7.510 -0.0348 -0.0762  0.0001
  738POPS   C3B11347   4.452  14.351   7.936  0.0551 -0.2449 -0.2013
  738POPS   C4B11348   4.426  14.401   8.369  0.1067 -0.1068 -0.2506
  739POPS   CNO11349  17.110  13.616   5.759 -0.0957 -0.0694  0.0877
  739POPS   PO411350  17.262  13.737   6.167  0.2137  0.2858  0.1274
  739POPS   GL111351  17.395  13.502   6.564 -0.0463  0.0754 -0.2438
  739POPS   GL211352  17.499  13.791   6.583  0.2100  0.0686  0.1975
  739POPS   C1A11353  17.160  13.296   6.955  0.0290 -0.0580 -0.1354
  739POPS   D2A11354  17.027  13.198   7.342  0.0326 -0.0353  0.2280
  739POPS   C3A11355  17.188  12.861   7.567 -0.1606 -0.0812  0.0610
  739POPS   C4A11356  17.581  12.627   7.698  0.3153  0.3502  0.2266
  739POPS   C1B11357  17.510  13.588   7.068 -0.0303  0.6002  0.1231
  739POPS   C2B11358  17.507  13.297   7.407 -0.0227  0.1082 -0.1585
  739POPS   C3B11359  17.391  13.160   7.850  0.1005 -0.0049  0.1780
  739POPS   C4B11360  17.605  13.181   8.179 -0.0318 -0.1460  0.2193
  740POPS   CNO11361  15.000  12.127   5.351 -0.2020  0.5938 -0.1633
  740POPS   PO411362  14.801  11.899   5.738  0.1431 -0.0981 -0.1277
  740POPS   GL111363  14.511  11.916   6.060  0.1505  0.0285 -0.0852
  740POPS   GL211364  14.551  12.189   6.276 -0.0726  0.1510  0.1329
  740POPS   C1A11365  14.352  11.833   6.544  0.2231  0.1663 -0.4101
  740POPS   D2A11366  14.083  11.793   6.812 -0.2748  0.1664 -0.1001
  740POPS   C3A11367  14.280  11.794   7.199  0.0140  0.4438  0.1343
  740POPS   C4A11368  14.522  11.427   7.453  0.0311 -0.2013 -0.1052
  740POPS   C1B11369  14.507  12.316   6.740 -0.2829  0.4177 -0.0765
  740POPS   C2B11370  14.395  12.234   7.169 -0.1133  0.1140  0.2163
  740POPS   C3B11371  14.566  12.372   7.540  0.2518 -0.3132  0.0178
  740POPS   C4B11372  14.858  12.324   7.794  0.0011 -0.2342 -0.0194
  741POPS   CNO11373  14.369   4.920   5.522 -0.0585 -0.0857  0.0221
  741POPS   PO411374  14.261   4.576   5.675 -0.0249 -0.3828  0.1520
  741POPS   GL111375  14.198   4.581   6.005 -0.1206 -0.0753 -0.0780
  741POPS   GL211376  13.923   4.424   6.085  0.0452  0.0262  0.0461
  741POPS   C1A11377  14.349   4.418   6.359  0.1405 -0.3122  0.0959
  741POPS   D2A11378  14.689   4.343   6.725  0.4345 -0.0499 -0.2928
  741POPS   C3A11379  14.537   4.373   7.118  0.0126  0.1531 -0.0008
  741POPS   C4A11380  14.177   4.286   7.297 -0.0878 -0.0357  0.7084
  741POPS   C1B11381  13.979   4.873   6.310  0.0898  0.2466 -0.1471
  741POPS   C2B11382  13.788   4.920   6.723 -0.0016 -0.0910 -0.0836
  741POPS   C3B11383  13.755   4.738   7.175 -0.0602 -0.0629 -0.0862
  741POPS   C4B11384  13.993   4.639   7.580 -0.0299 -0.0288 -0.2247
  742POPS   CNO11385  16.267  16.183   5.824  0.1251 -0.2450 -0.1002
  742POPS   PO411386  16.373  16.622   5.760 -0.3878 -0.2069  0.0753
  742POPS   GL111387  16.466  16.609   6.245 -0.1516  0.1672 -0.2891
  742POPS   GL211388  16.756  16.526   6.315  0.1204  0.1491 -0.0169
  742POPS   C1A11389  16.175  16.602   6.642 -0.2342 -0.0094  0.1952
  742POPS   D2A11390  15.957  16.550   6.944  0.0886  0.2976 -0.0372
  742POPS   C3A11391  15.856  16.031   7.049  0.1356  0.0302 -0.1373
  742POPS   C4A11392  15.737  15.523   6.956 -0.3050 -0.2178  0.2709
  742POPS   C1B11393  16.746  16.405   6.621 -0.3187  0.2383  0.1954
  742POPS   C2B11394  16.583  16.541   7.034  0.0991 -0.0244 -0.1041
  742POPS   C3B11395  16.323  16.622   7.351 -0.1176  0.3552  0.1832
  742POPS   C4B11396  15.926  16.355   7.488 -0.2273 -0.1061 -0.0695
  743POPS   CNO11397  18.153  15.779   5.917  0.1615  0.0258  0.1126
  743POPS   PO411398  18.227  15.545   6.303  0.5758 -0.0149  0.1264
  743POPS   GL111399  18.614  15.726   6.439  0.0433  0.0915 -0.2237
  743POPS   GL211400  18.439  15.887   6.795  0.0724  0.0684 -0.1550
  743POPS   C1A11401  18.942  15.727   6.737 -0.0777 -0.0883  0.3154
  743POPS   D2A11402  19.232  16.062   6.692  0.1633 -0.1353 -0.0176
  743POPS   C3A11403  19.321  16.214   7.142 -0.0181 -0.1155 -0.0124
  743POPS   C4A11404  19.199  16.451   7.489  0.0715 -0.1257  0.2656
  743POPS   C1B11405  18.351  16.225   7.086  0.2088  0.0241 -0.2945
  743POPS   C2B11406  18.404  16.486   7.417  0.3510  0.2584  0.1516
  743POPS   C3B11407  18.160  16.738   7.589  0.2397 -0.3408  0.0067
  743POPS   C4B11408  17.797  16.888   7.913 -0.2089 -0.0241 -0.0865
  744POPS   CNO11409   3.768   3.515   6.066 -0.3756  0.3264  0.1736
  744POPS   PO411410   3.460   3.577   6.376 -0.1365  0.1578  0.0025
  744POPS   GL111411   3.519   3.608   6.789 -0.1611 -0.0423  0.0234
  744POPS   GL211412   3.206   3.540   7.048 -0.0610 -0.0291  0.5520
  744POPS   C1A11413   3.754   3.719   7.232  0.1154  0.2996  0.0330
  744POPS   D2A11414   4.086   3.851   7.601  0.1921 -0.1302  0.2920
  744POPS   C3A11415   4.158   3.691   7.954  0.3416  0.0676 -0.1163
  744POPS   C4A11416   4.420   3.694   8.337 -0.1951 -0.2369 -0.1398
  744POPS   C1B11417   3.236   3.942   7.359 -0.0661 -0.0888 -0.2450
  744POPS   C2B11418   3.239   4.023   7.750  0.2859 -0.0241 -0.1279
  744POPS   C3B11419   3.318   4.328   8.051  0.0250 -0.0937 -0.4501
  744POPS   C4B11420   3.575   4.618   8.252 -0.0354  0.0009  0.0723
  745POPS   CNO11421  12.027  16.983   6.117  0.4057  0.0302  0.3235
  745POPS   PO411422  11.725  17.057   5.727  0.0522  0.0488  0.0153
  745POPS   GL111423  11.608  17.255   6.117 -0.2257 -0.2792 -0.1158
  745POPS   GL211424  11.517  17.562   6.197  0.2842  0.2592 -0.2415
  745POPS   C1A11425  11.713  17.059   6.488 -0.2878 -0.3248  0.0286
  745POPS   D2A11426  11.514  16.931   6.832  0.0639  0.0825 -0.4095
  745POPS   C3A11427  11.517  16.846   7.282 -0.1025  0.2819  0.1842
  745POPS   C4A11428  11.477  16.645   7.664  0.2127 -0.1160  0.0641
  745POPS   C1B11429  11.437  17.493   6.569 -0.1611  0.2678  0.4053
  745POPS   C2B11430  11.225  17.477   6.990 -0.1419 -0.3264 -0.2845
  745POPS   C3B11431  11.066  17.735   7.212  0.0817 -0.1023 -0.0971
  745POPS   C4B11432  11.245  17.722   7.597  0.0008 -0.2631 -0.1722
  746POPS   CNO11433  13.909  12.352   5.490  0.1497 -0.1620  0.1292
  746POPS   PO411434  13.618  12.506   5.820  0.2235 -0.1993  0.1247
  746POPS   GL111435  13.629  12.611   6.214 -0.2964 -0.0735  0.0858
  746POPS   GL211436  13.509  12.973   6.319  0.0734 -0.0642 -0.0410
  746POPS   C1A11437  13.601  12.206   6.540 -0.2995 -0.3608  0.1895
  746POPS   D2A11438  13.619  11.931   6.929 -0.0499 -0.2512  0.1746
  746POPS   C3A11439  13.402  12.015   7.270  0.0497  0.1180 -0.0451
  746POPS   C4A11440  13.453  12.080   7.678 -0.2832 -0.0263 -0.1845
  746POPS   C1B11441  13.586  12.698   6.705 -0.0821 -0.1734  0.0153
  746POPS   C2B11442  13.575  12.558   7.136  0.3427 -0.3266  0.1692
  746POPS   C3B11443  13.677  12.475   7.492 -0.2403  0.1915 -0.2049
  746POPS   C4B11444  13.810  12.486   7.976 -0.0290  0.1268  0.2692
  747POPS   CNO11445   4.834  13.883   5.873  0.2169  0.0203 -0.3409
  747POPS   PO411446   4.840  13.714   6.355  0.1976 -0.1200 -0.0327
  747POPS   GL111447   4.711  13.438   6.654 -0.1512 -0.1595  0.1210
  747POPS   GL211448   4.464  13.493   6.708 -0.0283  0.2237  0.2014
  747POPS   C1A11449   4.791  13.443   7.087  0.0253  0.2871 -0.0426
  747POPS   D2A11450   4.690  13.291   7.410 -0.0323 -0.0971 -0.1318
  747POPS   C3A11451   4.911  13.301   7.683  0.1692 -0.0679  0.0873
  747POPS   C4A11452   4.881  13.262   8.131 -0.0009  0.1341  0.0643
  747POPS   C1B11453   4.355  13.115   6.977  0.3306  0.3073 -0.1223
  747POPS   C2B11454   4.180  13.165   7.375  0.2708 -0.0067  0.0458
  747POPS   C3B11455   3.997  13.149   7.773  0.1340  0.0797  0.1883
  747POPS   C4B11456   4.014  13.432   8.090  0.1336  0.0110  0.1075
  748POPS   CNO11457   2.103   0.076   5.724 -0.2137  0.1072  0.2724
  748POPS   PO411458   1.862   0.493   5.977 -0.2039 -0.0540  0.1563
  748POPS   GL111459   1.908   0.504   6.454 -0.1401  0.1087 -0.2996
  748POPS   GL211460   2.103   0.790   6.418  0.0117  0.2108 -0.1150
  748POPS   C1A11461   1.897   0.554   6.939  0.0487  0.3993 -0.0564
  748POPS   D2A11462   1.843   0.609   7.377 -0.0132 -0.0485 -0.3847
  748POPS   C3A11463   1.450   0.905   7.436  0.0156  0.2581  0.2021
  748POPS   C4A11464   1.344   1.129   7.812  0.1018  0.1690  0.6732
  748POPS   C1B11465   1.728   0.955   6.639  0.3137 -0.1118  0.3856
  748POPS   C2B11466   1.500   1.235   6.930 -0.3932  0.0478  0.0896
  748POPS   C3B11467   1.244   1.301   7.255  0.1317  0.2419  0.1041
  748POPS   C4B11468   0.860   0.996   7.200 -0.0457 -0.2372  0.1230
  749POPS   CNO11469  12.275   9.851   5.917 -0.1434 -0.0785 -0.1809
  749POPS   PO411470  12.457  10.259   5.963  0.1178  0.0066 -0.2828
  749POPS   GL111471  12.723  10.280   6.281 -0.0563  0.0251  0.3854
  749POPS   GL211472  13.007  10.216   6.054  0.0762  0.2387  0.1087
  749POPS   C1A11473  12.559  10.137   6.741  0.3007  0.0676  0.2511
  749POPS   D2A11474  12.695   9.981   7.154  0.0802  0.1611 -0.1010
  749POPS   C3A11475  12.777   9.956   7.617  0.1405 -0.2656  0.1484
  749POPS   C4A11476  12.670  10.010   8.035  0.1429 -0.1556  0.0074
  749POPS   C1B11477  13.003   9.897   6.501  0.1005 -0.0099 -0.0346
  749POPS   C2B11478  13.139   9.895   6.892 -0.0291  0.2334 -0.0698
  749POPS   C3B11479  13.490   9.916   7.174 -0.0335  0.3554  0.4324
  749POPS   C4B11480  13.554  10.041   7.598 -0.0104  0.3015 -0.1393
  750POPS   CNO11481  15.673   3.769   5.868 -0.0931  0.2452  0.4329
  750POPS   PO411482  15.228   3.749   5.811 -0.1088 -0.2245  0.1519
  750POPS   GL111483  15.405   3.774   6.252 -0.3379  0.1730 -0.0098
  750POPS   GL211484  15.428   4.004   6.318 -0.1387 -0.0973 -0.0497
  750POPS   C1A11485  15.154   3.675   6.567 -0.2502  0.0550 -0.1641
  750POPS   D2A11486  15.237   3.736   7.052  0.3147  0.1735  0.3241
  750POPS   C3A11487  15.257   3.309   7.198 -0.1498  0.1299 -0.0903
  750POPS   C4A11488  14.993   3.123   7.555 -0.1111  0.0120  0.0614
  750POPS   C1B11489  15.228   4.149   6.735  0.0861  0.0160  0.0162
  750POPS   C2B11490  15.026   4.162   7.186  0.1125 -0.1266 -0.0346
  750POPS   C3B11491  15.004   4.071   7.729  0.0680  0.1849 -0.0853
  750POPS   C4B11492  15.142   3.868   8.057 -0.2900  0.1958 -0.2262
  751POPS   CNO11493  16.639  14.515   6.230  0.2577  0.2671  0.0845
  751POPS   PO411494  16.242  14.714   6.163  0.2660  0.2463  0.1722
  751POPS   GL111495  15.885  14.857   6.440 -0.0715  0.2595 -0.1362
  751POPS   GL211496  15.684  14.548   6.506 -0.0989  0.0612  0.1000
  751POPS   C1A11497  15.622  14.969   6.762 -0.3239  0.4722  0.0644
  751POPS   D2A11498  15.598  15.122   7.168 -0.2268  0.0444  0.1994
  751POPS   C3A11499  15.898  15.012   7.520  0.2040 -0.0795 -0.2102
  751POPS   C4A11500  16.203  15.211   7.813  0.1276  0.0596 -0.1392
  751POPS   C1B11501  15.485  14.455   6.901  0.0632 -0.0395  0.0526
  751POPS   C2B11502  15.338  14.644   7.352 -0.0751 -0.1152  0.0384
  751POPS   C3B11503  15.411  14.893   7.714  0.2334 -0.1447  0.0759
  751POPS   C4B11504  15.363  15.008   8.152  0.2253 -0.0045  0.2815
  752POPS   CNO11505  14.982   8.929   5.548  0.0596 -0.3283  0.0234
  752POPS   PO411506  14.885   9.334   5.679  0.1494  0.0538 -0.2964
  752POPS   GL111507  14.877   9.462   6.038 -0.1175 -0.2003 -0.0983
  752POPS   GL211508  14.896   9.756   6.306 -0.1068  0.0645  0.1226
  752POPS   C1A11509  14.917   9.309   6.453  0.1258 -0.1341 -0.2703
  752POPS   D2A11510  14.765   9.036   6.712  0.0837 -0.0134  0.2147
  752POPS   C3A11511  14.654   9.064   7.106 -0.0165 -0.0571  0.3272
  752POPS   C4A11512  14.665   9.019   7.522  0.0078  0.3418 -0.0263
  752POPS   C1B11513  15.120   9.709   6.666 -0.1550 -0.2174  0.1636
  752POPS   C2B11514  15.099   9.762   7.122 -0.0724  0.3398 -0.1949
  752POPS   C3B11515  15.230  10.018   7.392  0.3324 -0.2005 -0.1521
  752POPS   C4B11516  15.412   9.933   7.736  0.1791 -0.2202  0.1747
  753POPS   CNO11517   9.537  12.273   6.171 -0.0990 -0.0851 -0.2485
  753POPS   PO411518   9.493  11.963   5.865 -0.0369  0.0115  0.2521
  753POPS   GL111519   9.562  11.773   6.276 -0.0530  0.2059 -0.3768
  753POPS   GL211520   9.340  11.936   6.553  0.1238 -0.1983  0.0397
  753POPS   C1A11521   9.497  11.437   6.549  0.1451  0.1230  0.0024
  753POPS   D2A11522   9.081  11.176   6.641 -0.3787 -0.0776 -0.1839
  753POPS   C3A11523   8.972  10.727   6.751  0.1225  0.1469 -0.1569
  753POPS   C4A11524   8.985  10.487   7.074 -0.1272  0.0647  0.0249
  753POPS   C1B11525   9.386  12.025   7.024 -0.0899  0.1974  0.1485
  753POPS   C2B11526   9.415  12.324   7.256  0.0581  0.0427 -0.2490
  753POPS   C3B11527   9.717  12.485   7.525 -0.2077  0.1361 -0.0680
  753POPS   C4B11528  10.051  12.180   7.664 -0.0557  0.0618  0.0236
  754POPS   CNO11529   8.973  11.845   5.791 -0.0273  0.0571  0.0989
  754POPS   PO411530   9.083  12.053   6.101 -0.1353 -0.0981 -0.1592
  754POPS   GL111531   9.042  12.336   6.381  0.0047 -0.3187  0.0931
  754POPS   GL211532   9.211  12.591   6.482  0.0199 -0.7464  0.0063
  754POPS   C1A11533   9.011  12.265   6.737  0.1278 -0.0457  0.0285
  754POPS   D2A11534   8.913  12.409   7.136 -0.0533  0.2404  0.3867
  754POPS   C3A11535   9.010  12.054   7.378  0.2039 -0.1112 -0.0560
  754POPS   C4A11536   9.209  12.065   7.717 -0.2278  0.1289  0.0420
  754POPS   C1B11537   9.224  12.720   6.859  0.2414 -0.0755 -0.0992
  754POPS   C2B11538   9.270  12.761   7.289  0.0824 -0.2210  0.2239
  754POPS   C3B11539   9.317  12.881   7.681  0.2106 -0.0352 -0.1520
  754POPS   C4B11540   8.850  12.950   7.862 -0.0936  0.1554  0.1031
  755POPS   CNO11541   0.988  16.108   6.234  0.0554 -0.0468  0.5012
  755POPS   PO411542   1.311  15.813   6.161  0.1187  0.2180 -0.0223
  755POPS   GL111543   1.363  15.598   6.596 -0.0527  0.0457  0.1931
  755POPS   GL211544   1.678  15.455   6.648  0.0203 -0.0404  0.1964
  755POPS   C1A11545   1.282  15.664   7.038 -0.4312 -0.1286 -0.0589
  755POPS   D2A11546   1.376  15.917   7.499  0.0206  0.3093  0.3718
  755POPS   C3A11547   1.502  16.311   7.515 -0.0371  0.2156  0.2815
  755POPS   C4A11548   1.589  16.721   7.392  0.2075  0.1662 -0.0409
  755POPS   C1B11549   1.768  15.543   7.039  0.0598 -0.1519  0.1201
  755POPS   C2B11550   1.935  15.816   7.357  0.2173 -0.1988  0.1271
  755POPS   C3B11551   2.195  16.041   7.711  0.0793 -0.0022 -0.1821
  755POPS   C4B11552   2.401  16.457   7.833 -0.0933  0.2310  0.0120
  756POPS   CNO11553   0.548  17.440   6.025 -0.4695 -0.0648 -0.0282
  756POPS   PO411554   0.881  17.622   6.225  0.0167 -0.1806  0.1749
  756POPS   GL111555   0.919  17.881   6.596 -0.3037  0.1712 -0.1074
  756POPS   GL211556   1.215  17.988   6.678  0.1335 -0.0891  0.0463
  756POPS   C1A11557   0.779  17.815   6.986 -0.1756  0.1249 -0.0166
  756POPS   D2A11558   0.787  17.835   7.410  0.1475  0.2264  0.0102
  756POPS   C3A11559   0.437  17.863   7.652  0.0055 -0.0004  0.0189
  756POPS   C4A11560   0.264  18.166   7.933 -0.2163  0.2033  0.1337
  756POPS   C1B11561   1.237  18.104   7.120 -0.1999  0.2200  0.1333
  756POPS   C2B11562   1.207  18.169   7.579 -0.2323  0.1464  0.3580
  756POPS   C3B11563   1.508  18.118   7.839 -0.3884 -0.0810 -0.1484
  756POPS   C4B11564   1.697  17.971   8.192  0.2238  0.0968 -0.1152
  757POPS   CNO11565   6.503  11.504   5.892  0.1722  0.0246  0.1664
  757POPS   PO411566   6.590  11.132   5.716 -0.2051 -0.1785  0.1523
  757POPS   GL111567   6.344  11.036   6.117 -0.2015 -0.1275 -0.1802
  757POPS   GL211568   6.531  10.985   6.411 -0.0993 -0.1408 -0.3074
  757POPS   C1A11569   6.087  10.799   6.604 -0.0284  0.0220 -0.2777
  757POPS   D2A11570   6.240  10.678   7.017 -0.0008 -0.3273  0.1405
  757POPS   C3A11571   6.003  10.579   7.277 -0.0696 -0.3094 -0.0787
  757POPS   C4A11572   6.043  10.354   7.718 -0.2666 -0.0660  0.2213
  757POPS   C1B11573   6.599  11.202   6.803 -0.2556 -0.0253  0.4019
  757POPS   C2B11574   6.524  11.157   7.223 -0.0234  0.0159 -0.1310
  757POPS   C3B11575   6.440  10.838   7.451  0.4905  0.0102  0.3286
  757POPS   C4B11576   6.501  10.489   7.606  0.0289 -0.0862 -0.2766
  758POPS   CNO11577  14.788  17.673   5.466  0.2451  0.2146 -0.2496
  758POPS   PO411578  14.829  17.955   5.822 -0.0455  0.0308 -0.0548
  758POPS   GL111579  14.913  17.797   6.262  0.1525 -0.0970 -0.1225
  758POPS   GL211580  15.249  17.802   6.317 -0.0553  0.0022  0.0006
  758POPS   C1A11581  14.628  17.659   6.632 -0.0974  0.0142 -0.0286
  758POPS   D2A11582  14.723  17.491   7.124  0.0560 -0.1611  0.3889
  758POPS   C3A11583  14.779  17.697   7.592 -0.2839 -0.1335  0.1410
  758POPS   C4A11584  14.615  17.909   7.961  0.2794  0.1960  0.0136
  758POPS   C1B11585  15.363  17.921   6.652  0.1402  0.1424  0.0847
  758POPS   C2B11586  15.202  17.750   7.057  0.2077  0.1385 -0.3754
  758POPS   C3B11587  15.175  17.465   7.381  0.0075  0.0434 -0.1009
  758POPS   C4B11588  14.874  17.112   7.537 -0.1783  0.0371 -0.4590
  759POPS   CNO11589   3.635   1.624   5.863  0.1802 -0.0211  0.0522
  759POPS   PO411590   3.849   1.735   6.247  0.2821  0.1498 -0.0827
  759POPS   GL111591   3.654   1.658   6.657 -0.1737 -0.3989 -0.1974
  759POPS   GL211592   3.492   1.853   6.764 -0.0702 -0.1669 -0.0906
  759POPS   C1A11593   3.715   1.517   7.164 -0.0024  0.1491  0.0955
  759POPS   D2A11594   3.776   1.465   7.645 -0.2226  0.0917 -0.0112
  759POPS   C3A11595   3.466   1.593   7.874 -0.0178  0.0672 -0.0990
  759POPS   C4A11596   3.121   1.752   8.182 -0.2861  0.4008  0.0939
  759POPS   C1B11597   3.494   2.209   7.102 -0.0789  0.2200  0.0913
  759POPS   C2B11598   3.719   2.622   7.217  0.2061  0.0407  0.0558
  759POPS   C3B11599   3.692   2.835   7.602  0.0667 -0.0436 -0.0506
  759POPS   C4B11600   3.899   2.973   8.001 -0.1120  0.1982 -0.0249
  760POPS   CNO11601   0.557   5.385   6.442 -0.1521  0.3191 -0.1510
  760POPS   PO411602   0.205   4.898   6.330 -0.0329 -0.0022 -0.1053
  760POPS   GL111603   0.231   4.855   6.863  0.2541 -0.0071 -0.0205
  760POPS   GL211604   0.118   4.553   6.964  0.2367 -0.0277  0.1084
  760POPS   C1A11605   0.470   4.845   7.201  0.2107  0.2028  0.0284
  760POPS   D2A11606   0.687   5.017   7.405  0.1832  0.2674 -0.1837
  760POPS   C3A11607   0.786   4.738   7.761 -0.0876  0.2965  0.2187
  760POPS   C4A11608   0.821   4.471   8.079  0.0373  0.3282 -0.0072
  760POPS   C1B11609   0.317   4.174   7.116  0.0651 -0.1033  0.0563
  760POPS   C2B11610   0.105   4.054   7.438  0.2357  0.0440 -0.1389
  760POPS   C3B11611  -0.254   3.761   7.325  0.1628  0.1099  0.0358
  760POPS   C4B11612  -0.579   3.529   7.542  0.1619 -0.0482 -0.1303
  761POPS   CNO11613   4.753  10.253   5.672 -0.0084 -0.0335 -0.2234
  761POPS   PO411614   5.012  10.565   5.796  0.2415 -0.0665 -0.2036
  761POPS   GL111615   4.961  10.350   6.218 -0.1931 -0.2744 -0.0907
  761POPS   GL211616   4.915  10.040   6.110  0.1395 -0.0223 -0.0420
  761POPS   C1A11617   4.976  10.504   6.564  0.0918 -0.3552  0.1636
  761POPS   D2A11618   5.217  10.242   6.865  0.0660 -0.4380 -0.0565
  761POPS   C3A11619   5.310   9.881   6.763  0.1806  0.2225 -0.0949
  761POPS   C4A11620   5.465   9.882   6.328 -0.0988 -0.4429 -0.1520
  761POPS   C1B11621   4.855  10.034   6.647  0.1959 -0.1465 -0.0500
  761POPS   C2B11622   4.821   9.992   7.091  0.1737  0.1973 -0.0934
  761POPS   C3B11623   4.816   9.939   7.586  0.3802  0.0494 -0.0323
  761POPS   C4B11624   5.020  10.210   7.902  0.2135  0.1671 -0.2300
  762POPS   CNO11625  13.432   1.036   5.867 -0.0542  0.3226  0.1099
  762POPS   PO411626  13.646   1.231   5.904 -0.0749  0.1642 -0.0225
  762POPS   GL111627  13.616   1.105   6.386  0.1712  0.2434  0.0936
  762POPS   GL211628  13.645   0.745   6.281  0.0188 -0.2612  0.2760
  762POPS   C1A11629  13.635   1.102   6.822 -0.0649 -0.0875  0.1965
  762POPS   D2A11630  13.992   1.115   7.107 -0.0869 -0.0374 -0.0272
  762POPS   C3A11631  13.807   1.132   7.526  0.3109 -0.3077 -0.0364
  762POPS   C4A11632  13.578   0.849   7.777  0.1619  0.0256 -0.0274
  762POPS   C1B11633  13.922   0.742   6.641 -0.1584 -0.0038 -0.0065
  762POPS   C2B11634  13.916   0.622   7.043 -0.0406  0.0753 -0.0595
  762POPS   C3B11635  13.845   0.572   7.440  0.2244  0.0633  0.0122
  762POPS   C4B11636  13.487   0.346   7.650 -0.1520 -0.2289 -0.1465
  763POPS   CNO11637   8.369   7.836   5.529  0.2110  0.0001  0.3187
  763POPS   PO411638   8.417   8.158   5.935  0.0654 -0.3292 -0.0875
  763POPS   GL111639   8.388   8.136   6.415 -0.1439  0.0051  0.0305
  763POPS   GL211640   8.028   7.815   6.500 -0.2433  0.0128  0.1411
  763POPS   C1A11641   8.084   8.329   6.811  0.1529 -0.2033  0.1781
  763POPS   D2A11642   8.100   8.584   7.144  0.1630  0.0505 -0.0072
  763POPS   C3A11643   7.766   8.689   7.425 -0.4261  0.3188 -0.2695
  763POPS   C4A11644   7.468   8.928   7.379  0.3680  0.1896  0.1882
  763POPS   C1B11645   7.911   7.453   6.694  0.1706 -0.1788  0.0954
  763POPS   C2B11646   8.079   7.074   6.868  0.1764 -0.2637 -0.0595
  763POPS   C3B11647   8.094   7.160   7.445 -0.0754  0.1252  0.0648
  763POPS   C4B11648   8.131   7.123   7.909 -0.1453  0.1634  0.1391
  764POPS   CNO11649   9.052  14.131   6.042  0.0736 -0.0555 -0.0735
  764POPS   PO411650   9.243  14.454   5.832 -0.0543 -0.2284  0.3452
  764POPS   GL111651   9.524  14.214   6.197  0.0026  0.2079 -0.0115
  764POPS   GL211652   9.345  13.897   6.419 -0.0435 -0.2109 -0.0930
  764POPS   C1A11653   9.890  14.207   6.584  0.1462  0.2092  0.1341
  764POPS   D2A11654  10.295  14.340   6.657 -0.0148  0.0454 -0.2897
  764POPS   C3A11655  10.495  14.486   6.933 -0.1946 -0.0120  0.2088
  764POPS   C4A11656  10.588  14.466   7.313 -0.0444  0.0018  0.2439
  764POPS   C1B11657   9.168  13.892   6.787  0.1878  0.1290  0.0168
  764POPS   C2B11658   9.195  13.807   7.263  0.0677  0.2911  0.3359
  764POPS   C3B11659   8.960  14.057   7.629  0.2883 -0.0366  0.1668
  764POPS   C4B11660   8.552  14.238   7.395  0.1038  0.3984 -0.2545
  765POPS   CNO11661   1.695  14.965   5.567 -0.2125 -0.1361  0.0812
  765POPS   PO411662   1.740  14.915   6.042 -0.1160  0.0442 -0.0161
  765POPS   GL111663   1.680  14.918   6.516 -0.0885  0.0003  0.2480
  765POPS   GL211664   1.384  14.999   6.616 -0.0605 -0.3836  0.3187
  765POPS   C1A11665   1.866  14.996   6.960 -0.0302  0.2586  0.5002
  765POPS   D2A11666   1.653  14.831   7.312 -0.2598  0.0810 -0.1548
  765POPS   C3A11667   1.760  14.801   7.716 -0.0937  0.0922  0.1961
  765POPS   C4A11668   1.581  14.800   8.165 -0.0446 -0.2033 -0.2133
  765POPS   C1B11669   1.427  15.177   7.039  0.2880  0.0114  0.3733
  765POPS   C2B11670   1.357  15.409   7.452 -0.2999  0.0151  0.1851
  765POPS   C3B11671   1.351  15.582   7.928  0.2401 -0.2363 -0.0733
  765POPS   C4B11672   1.081  15.860   8.197 -0.0343 -0.0445 -0.1056
  766POPS   CNO11673   8.934   5.819   5.598  0.0407  0.0166  0.1112
  766POPS   PO411674   8.522   5.557   5.835  0.1279 -0.1320 -0.0712
  766POPS   GL111675   8.399   5.704   6.226 -0.1195  0.2055  0.1679
  766POPS   GL211676   8.096   5.801   6.181 -0.0658 -0.0837  0.1874
  766POPS   C1A11677   8.747   5.586   6.510  0.2517  0.0343  0.2860
  766POPS   D2A11678   8.882   5.513   6.907  0.1074  0.1935 -0.1091
  766POPS   C3A11679   8.722   5.267   7.209  0.2585 -0.1447  0.5057
  766POPS   C4A11680   8.595   5.366   7.700  0.0429  0.0894 -0.1288
  766POPS   C1B11681   7.750   5.940   6.447 -0.1119  0.0319 -0.2096
  766POPS   C2B11682   7.902   6.096   6.837  0.3109  0.0855  0.2329
  766POPS   C3B11683   8.187   5.908   7.101 -0.1275  0.1483  0.0882
  766POPS   C4B11684   8.201   5.587   7.348 -0.0801 -0.0161 -0.1498
  767POPS   CNO11685  10.545   1.706   5.786 -0.0131  0.1139  0.0848
  767POPS   PO411686  10.905   1.989   5.705  0.1281 -0.0102  0.1668
  767POPS   GL111687  10.760   1.932   6.203  0.1067  0.3314 -0.0234
  767POPS   GL211688  10.666   2.295   6.300  0.1528  0.0577  0.2938
  767POPS   C1A11689  10.730   1.756   6.562  0.1501  0.0585 -0.2020
  767POPS   D2A11690  10.535   1.608   6.893 -0.1124  0.2612  0.0099
  767POPS   C3A11691  10.631   1.880   7.170  0.0704 -0.1816  0.0738
  767POPS   C4A11692  10.688   2.175   7.611  0.2948  0.0674  0.1070
  767POPS   C1B11693  10.470   2.230   6.689 -0.0237  0.0818 -0.2758
  767POPS   C2B11694  10.221   2.173   7.110 -0.1020 -0.0698  0.0458
  767POPS   C3B11695   9.912   1.944   7.420 -0.1316 -0.3702 -0.2397
  767POPS   C4B11696   9.867   1.857   7.855 -0.1638 -0.2136 -0.0664
  768POPS   CNO11697   6.345   1.619   5.747 -0.2131  0.1644 -0.3297
  768POPS   PO411698   6.336   1.784   6.217  0.1856 -0.1511 -0.3762
  768POPS   GL111699   6.152   1.889   6.562  0.1720 -0.0724 -0.0061
  768POPS   GL211700   5.988   1.695   6.603  0.0011  0.0597  0.3250
  768POPS   C1A11701   6.245   1.738   7.010 -0.2384 -0.3198 -0.0588
  768POPS   D2A11702   6.470   1.521   7.236  0.0945 -0.1884  0.2775
  768POPS   C3A11703   6.683   1.747   7.422  0.2481 -0.2045 -0.1944
  768POPS   C4A11704   6.714   2.147   7.678 -0.0180 -0.2446  0.4171
  768POPS   C1B11705   6.046   1.308   6.834 -0.1392  0.1478  0.0234
  768POPS   C2B11706   5.761   1.314   7.272  0.2856 -0.0667  0.0589
  768POPS   C3B11707   5.555   1.326   7.638 -0.3464 -0.1358  0.2465
  768POPS   C4B11708   5.422   1.254   8.149 -0.3992  0.0180  0.3386
  769POPS   CNO11709  15.399   2.258   5.194 -0.2573 -0.3574 -0.1752
  769POPS   PO411710  15.263   2.538   5.471 -0.1794 -0.0883  0.1811
  769POPS   GL111711  14.950   2.635   5.758 -0.2252  0.5408  0.1555
  769POPS   GL211712  15.038   2.861   5.944  0.2243 -0.0601 -0.2985
  769POPS   C1A11713  14.665   2.659   6.121  0.1124  0.0469  0.0478
  769POPS   D2A11714  14.167   2.538   6.204 -0.0899  0.1962 -0.0090
  769POPS   C3A11715  13.990   2.608   6.511  0.1524  0.1207  0.3119
  769POPS   C4A11716  13.588   2.506   6.821 -0.3416 -0.3777  0.0991
  769POPS   C1B11717  14.719   3.194   6.170  0.0497 -0.2583 -0.1118
  769POPS   C2B11718  14.595   3.443   6.599  0.1073  0.1568  0.3044
  769POPS   C3B11719  14.764   3.817   6.918 -0.4740  0.2529 -0.1979
  769POPS   C4B11720  14.585   3.941   7.322  0.0313 -0.0268 -0.0582
  770POPS   CNO11721  11.789   2.839   5.291 -0.0922  0.3864  0.1664
  770POPS   PO411722  11.674   2.433   5.485  0.2661 -0.1312 -0.1961
  770POPS   GL111723  11.861   2.483   5.838 -0.1292  0.1325  0.0040
  770POPS   GL211724  12.166   2.482   5.977  0.2703 -0.0714  0.2272
  770POPS   C1A11725  11.598   2.508   6.241  0.2139  0.0250  0.1308
  770POPS   D2A11726  11.666   2.651   6.623  0.2013  0.1284  0.2799
  770POPS   C3A11727  12.024   2.853   6.660  0.0905  0.2111 -0.0068
  770POPS   C4A11728  12.230   3.003   6.993  0.1936  0.2788  0.2959
  770POPS   C1B11729  11.989   2.804   6.127 -0.3000 -0.0150 -0.1778
  770POPS   C2B11730  11.841   3.230   5.993 -0.4143 -0.0261  0.0180
  770POPS   C3B11731  11.889   3.665   6.148  0.1432 -0.0439  0.1121
  770POPS   C4B11732  12.255   3.960   6.225 -0.0788  0.0568  0.0712
  771POPS   CNO11733   0.338   0.919   5.771  0.2090 -0.0212 -0.1958
  771POPS   PO411734   0.508   0.900   6.140  0.1559 -0.1265 -0.0919
  771POPS   GL111735   0.387   0.904   6.579  0.3179  0.1349  0.2764
  771POPS   GL211736   0.177   0.675   6.523 -0.0937  0.1093 -0.3568
  771POPS   C1A11737   0.460   0.787   6.986  0.0148  0.0312 -0.0791
  771POPS   D2A11738   0.551   0.728   7.429  0.0925 -0.0065 -0.2069
  771POPS   C3A11739   0.374   0.626   7.848 -0.0565 -0.1510  0.2458
  771POPS   C4A11740   0.032   0.710   8.142  0.1294 -0.1041  0.0112
  771POPS   C1B11741  -0.049   0.860   6.850  0.2766  0.0857  0.1222
  771POPS   C2B11742  -0.141   1.183   7.096 -0.0959  0.1640  0.0023
  771POPS   C3B11743  -0.466   1.323   7.429  0.1685 -0.3092 -0.0819
  771POPS   C4B11744  -0.923   1.379   7.349  0.2749  0.0200 -0.1642
  772POPS   CNO11745   4.764   8.012   6.006 -0.0720 -0.1504  0.0404
  772POPS   PO411746   4.379   8.248   5.939 -0.1903  0.2582  0.1909
  772POPS   GL111747   4.475   8.464   6.193 -0.0315 -0.2204 -0.2394
  772POPS   GL211748   4.201   8.515   6.361  0.1040 -0.1642 -0.0692
  772POPS   C1A11749   4.649   8.697   6.519 -0.0456 -0.2160 -0.0836
  772POPS   D2A11750   4.674   8.558   7.024 -0.0660  0.1002  0.1826
  772POPS   C3A11751   4.879   8.188   7.150  0.3148 -0.1825  0.0128
  772POPS   C4A11752   5.013   8.078   7.605 -0.1827 -0.2149 -0.0812
  772POPS   C1B11753   4.267   8.271   6.736 -0.0601  0.2517 -0.0279
  772POPS   C2B11754   4.355   8.265   7.182  0.1659 -0.1457 -0.4143
  772POPS   C3B11755   4.584   8.532   7.529  0.2759 -0.1935 -0.1317
  772POPS   C4B11756   4.840   8.755   7.704 -0.2769  0.1507  0.1916
  773POPS   CNO11757   7.146  12.397   5.904 -0.3141 -0.0114 -0.0580
  773POPS   PO411758   6.761  12.419   6.025  0.1041  0.2492 -0.4137
  773POPS   GL111759   6.501  12.404   6.404  0.4895  0.0520  0.3449
  773POPS   GL211760   6.480  12.058   6.504  0.0320  0.0884 -0.2777
  773POPS   C1A11761   6.381  12.561   6.846  0.0495  0.0083  0.0608
  773POPS   D2A11762   6.238  12.530   7.173 -0.0776  0.0120 -0.2310
  773POPS   C3A11763   5.965  12.846   7.434 -0.1718 -0.1180 -0.0632
  773POPS   C4A11764   6.016  13.293   7.391 -0.0814 -0.0101  0.0386
  773POPS   C1B11765   6.444  12.072   6.961 -0.2100 -0.2364 -0.1301
  773POPS   C2B11766   6.672  12.130   7.298  0.0828  0.0886 -0.3001
  773POPS   C3B11767   7.017  12.090   7.511 -0.1201 -0.2677 -0.1554
  773POPS   C4B11768   7.292  12.256   7.862 -0.2471 -0.0695 -0.2317
  774POPS   CNO11769  14.631   8.569   5.517 -0.0893  0.2365 -0.3353
  774POPS   PO411770  14.197   8.613   5.598 -0.0620  0.2241 -0.5094
  774POPS   GL111771  14.144   8.824   5.949  0.1108 -0.1263 -0.0283
  774POPS   GL211772  13.994   9.173   6.057  0.0854 -0.2950 -0.0475
  774POPS   C1A11773  13.926   8.778   6.365  0.0880 -0.4047 -0.3125
  774POPS   D2A11774  13.710   8.975   6.710 -0.0004  0.1900  0.3153
  774POPS   C3A11775  13.767   8.983   7.134  0.3351  0.0405  0.0407
  774POPS   C4A11776  13.755   8.781   7.490 -0.1371 -0.0508  0.0411
  774POPS   C1B11777  13.942   9.353   6.464  0.1315 -0.0890  0.0807
  774POPS   C2B11778  13.971   9.331   6.865 -0.0708 -0.1490  0.3623
  774POPS   C3B11779  14.179   9.218   7.268  0.3281  0.3243 -0.2527
  774POPS   C4B11780  14.169   9.214   7.747  0.1283  0.1887  0.0277
  775POPS   CNO11781  18.042   6.150   6.009 -0.0358 -0.1259 -0.0317
  775POPS   PO411782  18.378   6.152   6.268  0.3677 -0.0237  0.0278
  775POPS   GL111783  18.336   5.996   6.730  0.0017 -0.0559 -0.1058
  775POPS   GL211784  18.249   6.307   6.970 -0.0897 -0.2922  0.1291
  775POPS   C1A11785  18.489   5.667   6.960 -0.1163 -0.1301 -0.0795
  775POPS   D2A11786  18.418   5.271   7.097  0.0942  0.2806  0.0504
  775POPS   C3A11787  18.400   5.182   7.557  0.2386  0.1497 -0.2346
  775POPS   C4A11788  18.425   5.237   7.975  0.1841  0.1063  0.0617
  775POPS   C1B11789  18.054   6.038   7.178 -0.2285  0.0889 -0.1048
  775POPS   C2B11790  17.842   5.986   7.575  0.0804 -0.0035 -0.2040
  775POPS   C3B11791  17.741   6.006   8.001 -0.0141  0.0363 -0.0192
  775POPS   C4B11792  17.296   6.154   8.183  0.1435 -0.1914 -0.0527
  776POPS   CNO11793  14.892   1.636   5.980 -0.0304  0.1389  0.0673
  776POPS   PO411794  15.269   1.802   5.987 -0.0791  0.0151 -0.1500
  776POPS   GL111795  15.203   2.062   6.370 -0.1277  0.3646  0.2751
  776POPS   GL211796  15.341   2.309   6.446 -0.0345 -0.1158  0.1477
  776POPS   C1A11797  15.292   1.880   6.780 -0.2254 -0.0115  0.1327
  776POPS   D2A11798  15.513   1.893   7.132 -0.3258  0.1104  0.1750
  776POPS   C3A11799  15.341   1.862   7.577  0.4119  0.3255  0.1570
  776POPS   C4A11800  15.527   1.828   7.982  0.0258 -0.1459  0.3302
  776POPS   C1B11801  15.165   2.367   6.807 -0.2521  0.0552 -0.1800
  776POPS   C2B11802  14.951   2.234   7.182 -0.0684 -0.0091 -0.0951
  776POPS   C3B11803  14.606   2.417   7.411  0.0718 -0.3345  0.2300
  776POPS   C4B11804  14.394   2.802   7.533  0.0822 -0.3269 -0.0806
  777POPS   CNO11805  15.173  16.365   5.936  0.0025  0.0859 -0.0673
  777POPS   PO411806  14.869  16.716   5.988  0.1908 -0.1000  0.1101
  777POPS   GL111807  14.533  16.423   6.150  0.1072 -0.1007 -0.0545
  777POPS   GL211808  14.708  16.141   6.007  0.3227 -0.2895 -0.2495
  777POPS   C1A11809  14.342  16.461   6.581 -0.0701  0.0538 -0.2560
  777POPS   D2A11810  14.363  16.585   7.019  0.2587  0.0636  0.0179
  777POPS   C3A11811  14.093  16.497   7.288  0.1078 -0.0403  0.0684
  777POPS   C4A11812  13.699  16.428   7.575  0.0665  0.0282 -0.1236
  777POPS   C1B11813  14.710  16.037   6.449 -0.0564  0.1402 -0.0470
  777POPS   C2B11814  14.671  16.120   6.887 -0.0942  0.3158  0.0895
  777POPS   C3B11815  14.852  15.938   7.244 -0.1910  0.3700 -0.0322
  777POPS   C4B11816  14.946  16.167   7.563  0.0093 -0.1962 -0.1308
  778POPS   CNO11817   6.829   3.639   6.108  0.0255  0.1676  0.4917
  778POPS   PO411818   6.556   3.328   6.166 -0.0971  0.0370  0.2006
  778POPS   GL111819   6.777   3.064   6.399  0.1903 -0.0803  0.0639
  778POPS   GL211820   6.907   2.737   6.349  0.0411  0.0770 -0.0053
  778POPS   C1A11821   6.600   2.982   6.778  0.1856  0.3454  0.0117
  778POPS   D2A11822   6.302   2.637   6.736  0.0556  0.0696 -0.2431
  778POPS   C3A11823   5.989   2.464   6.842  0.0207 -0.2800  0.1089
  778POPS   C4A11824   5.749   2.231   6.644 -0.0396 -0.0744  0.1178
  778POPS   C1B11825   7.046   2.794   6.807  0.0262  0.2602  0.1191
  778POPS   C2B11826   7.202   2.763   7.264 -0.1860  0.0003 -0.0703
  778POPS   C3B11827   7.484   2.771   7.662  0.2028  0.3342  0.0853
  778POPS   C4B11828   7.896   2.712   7.858  0.3087 -0.0288 -0.0804
  779POPS   CNO11829  11.108  12.505   5.725  0.1335  0.0425  0.3078
  779POPS   PO411830  11.014  12.937   6.031  0.0968 -0.1757 -0.0555
  779POPS   GL111831  11.073  13.139   6.398  0.2108  0.3063 -0.0635
  779POPS   GL211832  10.776  13.286   6.429  0.2056  0.1116 -0.0865
  779POPS   C1A11833  11.092  13.144   6.888 -0.3364 -0.0430 -0.2021
  779POPS   D2A11834  11.053  13.211   7.234 -0.3060  0.1633 -0.3598
  779POPS   C3A11835  11.382  13.160   7.452 -0.0266  0.1075 -0.1661
  779POPS   C4A11836  11.780  13.189   7.578  0.3086  0.0689 -0.0181
  779POPS   C1B11837  10.974  13.587   6.734 -0.2994 -0.0988 -0.3861
  779POPS   C2B11838  10.931  13.695   7.148  0.3502 -0.0032 -0.4540
  779POPS   C3B11839  11.104  13.653   7.530 -0.0073 -0.2643 -0.0750
  779POPS   C4B11840  11.272  13.694   7.957 -0.1277  0.1529 -0.0916
  780POPS   CNO11841   8.167   3.351   5.756 -0.1951  0.0249  0.1494
  780POPS   PO411842   8.019   3.739   5.966 -0.1391 -0.0180  0.0335
  780POPS   GL111843   8.155   3.474   6.258  0.1868 -0.1494  0.3722
  780POPS   GL211844   7.915   3.224   6.161  0.1002 -0.0783  0.1039
  780POPS   C1A11845   8.250   3.414   6.752  0.0872  0.0951 -0.1919
  780POPS   D2A11846   8.234   3.317   7.076 -0.2145  0.1631 -0.0248
  780POPS   C3A11847   7.829   3.136   7.145  0.0024  0.1015 -0.0918
  780POPS   C4A11848   7.529   2.894   6.849 -0.4100  0.2613  0.0940
  780POPS   C1B11849   7.867   3.135   6.588  0.1083  0.2186  0.0560
  780POPS   C2B11850   7.748   3.461   6.790  0.4462 -0.1250  0.1179
  780POPS   C3B11851   7.618   3.607   7.221  0.0641  0.2662  0.2951
  780POPS   C4B11852   7.421   3.893   7.370  0.0261  0.0765  0.0412
  781POPS   CNO11853  15.243  17.668   5.758 -0.3161 -0.1429  0.2804
  781POPS   PO411854  15.620  17.781   5.934 -0.1491  0.1566  0.2301
  781POPS   GL111855  15.592  17.467   6.195  0.1385  0.1400  0.0966
  781POPS   GL211856  15.775  17.116   6.209 -0.0551 -0.0720 -0.1773
  781POPS   C1A11857  15.586  17.421   6.730 -0.2441 -0.2782 -0.4049
  781POPS   D2A11858  15.869  17.445   7.079 -0.0652 -0.2343  0.0708
  781POPS   C3A11859  15.667  17.428   7.507  0.0826  0.0932 -0.1443
  781POPS   C4A11860  15.436  17.116   7.876 -0.2819 -0.2964 -0.0053
  781POPS   C1B11861  15.918  17.069   6.637 -0.2476 -0.1667 -0.1779
  781POPS   C2B11862  15.676  16.922   6.971 -0.0886 -0.0630  0.2018
  781POPS   C3B11863  15.873  16.899   7.423  0.1916 -0.2401  0.2550
  781POPS   C4B11864  15.727  16.723   7.724  0.2686 -0.0165  0.2573
  782POPS   CNO11865   9.560   8.703   6.311 -0.1192 -0.2163 -0.0414
  782POPS   PO411866   9.639   9.001   6.043  0.0397 -0.2713 -0.0716
  782POPS   GL111867   9.974   9.051   6.316 -0.1317  0.4681 -0.4269
  782POPS   GL211868  10.105   8.834   6.248  0.4272  0.1127  0.0183
  782POPS   C1A11869   9.998   9.165   6.649 -0.0566 -0.1273 -0.0799
  782POPS   D2A11870   9.926   9.142   6.987  0.0871 -0.3427  0.2784
  782POPS   C3A11871   9.932   8.794   7.284 -0.0480  0.1397  0.2254
  782POPS   C4A11872  10.094   8.451   7.449 -0.2176 -0.1589 -0.1822
  782POPS   C1B11873  10.154   8.687   6.722 -0.1149  0.4423  0.4310
  782POPS   C2B11874  10.469   8.751   7.158  0.0214 -0.0802  0.0881
  782POPS   C3B11875  10.570   8.496   7.508  0.1252  0.0086  0.0787
  782POPS   C4B11876  10.881   8.111   7.769 -0.0523 -0.0846  0.0488
  783POPS   CNO11877   2.520   9.227   5.844 -0.0158 -0.2843 -0.3419
  783POPS   PO411878   2.097   9.472   5.856  0.2520 -0.1610 -0.1026
  783POPS   GL111879   2.103   9.165   6.157  0.2105 -0.1627  0.0231
  783POPS   GL211880   2.033   9.349   6.437  0.0604  0.0771 -0.0460
  783POPS   C1A11881   2.325   8.940   6.411 -0.0314 -0.5265 -0.2639
  783POPS   D2A11882   2.344   8.512   6.615  0.3062 -0.5847 -0.3175
  783POPS   C3A11883   2.334   8.496   7.033  0.0092  0.0381 -0.0575
  783POPS   C4A11884   2.171   8.409   7.408 -0.0667 -0.3400  0.2455
  783POPS   C1B11885   1.680   9.317   6.693 -0.0060  0.3232  0.0178
  783POPS   C2B11886   1.477   9.167   7.103 -0.0209 -0.2531  0.2175
  783POPS   C3B11887   1.585   9.241   7.495  0.2581 -0.4808  0.0513
  783POPS   C4B11888   1.888   9.317   7.803 -0.0094  0.1596  0.1167
  784POPS   CNO11889  13.086   5.196   5.287 -0.1356  0.1256  0.0899
  784POPS   PO411890  13.088   5.584   5.435 -0.0025  0.2872  0.1548
  784POPS   GL111891  12.837   5.350   5.796  0.0217 -0.0369  0.0677
  784POPS   GL211892  13.088   5.030   5.825  0.1716  0.3115  0.0661
  784POPS   C1A11893  12.499   5.314   6.123  0.1637 -0.0894 -0.2930
  784POPS   D2A11894  12.253   5.293   6.567 -0.4937 -0.3610  0.1166
  784POPS   C3A11895  11.942   5.589   6.668 -0.2687  0.1520  0.1300
  784POPS   C4A11896  11.622   5.519   6.966  0.1216 -0.1192  0.2193
  784POPS   C1B11897  12.800   4.896   6.105  0.1595  0.0105  0.1696
  784POPS   C2B11898  12.641   4.906   6.519  0.2511  0.3013 -0.1534
  784POPS   C3B11899  12.270   4.759   6.721  0.2461  0.2217  0.4618
  784POPS   C4B11900  12.315   4.481   7.134  0.3248 -0.1943  0.1732
  785POPS   CNO11901  16.561  18.062   6.087 -0.3295  0.0639 -0.0038
  785POPS   PO411902  16.355  18.502   5.943  0.2299  0.1085  0.2982
  785POPS   GL111903  16.087  18.469   6.410  0.0111  0.1782 -0.0600
  785POPS   GL211904  16.184  18.112   6.507 -0.0434 -0.1094 -0.1837
  785POPS   C1A11905  15.901  18.459   6.767  0.1924  0.2331 -0.0766
  785POPS   D2A11906  15.685  18.655   7.154 -0.0796  0.1208 -0.0101
  785POPS   C3A11907  16.045  18.673   7.553  0.4670  0.1094 -0.3569
  785POPS   C4A11908  16.289  18.738   7.920  0.0353 -0.1277  0.1039
  785POPS   C1B11909  16.551  17.850   6.682 -0.1884  0.2307  0.5130
  785POPS   C2B11910  16.752  17.963   7.043  0.2698 -0.4565  0.0042
  785POPS   C3B11911  16.630  18.206   7.448  0.0109  0.0645 -0.1194
  785POPS   C4B11912  16.627  18.313   7.797 -0.1819 -0.2590 -0.1614
  786POPS   CNO11913  12.971   4.246   5.313  0.1850  0.0870  0.1954
  786POPS   PO411914  13.217   4.537   5.538  0.0635 -0.2752  0.0763
  786POPS   GL111915  13.361   4.130   5.671  0.1081 -0.1294  0.0303
  786POPS   GL211916  13.078   3.963   5.752  0.1917 -0.1657 -0.2639
  786POPS   C1A11917  13.534   4.139   6.055  0.0887 -0.1451  0.2305
  786POPS   D2A11918  13.671   4.439   6.476 -0.3214 -0.0987  0.0133
  786POPS   C3A11919  13.502   4.395   6.868 -0.1287 -0.2225 -0.0330
  786POPS   C4A11920  13.312   4.250   7.252  0.0141  0.2256  0.1971
  786POPS   C1B11921  12.864   4.064   6.133  0.0797  0.1637 -0.0151
  786POPS   C2B11922  12.704   3.875   6.448 -0.3865  0.0904 -0.1202
  786POPS   C3B11923  12.800   3.757   6.851 -0.0481  0.5534 -0.1683
  786POPS   C4B11924  12.537   3.664   7.212 -0.0037 -0.0273 -0.3484
  787POPS   CNO11925  14.739  10.824   5.795  0.1266 -0.0676  0.0897
  787POPS   PO411926  14.405  11.065   5.734  0.1019  0.3030  0.0910
  787POPS   GL111927  14.423  11.035   6.206 -0.2264  0.0560  0.1498
  787POPS   GL211928  14.746  10.960   6.270 -0.1517 -0.3184  0.2537
  787POPS   C1A11929  14.596  11.301   6.551 -0.0823  0.0670 -0.0762
  787POPS   D2A11930  14.476  11.438   6.912 -0.2786  0.0602  0.1237
  787POPS   C3A11931  14.083  11.365   7.120  0.0224 -0.1263 -0.0020
  787POPS   C4A11932  13.965  11.265   7.556 -0.4310 -0.3105  0.1341
  787POPS   C1B11933  14.929  10.753   6.736 -0.1229 -0.0858  0.0375
  787POPS   C2B11934  14.752  10.652   7.203  0.2242 -0.3701  0.1187
  787POPS   C3B11935  14.970  10.428   7.458 -0.2149 -0.1982  0.1343
  787POPS   C4B11936  15.169  10.367   7.914  0.1181 -0.2813 -0.0217
  788POPS   CNO11937  14.651  14.149   5.467 -0.2266  0.1914 -0.1224
  788POPS   PO411938  14.290  14.246   5.627  0.0247 -0.4150 -0.1529
  788POPS   GL111939  14.133  14.239   6.132  0.0746  0.1426 -0.0219
  788POPS   GL211940  14.057  13.864   6.303 -0.0951 -0.1829  0.0932
  788POPS   C1A11941  14.198  14.362   6.518 -0.0588  0.2008 -0.3124
  788POPS   D2A11942  14.502  14.556   6.782  0.2262 -0.2686 -0.0400
  788POPS   C3A11943  14.685  14.438   7.117 -0.0149 -0.2261 -0.1896
  788POPS   C4A11944  14.837  14.586   7.561  0.0872  0.0193 -0.3762
  788POPS   C1B11945  13.934  13.833   6.652 -0.0966 -0.3621  0.1293
  788POPS   C2B11946  14.034  13.482   6.867  0.0475 -0.0603 -0.4967
  788POPS   C3B11947  14.009  13.591   7.264  0.0859  0.1377 -0.3110
  788POPS   C4B11948  13.738  13.734   7.542  0.0668 -0.2401  0.1668
  789POPS   CNO11949  10.382  10.801   6.026 -0.1050  0.2187  0.4107
  789POPS   PO411950  10.799  10.779   5.722  0.3281  0.1494 -0.1443
  789POPS   GL111951  10.777  10.473   6.036  0.0302  0.2723  0.2789
  789POPS   GL211952  10.967  10.476   6.281 -0.1137 -0.0534  0.1748
  789POPS   C1A11953  10.456  10.304   6.283 -0.0028  0.1798 -0.0725
  789POPS   D2A11954  10.086  10.528   6.494 -0.4115  0.0821 -0.1455
  789POPS   C3A11955  10.086  10.648   6.929  0.2139 -0.1070  0.0316
  789POPS   C4A11956  10.059  10.556   7.352 -0.3375 -0.2908  0.0950
  789POPS   C1B11957  11.212  10.276   6.620 -0.1806  0.1454 -0.1828
  789POPS   C2B11958  11.115  10.464   7.019  0.1140 -0.0288  0.0694
  789POPS   C3B11959  11.234  10.552   7.453  0.2947 -0.1153 -0.1913
  789POPS   C4B11960  11.061  10.653   7.864  0.1969 -0.3766  0.1111
  790POPS   CNO11961  10.295  17.135   5.988 -0.2311 -0.1011  0.1648
  790POPS   PO411962  10.122  17.377   6.160 -0.1169  0.1646  0.0263
  790POPS   GL111963  10.095  16.974   6.411  0.3216 -0.1083  0.0783
  790POPS   GL211964  10.425  16.756   6.400  0.1130 -0.1816  0.0514
  790POPS   C1A11965  10.103  16.973   6.848 -0.0112 -0.0262 -0.4116
  790POPS   D2A11966  10.024  17.285   7.205 -0.2498  0.1296  0.0624
  790POPS   C3A11967   9.852  17.208   7.611 -0.2454 -0.1071  0.0317
  790POPS   C4A11968   9.661  17.229   7.992 -0.0842  0.0519  0.1275
  790POPS   C1B11969  10.585  16.741   6.839  0.3166 -0.0476 -0.0863
  790POPS   C2B11970  10.537  16.732   7.228  0.0093  0.1253  0.2194
  790POPS   C3B11971  10.157  16.822   7.485  0.1124 -0.0246  0.1533
  790POPS   C4B11972  10.087  16.881   7.923 -0.2712  0.2558 -0.2313
  791POPS   CNO11973  10.168   5.851   5.193  0.1342  0.1802  0.2425
  791POPS   PO411974   9.946   5.775   5.452  0.1403  0.1346 -0.1966
  791POPS   GL111975  10.048   5.754   5.871  0.4069 -0.0773  0.5968
  791POPS   GL211976   9.875   5.888   6.094 -0.2735 -0.2271 -0.2237
  791POPS   C1A11977  10.459   5.663   6.071 -0.3851 -0.0771  0.2409
  791POPS   D2A11978  10.733   5.486   6.096 -0.1577 -0.1298 -0.1713
  791POPS   C3A11979  11.151   5.446   6.327  0.3293  0.3468 -0.0763
  791POPS   C4A11980  11.504   5.446   6.382 -0.1266 -0.1978 -0.1106
  791POPS   C1B11981   9.860   5.709   6.549  0.3531  0.1343 -0.0216
  791POPS   C2B11982   9.996   5.709   6.910 -0.0358  0.0440  0.2128
  791POPS   C3B11983  10.027   5.374   7.141  0.2765 -0.4489 -0.2293
  791POPS   C4B11984  10.197   5.026   7.462 -0.0948 -0.0327  0.1478
  792POPS   CNO11985  10.342  12.860   5.487 -0.1862  0.2757  0.1975
  792POPS   PO411986  10.110  12.684   5.840 -0.0254  0.1787  0.5073
  792POPS   GL111987  10.009  12.436   6.169  0.1970 -0.0373  0.1422
  792POPS   GL211988  10.159  12.109   6.379  0.0274 -0.1213  0.1411
  792POPS   C1A11989  10.147  12.529   6.637 -0.1408  0.0429  0.4417
  792POPS   D2A11990  10.254  12.824   6.958 -0.1642 -0.1005 -0.3147
  792POPS   C3A11991  10.593  12.934   7.304 -0.1062  0.1951  0.1463
  792POPS   C4A11992  10.894  12.932   7.686 -0.2022  0.0254  0.2367
  792POPS   C1B11993   9.892  11.887   6.714  0.3264 -0.0341  0.1465
  792POPS   C2B11994   9.632  11.588   6.982  0.1851 -0.0119  0.2096
  792POPS   C3B11995   9.377  11.252   7.001  0.1566 -0.1931  0.1130
  792POPS   C4B11996   9.067  10.973   7.140 -0.1187 -0.1835 -0.1128
  793POPS   CNO11997  14.666   7.723   5.680 -0.0553 -0.1947  0.2997
  793POPS   PO411998  15.146   7.632   5.685  0.1132 -0.1275 -0.0436
  793POPS   GL111999  15.103   7.926   6.118 -0.2623  0.0327  0.4691
  793POPS   GL212000  14.893   7.686   6.337 -0.0680  0.0421  0.1404
  793POPS   C1A12001  15.462   8.241   6.243 -0.0595 -0.1136 -0.1531
  793POPS   D2A12002  15.502   8.538   6.554 -0.0596  0.0343  0.1984
  793POPS   C3A12003  15.175   8.623   6.932 -0.1104 -0.3804 -0.0035
  793POPS   C4A12004  15.018   8.694   7.318 -0.0152  0.0582  0.2127
  793POPS   C1B12005  14.840   7.462   6.695 -0.3167  0.2114  0.1487
  793POPS   C2B12006  14.943   7.641   7.044 -0.0826  0.1277  0.2028
  793POPS   C3B12007  14.966   7.615   7.486 -0.0270 -0.6220  0.0584
  793POPS   C4B12008  14.943   7.444   7.793 -0.0272  0.0003  0.2560
  794POPS   CNO12009  17.617  12.802   5.480 -0.0446  0.1458  0.1033
  794POPS   PO412010  17.474  12.812   5.867  0.0913  0.0226 -0.3497
  794POPS   GL112011  17.576  12.872   6.303  0.0246  0.2610  0.0594
  794POPS   GL212012  17.784  13.089   6.457  0.0360 -0.1043  0.0845
  794POPS   C1A12013  17.347  12.862   6.710  0.2620 -0.1550  0.0567
  794POPS   D2A12014  17.403  12.713   7.100 -0.1962 -0.5602 -0.3499
  794POPS   C3A12015  17.704  12.513   7.186  0.0804 -0.4124 -0.1049
  794POPS   C4A12016  18.086  12.478   7.117  0.2605 -0.1868  0.1963
  794POPS   C1B12017  17.818  13.017   6.823  0.2053 -0.0083 -0.0471
  794POPS   C2B12018  17.889  12.983   7.322 -0.0465  0.0062 -0.0476
  794POPS   C3B12019  17.914  13.062   7.691 -0.0418  0.0005 -0.0216
  794POPS   C4B12020  18.201  12.972   8.022 -0.1472  0.1183  0.0672
  795POPS   CNO12021   9.710   7.956   5.708  0.1642  0.1682 -0.1975
  795POPS   PO412022   9.688   7.581   5.847 -0.1261 -0.0560  0.2035
  795POPS   GL112023   9.860   7.570   6.236  0.2470  0.5211 -0.5095
  795POPS   GL212024   9.912   7.816   6.421 -0.0634  0.1449 -0.3365
  795POPS   C1A12025   9.918   7.265   6.681  0.3616 -0.1585  0.0288
  795POPS   D2A12026  10.025   7.038   6.918 -0.3999 -0.1284 -0.1462
  795POPS   C3A12027  10.163   7.235   7.196  0.0403  0.0816  0.3174
  795POPS   C4A12028   9.927   7.448   7.436 -0.1858 -0.1043 -0.1983
  795POPS   C1B12029   9.769   7.709   6.927 -0.0685 -0.1339 -0.2731
  795POPS   C2B12030   9.500   7.792   7.235  0.0281  0.3203  0.0959
  795POPS   C3B12031   9.273   7.537   7.620  0.0957  0.2583 -0.0363
  795POPS   C4B12032   9.265   7.235   8.117 -0.4239 -0.0742  0.0247
  796POPS   CNO12033  16.836  12.111   5.446  0.0747  0.0216 -0.1320
  796POPS   PO412034  16.637  11.874   5.712  0.2043 -0.0112  0.1310
  796POPS   GL112035  16.673  11.905   6.108  0.0428 -0.0458 -0.1701
  796POPS   GL212036  16.411  12.178   6.194 -0.3343 -0.1605 -0.0881
  796POPS   C1A12037  16.780  11.974   6.565 -0.0823 -0.0560 -0.0144
  796POPS   D2A12038  16.825  11.895   7.008 -0.1921  0.2036  0.2106
  796POPS   C3A12039  17.233  11.671   7.268  0.4629 -0.0701  0.0796
  796POPS   C4A12040  17.619  11.705   7.397 -0.1608  0.4218 -0.0262
  796POPS   C1B12041  16.241  12.034   6.604 -0.1836 -0.3269  0.5306
  796POPS   C2B12042  16.281  11.997   6.977  0.0272 -0.1492  0.0867
  796POPS   C3B12043  16.534  11.891   7.383 -0.0301  0.4400 -0.2568
  796POPS   C4B12044  16.972  11.914   7.625 -0.1000  0.0025  0.1488
  797POPS   CNO12045   2.941   9.274   5.439  0.1288 -0.1548 -0.0640
  797POPS   PO412046   3.114   9.004   5.858  0.1454  0.1686  0.1610
  797POPS   GL112047   3.030   8.801   6.223 -0.1437 -0.2853  0.1152
  797POPS   GL212048   3.306   8.689   6.433 -0.1449  0.1122  0.1897
  797POPS   C1A12049   2.815   8.724   6.609 -0.1930 -0.0717  0.1060
  797POPS   D2A12050   2.527   8.932   6.866  0.1395  0.0659 -0.1125
  797POPS   C3A12051   2.387   9.023   7.196 -0.0955  0.2672 -0.0675
  797POPS   C4A12052   2.331   8.882   7.528 -0.1320 -0.1014 -0.0133
  797POPS   C1B12053   3.293   8.466   6.858 -0.2588  0.0499 -0.0398
  797POPS   C2B12054   3.491   8.258   7.359  0.0173 -0.0573 -0.0267
  797POPS   C3B12055   3.697   8.278   7.753  0.0934  0.0304 -0.1775
  797POPS   C4B12056   4.051   8.197   8.081  0.0453  0.0714 -0.2051
  798POPS   CNO12057  15.705   9.768   5.683 -0.3546  0.1426  0.0311
  798POPS   PO412058  16.085   9.628   5.571  0.1543 -0.0117  0.1034
  798POPS   GL112059  16.255   9.575   6.026  0.1830  0.0869  0.3520
  798POPS   GL212060  16.086   9.875   6.179 -0.0536  0.0451  0.2889
  798POPS   C1A12061  16.005   9.381   6.401  0.1083  0.1809 -0.1186
  798POPS   D2A12062  16.114   9.244   6.813  0.1081 -0.1364  0.0271
  798POPS   C3A12063  16.027   9.168   7.219  0.1399  0.1804  0.0692
  798POPS   C4A12064  15.918   9.154   7.602  0.0134 -0.4401  0.0263
  798POPS   C1B12065  16.108   9.765   6.631 -0.0326 -0.0292 -0.1985
  798POPS   C2B12066  16.305   9.802   6.965  0.0731 -0.3322 -0.2375
  798POPS   C3B12067  16.151   9.658   7.339 -0.1304  0.1982  0.2277
  798POPS   C4B12068  16.456   9.625   7.735  0.1542  0.0490  0.1582
  799POPS   CNO12069   5.164  13.095   5.825 -0.1952 -0.0582  0.0810
  799POPS   PO412070   4.957  12.776   6.021 -0.3985  0.0462  0.1282
  799POPS   GL112071   4.990  12.808   6.486  0.1038  0.1205  0.0787
  799POPS   GL212072   5.224  12.573   6.445 -0.0391  0.0646  0.0619
  799POPS   C1A12073   4.982  12.906   6.967 -0.0628 -0.2388 -0.1862
  799POPS   D2A12074   5.067  12.913   7.349  0.1020  0.0722 -0.3081
  799POPS   C3A12075   4.702  12.799   7.557 -0.1629 -0.0120 -0.1133
  799POPS   C4A12076   4.501  13.075   7.814  0.1061  0.0584 -0.0462
  799POPS   C1B12077   5.412  12.590   6.880 -0.4070 -0.1000  0.0879
  799POPS   C2B12078   5.517  12.561   7.348 -0.3884 -0.1976 -0.2505
  799POPS   C3B12079   5.960  12.321   7.556 -0.1485 -0.0639  0.1168
  799POPS   C4B12080   6.155  12.621   7.949  0.2311  0.1951 -0.4424
  800POPS   CNO12081  18.067   4.494   6.564 -0.0783 -0.0948  0.1034
  800POPS   PO412082  17.636   4.566   6.456  0.1771 -0.4640  0.0409
  800POPS   GL112083  17.751   4.457   6.924  0.2565 -0.1064  0.0684
  800POPS   GL212084  17.825   4.178   7.085  0.1125 -0.0848  0.2110
  800POPS   C1A12085  17.497   4.517   7.379  0.1306  0.1728  0.2193
  800POPS   D2A12086  17.646   4.316   7.857  0.0609  0.0338  0.2989
  800POPS   C3A12087  18.167   4.401   7.914 -0.2445  0.3362  0.2109
  800POPS   C4A12088  18.467   4.464   8.213 -0.1681  0.2193 -0.0469
  800POPS   C1B12089  17.960   4.433   7.361  0.0400 -0.0446 -0.0037
  800POPS   C2B12090  18.322   4.568   7.471  0.1131 -0.0375 -0.3336
  800POPS   C3B12091  18.518   4.737   7.836  0.1045 -0.6144 -0.0285
  800POPS   C4B12092  18.827   4.855   8.252  0.2510 -0.1749  0.1709
  801POPS   CNO12093  17.297   7.983   6.017 -0.2722  0.0079  0.0543
  801POPS   PO412094  16.835   8.118   5.851 -0.2177  0.1444 -0.1826
  801POPS   GL112095  16.705   8.006   6.275 -0.1060 -0.1480 -0.0933
  801POPS   GL212096  16.599   8.346   6.303 -0.4845  0.0186  0.1364
  801POPS   C1A12097  16.836   7.844   6.647  0.0878  0.2636 -0.0954
  801POPS   D2A12098  16.991   8.174   6.732  0.4920 -0.0376  0.0502
  801POPS   C3A12099  16.823   8.441   6.994  0.1548 -0.2768  0.1099
  801POPS   C4A12100  16.700   8.585   7.358  0.0735  0.0967 -0.0948
  801POPS   C1B12101  16.460   8.190   6.639 -0.0488 -0.1106 -0.1923
  801POPS   C2B12102  16.482   8.139   7.103 -0.0734  0.2784 -0.1266
  801POPS   C3B12103  16.378   8.158   7.437  0.1772  0.0053  0.1775
  801POPS   C4B12104  16.446   8.278   7.896 -0.0299 -0.2020  0.1609
  802POPS   CNO12105  16.379   8.678   5.519  0.0435 -0.0302  0.1941
  802POPS   PO412106  16.306   8.562   5.980 -0.2351 -0.0546  0.1571
  802POPS   GL112107  16.060   8.612   6.283 -0.0714 -0.0716 -0.1364
  802POPS   GL212108  15.886   8.851   6.437 -0.0755 -0.1520  0.1220
  802POPS   C1A12109  15.963   8.340   6.751  0.1204 -0.2120 -0.0756
  802POPS   D2A12110  15.944   8.069   6.958 -0.1935  0.0197  0.1770
  802POPS   C3A12111  15.837   7.964   7.436 -0.1583  0.0914  0.2564
  802POPS   C4A12112  15.933   8.168   7.807 -0.0681 -0.0029 -0.2312
  802POPS   C1B12113  15.867   8.795   6.934  0.0900 -0.0427  0.1428
  802POPS   C2B12114  15.590   8.738   7.184  0.0905 -0.0575 -0.0028
  802POPS   C3B12115  15.436   8.823   7.593 -0.0664 -0.2199 -0.1209
  802POPS   C4B12116  15.032   8.955   7.779 -0.2261 -0.3100 -0.2424
  803POPS   CNO12117   5.415   4.528   6.083 -0.0324 -0.2882 -0.3340
  803POPS   PO412118   5.335   4.900   5.878 -0.0272  0.2124  0.0672
  803POPS   GL112119   5.096   4.941   6.262  0.2912 -0.0089  0.1009
  803POPS   GL212120   5.020   5.321   6.322 -0.0757 -0.2729 -0.0319
  803POPS   C1A12121   4.877   4.923   6.594 -0.1456  0.0870  0.1504
  803POPS   D2A12122   4.659   4.799   6.934 -0.0113 -0.2912 -0.0375
  803POPS   C3A12123   4.697   4.970   7.326  0.2210  0.0522  0.0564
  803POPS   C4A12124   4.886   4.942   7.690 -0.1110 -0.2200  0.0514
  803POPS   C1B12125   4.879   5.370   6.758 -0.0479 -0.1744  0.3697
  803POPS   C2B12126   5.134   5.205   7.135 -0.0992 -0.0141  0.0389
  803POPS   C3B12127   5.275   5.170   7.483  0.0278  0.2113 -0.0375
  803POPS   C4B12128   5.603   5.074   7.640 -0.0479  0.0541  0.0883
  804POPS   CNO12129   0.471  12.910   5.429  0.1022 -0.3234 -0.1917
  804POPS   PO412130   0.561  12.640   5.798  0.1820  0.2286  0.0139
  804POPS   GL112131   0.248  12.702   6.093  0.0779 -0.3543  0.1323
  804POPS   GL212132  -0.053  12.581   6.281  0.1611  0.1749  0.1280
  804POPS   C1A12133   0.187  12.993   6.459  0.3576 -0.0001 -0.4745
  804POPS   D2A12134   0.465  13.102   6.805 -0.1057 -0.4089  0.2861
  804POPS   C3A12135   0.833  12.725   6.886 -0.3122  0.2586 -0.2489
  804POPS   C4A12136   1.276  12.658   6.886  0.1497 -0.3656  0.2259
  804POPS   C1B12137  -0.371  12.526   6.597  0.2609  0.1203  0.2807
  804POPS   C2B12138  -0.723  12.360   6.682 -0.2606 -0.0959 -0.1691
  804POPS   C3B12139  -1.133  12.387   6.779 -0.0794 -0.2899 -0.0197
  804POPS   C4B12140  -1.616  12.373   6.789 -0.0761 -0.1243  0.1278
  805POPS   CNO12141  13.563  16.610   5.415  0.0180 -0.1211 -0.0159
  805POPS   PO412142  13.934  16.598   5.725  0.3457 -0.0190  0.1470
  805POPS   GL112143  13.769  16.622   6.206  0.1202  0.0307  0.1807
  805POPS   GL212144  13.508  16.695   6.234  0.1204  0.1682 -0.1293
  805POPS   C1A12145  13.801  16.982   6.560 -0.0206 -0.0218 -0.1905
  805POPS   D2A12146  13.847  17.238   6.862  0.0783 -0.0638 -0.1205
  805POPS   C3A12147  14.022  16.967   7.296  0.0836 -0.0039  0.0734
  805POPS   C4A12148  14.212  16.946   7.700 -0.0159  0.2849 -0.1616
  805POPS   C1B12149  13.209  16.885   6.418 -0.1355  0.0844  0.2371
  805POPS   C2B12150  13.233  17.115   6.813  0.1806  0.1333  0.0793
  805POPS   C3B12151  12.994  17.255   7.183 -0.0078  0.0114 -0.3044
  805POPS   C4B12152  13.100  17.104   7.584  0.0829  0.0923  0.0258
  806YOPS   CNO12153   8.601   3.543   5.811 -0.0066  0.0549  0.1280
  806YOPS   PO412154   8.579   3.142   5.853  0.1212 -0.0399 -0.1661
  806YOPS   GL112155   8.656   3.172   6.280 -0.2439  0.3185  0.0686
  806YOPS   GL212156   8.325   2.976   6.323 -0.0360  0.0797 -0.1833
  806YOPS   C1A12157   8.793   3.351   6.697 -0.1489 -0.1356  0.0955
  806YOPS   D2A12158   8.917   3.232   7.039 -0.1342 -0.3449  0.1120
  806YOPS   C3A12159   9.347   3.273   7.161  0.1673  0.1937 -0.0998
  806YOPS   C4A12160   9.541   3.070   7.606  0.1742 -0.0553 -0.1278
  806YOPS   C1B12161   8.465   2.958   6.800  0.2058 -0.2184  0.1660
  806YOPS   C2B12162   8.518   2.887   7.190  0.1698  0.2664 -0.3926
  806YOPS   D3B12163   8.639   2.825   7.660  0.0935  0.1953  0.2779
  806YOPS   C4B12164   8.377   2.936   7.981 -0.2465 -0.0159  0.0642
  807YOPS   CNO12165   7.470  12.948   5.708 -0.0549  0.0491  0.1756
  807YOPS   PO412166   7.228  12.878   5.933  0.0477 -0.1463 -0.0073
  807YOPS   GL112167   7.023  13.087   6.370 -0.1173  0.0134 -0.0753
  807YOPS   GL212168   6.987  12.673   6.358  0.1131  0.0362  0.4429
  807YOPS   C1A12169   7.001  13.271   6.804 -0.5856 -0.1133  0.2118
  807YOPS   D2A12170   7.186  13.368   7.130 -0.1589 -0.1335  0.0478
  807YOPS   C3A12171   7.079  13.523   7.535 -0.1782 -0.1963  0.0129
  807YOPS   C4A12172   7.401  13.457   7.885 -0.0690  0.0828  0.2203
  807YOPS   C1B12173   6.906  12.317   6.709  0.0837  0.0145  0.0082
  807YOPS   C2B12174   7.142  12.219   7.074 -0.0784 -0.0195 -0.1093
  807YOPS   D3B12175   7.492  12.275   7.221  0.0989 -0.1403 -0.2917
  807YOPS   C4B12176   7.598  12.486   7.522  0.1572 -0.1756  0.1880
  808YOPS   CNO12177   0.521   5.871   6.506  0.0476 -0.2600 -0.1181
  808YOPS   PO412178   0.538   6.278   6.597 -0.0761 -0.3125  0.1481
  808YOPS   GL112179   0.722   6.157   6.927  0.1825 -0.2928 -0.0559
  808YOPS   GL212180   0.813   5.904   6.901 -0.1287  0.1694 -0.2092
  808YOPS   C1A12181   0.419   6.049   7.255  0.1478 -0.1056 -0.4012
  808YOPS   D2A12182   0.425   6.098   7.662  0.4661  0.3319  0.1176
  808YOPS   C3A12183   0.459   5.985   8.063 -0.0367  0.0115 -0.0050
  808YOPS   C4A12184   0.791   5.910   8.319 -0.0695  0.2115 -0.3339
  808YOPS   C1B12185   1.010   5.974   7.321  0.1043 -0.1651 -0.3143
  808YOPS   C2B12186   1.091   6.076   7.743  0.0500  0.1225  0.1084
  808YOPS   D3B12187   0.881   6.377   8.003  0.1545  0.0987  0.3741
  808YOPS   C4B12188   0.915   6.402   8.433  0.4014  0.0894  0.1608
  809YOPS   CNO12189  11.310   1.047   5.526  0.2126 -0.0660 -0.0569
  809YOPS   PO412190  11.281   0.599   5.364  0.1668  0.0281 -0.1161
  809YOPS   GL112191  11.026   0.672   5.739  0.1642 -0.0146 -0.0849
  809YOPS   GL212192  10.707   0.890   5.833 -0.1327 -0.1325  0.0808
  809YOPS   C1A12193  11.201   0.717   6.116 -0.0480  0.1419  0.1999
  809YOPS   D2A12194  11.512   0.691   6.419  0.4001  0.0869  0.2269
  809YOPS   C3A12195  11.796   0.633   6.770  0.1214  0.1561  0.0638
  809YOPS   C4A12196  12.207   0.642   6.714 -0.3098  0.1197  0.1710
  809YOPS   C1B12197  10.670   0.944   6.238 -0.0161  0.0397  0.1945
  809YOPS   C2B12198  10.643   1.060   6.675 -0.0041 -0.1951  0.0323
  809YOPS   D3B12199  10.636   1.037   7.051 -0.1084 -0.0202 -0.0403
  809YOPS   C4B12200  10.504   1.335   7.261 -0.1407 -0.1432  0.2323
  810YOPS   CNO12201  13.676  15.868   5.853  0.4564  0.1992  0.3015
  810YOPS   PO412202  13.418  15.468   6.045  0.0633 -0.1765  0.1500
  810YOPS   GL112203  13.447  15.697   6.347  0.1647 -0.0856  0.0542
  810YOPS   GL212204  13.762  15.716   6.380 -0.3481 -0.3504 -0.0665
  810YOPS   C1A12205  13.191  15.953   6.704  0.1889 -0.1460  0.3501
  810YOPS   D2A12206  13.255  16.114   7.209  0.0183 -0.1953 -0.0324
  810YOPS   C3A12207  13.244  16.234   7.589 -0.2490  0.2286 -0.0565
  810YOPS   C4A12208  13.286  16.631   7.698  0.1168 -0.0735  0.2717
  810YOPS   C1B12209  13.830  15.813   6.759 -0.5515  0.2189 -0.2899
  810YOPS   C2B12210  13.698  15.567   6.995  0.0067  0.0929 -0.1049
  810YOPS   D3B12211  13.614  15.674   7.347 -0.3636 -0.0351 -0.0563
  810YOPS   C4B12212  13.984  15.494   7.598  0.0675  0.1350 -0.1421
  811YOPS   CNO12213  12.601   7.382   5.013 -0.0405  0.4762 -0.0412
  811YOPS   PO412214  12.330   7.447   5.321 -0.1691 -0.0339  0.2072
  811YOPS   GL112215  12.307   7.291   5.711 -0.0564  0.1479 -0.0417
  811YOPS   GL212216  12.563   7.134   5.897  0.1627 -0.1153 -0.0051
  811YOPS   C1A12217  12.150   7.449   6.118 -0.4377 -0.2233  0.0278
  811YOPS   D2A12218  11.975   7.524   6.482 -0.2300  0.1264  0.1845
  811YOPS   C3A12219  11.571   7.237   6.703  0.1215  0.0798  0.0669
  811YOPS   C4A12220  11.656   7.161   7.200  0.1303  0.0678 -0.0434
  811YOPS   C1B12221  12.621   7.164   6.341  0.2175 -0.0535  0.0157
  811YOPS   C2B12222  12.796   7.022   6.790 -0.2407 -0.1225  0.0515
  811YOPS   D3B12223  12.937   6.958   7.181  0.0265 -0.1613 -0.4147
  811YOPS   C4B12224  13.100   6.580   7.445  0.1342 -0.0744  0.0142
  812YOPS   CNO12225  14.871   9.893   4.970  0.2462  0.2852 -0.1133
  812YOPS   PO412226  14.796   9.716   5.332 -0.2367 -0.0258 -0.1029
  812YOPS   GL112227  14.663   9.875   5.828 -0.0809 -0.4329 -0.1527
  812YOPS   GL212228  14.438  10.119   5.808 -0.3116 -0.1289 -0.0213
  812YOPS   C1A12229  14.427   9.565   6.118  0.0261 -0.0306  0.0410
  812YOPS   D2A12230  14.456   9.446   6.545  0.0327 -0.0875  0.1186
  812YOPS   C3A12231  14.357   9.575   7.006 -0.0217  0.2479 -0.1687
  812YOPS   C4A12232  14.597   9.501   7.328 -0.0409 -0.0304  0.0849
  812YOPS   C1B12233  14.529  10.065   6.235  0.1840  0.2115 -0.1740
  812YOPS   C2B12234  14.627   9.967   6.706 -0.0039  0.1256  0.0418
  812YOPS   D3B12235  14.669  10.052   7.202  0.0636  0.0730  0.0422
  812YOPS   C4B12236  14.368   9.956   7.441 -0.0918  0.3236  0.1066
  813YOPS   CNO12237   9.647   9.914   5.869  0.0966  0.0296  0.0306
  813YOPS   PO412238  10.010   9.886   5.923  0.1390  0.1155  0.1259
  813YOPS   GL112239  10.195   9.892   6.306  0.2686 -0.1741  0.1954
  813YOPS   GL212240  10.319   9.543   6.348 -0.3321 -0.2081 -0.0733
  813YOPS   C1A12241  10.180   9.946   6.685  0.0182  0.2012  0.0995
  813YOPS   D2A12242  10.292  10.125   7.129  0.0045  0.1875 -0.0681
  813YOPS   C3A12243  10.284  10.318   7.674 -0.2308  0.3173  0.1386
  813YOPS   C4A12244   9.952  10.151   7.845 -0.0723 -0.3532  0.1295
  813YOPS   C1B12245  10.400   9.538   6.777 -0.1258 -0.2438 -0.1545
  813YOPS   C2B12246  10.420   9.247   7.049  0.1177  0.2250 -0.1415
  813YOPS   D3B12247  10.391   9.217   7.489 -0.0219  0.2114 -0.2444
  813YOPS   C4B12248  10.071   9.253   7.661 -0.0241  0.1032  0.2810
  814YOPS   CNO12249   2.138  12.780   5.596  0.2405 -0.0184  0.1176
  814YOPS   PO412250   2.451  12.937   6.005 -0.2259 -0.2849  0.0462
  814YOPS   GL112251   2.137  12.917   6.351  0.0235  0.0976  0.0503
  814YOPS   GL212252   2.079  12.614   6.381 -0.2847 -0.1466  0.2901
  814YOPS   C1A12253   1.942  13.148   6.750 -0.1981 -0.1415 -0.3116
  814YOPS   D2A12254   1.862  13.342   7.125  0.0184 -0.1102 -0.2405
  814YOPS   C3A12255   1.787  13.268   7.475  0.0203  0.1264 -0.0817
  814YOPS   C4A12256   1.323  13.255   7.781 -0.1091  0.0819  0.1819
  814YOPS   C1B12257   1.930  12.643   6.718  0.1537 -0.1951 -0.2785
  814YOPS   C2B12258   1.786  12.790   7.067 -0.0562  0.2080  0.1991
  814YOPS   D3B12259   1.777  12.681   7.404 -0.2373  0.0658  0.0593
  814YOPS   C4B12260   1.481  12.795   7.783 -0.1282  0.3926 -0.1392
  815YOPS   CNO12261   1.500  12.725   5.543 -0.0537 -0.1314  0.2566
  815YOPS   PO412262   1.722  12.442   5.937  0.0140  0.2009 -0.1513
  815YOPS   GL112263   1.459  12.584   6.269  0.2414 -0.2252 -0.0401
  815YOPS   GL212264   1.578  12.384   6.478 -0.0145 -0.2687 -0.0806
  815YOPS   C1A12265   1.571  12.917   6.483  0.0593 -0.1469 -0.2036
  815YOPS   D2A12266   1.452  13.102   6.850 -0.0816  0.2248  0.0090
  815YOPS   C3A12267   1.406  13.048   7.277 -0.1946 -0.0418  0.2513
  815YOPS   C4A12268   0.985  13.086   7.510 -0.0113 -0.1204  0.0790
  815YOPS   C1B12269   1.602  12.282   6.908  0.0275 -0.0017  0.2364
  815YOPS   C2B12270   1.446  12.260   7.306  0.1490  0.1331  0.1451
  815YOPS   D3B12271   1.448  11.913   7.624 -0.2888  0.1081  0.2105
  815YOPS   C4B12272   1.936  11.863   7.707 -0.2776  0.0045 -0.2404
  816YOPS   CNO12273   0.753  16.143   5.671  0.1742 -0.0086  0.0460
  816YOPS   PO412274   0.583  16.299   6.005 -0.0764 -0.4948 -0.1188
  816YOPS   GL112275   0.418  16.492   6.401  0.0571 -0.0776  0.1371
  816YOPS   GL212276   0.575  16.188   6.522 -0.2032 -0.0565  0.0591
  816YOPS   C1A12277   0.264  16.551   6.717  0.3125 -0.3997 -0.2079
  816YOPS   D2A12278   0.643  16.527   7.139 -0.1223 -0.0414  0.0874
  816YOPS   C3A12279   0.681  16.865   7.445 -0.0903  0.2820  0.0123
  816YOPS   C4A12280   0.574  16.752   7.686  0.1572 -0.1007 -0.2067
  816YOPS   C1B12281   0.622  16.035   7.062 -0.1936 -0.1550 -0.0859
  816YOPS   C2B12282   0.609  16.193   7.534  0.3993 -0.0035 -0.2931
  816YOPS   D3B12283   0.751  16.206   7.933 -0.2720 -0.4728  0.2257
  816YOPS   C4B12284   1.238  16.323   7.996 -0.0368  0.0220  0.0961
  817YOPS   CNO12285  15.480  14.786   5.995  0.2631 -0.0097  0.4195
  817YOPS   PO412286  15.337  14.374   5.911  0.0992 -0.1267  0.1675
  817YOPS   GL112287  15.480  14.071   6.230  0.0809  0.2815  0.0095
  817YOPS   GL212288  15.205  14.180   6.318  0.1902 -0.0834  0.2382
  817YOPS   C1A12289  15.472  13.703   6.475 -0.0462  0.3937 -0.1452
  817YOPS   D2A12290  15.355  13.748   6.982  0.1288  0.2121  0.0192
  817YOPS   C3A12291  15.190  13.777   7.427 -0.1974  0.1933  0.0901
  817YOPS   C4A12292  14.757  13.915   7.576 -0.2737  0.0584 -0.2757
  817YOPS   C1B12293  15.052  14.230   6.809  0.1048  0.3766  0.4320
  817YOPS   C2B12294  15.138  14.209   7.208  0.1409 -0.0184 -0.0364
  817YOPS   D3B12295  15.209  14.280   7.649  0.0748  0.4180  0.1223
  817YOPS   C4B12296  15.311  13.888   7.867  0.0100  0.1797 -0.2139
  818YOPS   CNO12297   5.647  11.538   5.746 -0.0958 -0.0180  0.0524
  818YOPS   PO412298   5.602  11.111   5.715 -0.0652 -0.3223 -0.3489
  818YOPS   GL112299   5.790  11.217   6.158  0.2263 -0.1843  0.1267
  818YOPS   GL212300   5.536  11.231   6.364  0.2844 -0.0604 -0.1609
  818YOPS   C1A12301   6.087  11.265   6.508 -0.0489  0.0572 -0.0719
  818YOPS   D2A12302   6.120  11.182   6.975  0.3447  0.0929  0.0522
  818YOPS   C3A12303   6.084  11.243   7.408  0.1914  0.0772 -0.0987
  818YOPS   C4A12304   6.343  11.279   7.779 -0.1273  0.0173 -0.1177
  818YOPS   C1B12305   5.648  11.131   6.823 -0.0741  0.0216  0.2775
  818YOPS   C2B12306   5.522  10.943   7.231  0.0696 -0.0780  0.1883
  818YOPS   D3B12307   5.782  10.769   7.663  0.0575  0.0547  0.1896
  818YOPS   C4B12308   6.182  10.873   7.922 -0.4117  0.0001 -0.0572
  819YOPS   CNO12309   3.801  10.827   5.504 -0.1533 -0.2186  0.2102
  819YOPS   PO412310   4.104  10.834   5.852  0.0303  0.0090 -0.3210
  819YOPS   GL112311   4.100  10.860   6.297 -0.1921 -0.2913  0.2236
  819YOPS   GL212312   3.967  10.532   6.363 -0.1697 -0.0351 -0.1873
  819YOPS   C1A12313   4.449  10.974   6.589 -0.0616  0.1196 -0.1126
  819YOPS   D2A12314   4.646  10.791   6.837 -0.3026 -0.1917 -0.0449
  819YOPS   C3A12315   4.685  10.485   7.074  0.1452  0.1130  0.1064
  819YOPS   C4A12316   4.631  10.433   7.544 -0.1222  0.2941 -0.1084
  819YOPS   C1B12317   4.187  10.537   6.756  0.3706  0.0300 -0.0238
  819YOPS   C2B12318   4.114  10.434   7.241  0.0155 -0.2938  0.1390
  819YOPS   D3B12319   4.130  10.410   7.670  0.0703 -0.0556  0.0352
  819YOPS   C4B12320   3.907  10.669   7.846  0.1903 -0.0088 -0.2558
  820YOPS   CNO12321   4.575   7.352   5.697 -0.3621 -0.0547  0.1041
  820YOPS   PO412322   4.760   6.974   5.904  0.0269  0.0136 -0.3320
  820YOPS   GL112323   4.910   6.952   6.359 -0.2158 -0.0959 -0.1488
  820YOPS   GL212324   5.122   7.187   6.364  0.1985 -0.2349  0.1489
  820YOPS   C1A12325   4.865   6.877   6.744  0.2490  0.0428 -0.0669
  820YOPS   D2A12326   5.132   6.600   7.080 -0.3351 -0.0012  0.1287
  820YOPS   C3A12327   5.294   6.654   7.533  0.1613 -0.1590  0.1637
  820YOPS   C4A12328   5.071   6.408   7.909  0.0968  0.1896  0.1707
  820YOPS   C1B12329   5.216   7.293   6.797  0.0262  0.1136 -0.0713
  820YOPS   C2B12330   5.377   7.346   7.199  0.0764  0.3793 -0.4249
  820YOPS   D3B12331   5.719   7.521   7.393  0.4987 -0.1958 -0.1182
  820YOPS   C4B12332   5.779   7.443   7.908  0.2626 -0.1053  0.1115
  821YOPS   CNO12333   9.073   0.685   6.314  0.0009 -0.3706 -0.1188
  821YOPS   PO412334   8.688   0.587   6.300  0.1615  0.2698 -0.2259
  821YOPS   GL112335   8.971   0.405   6.703  0.1058  0.4006 -0.1466
  821YOPS   GL212336   9.299   0.422   6.660 -0.0684  0.0903  0.0712
  821YOPS   C1A12337   9.132   0.255   7.094  0.0673 -0.1567  0.2663
  821YOPS   D2A12338   9.345   0.370   7.454  0.0731 -0.3054  0.1371
  821YOPS   C3A12339   9.504   0.433   7.735 -0.2773 -0.3399 -0.0485
  821YOPS   C4A12340   9.627   0.943   7.898  0.0004 -0.2323  0.1577
  821YOPS   C1B12341   9.393   0.653   6.972 -0.0906 -0.1901 -0.0506
  821YOPS   C2B12342   9.762   0.721   7.399 -0.4199 -0.0695  0.1499
  821YOPS   D3B12343   9.990   0.446   7.564  0.0072 -0.1618 -0.1094
  821YOPS   C4B12344  10.362   0.672   7.824  0.2118  0.0078 -0.0026
  822YOPS   CNO12345   2.735  17.713   6.313  0.0923 -0.0682  0.2310
  822YOPS   PO412346   2.777  17.325   6.198  0.0064  0.1109 -0.0533
  822YOPS   GL112347   2.792  17.203   6.499  0.1544  0.1402  0.0685
  822YOPS   GL212348   2.812  16.997   6.735  0.0251  0.0373 -0.0271
  822YOPS   C1A12349   2.961  17.508   6.715 -0.1198  0.0051 -0.3435
  822YOPS   D2A12350   3.031  17.869   6.971  0.1637 -0.3503 -0.2440
  822YOPS   C3A12351   3.020  17.997   7.392 -0.4589 -0.2633 -0.0514
  822YOPS   C4A12352   2.687  17.933   7.585  0.2209 -0.1653  0.3504
  822YOPS   C1B12353   2.602  16.963   7.119 -0.0886 -0.0329 -0.2996
  822YOPS   C2B12354   2.598  16.828   7.538 -0.0099  0.2704  0.0943
  822YOPS   D3B12355   2.412  16.982   7.870 -0.1189  0.3085 -0.1589
  822YOPS   C4B12356   2.095  16.788   8.164 -0.1116 -0.1122  0.0095
  823YOPS   CNO12357   3.511   0.756   6.405  0.1136  0.0178  0.1910
  823YOPS   PO412358   3.957   0.734   6.335  0.2494  0.0196  0.2491
  823YOPS   GL112359   4.168   0.650   6.696  0.0424  0.1776 -0.0055
  823YOPS   GL212360   4.492   0.516   6.588  0.2465 -0.0896  0.0008
  823YOPS   C1A12361   4.179   0.669   7.128  0.0149 -0.0799  0.0349
  823YOPS   D2A12362   4.301   0.705   7.635 -0.3492  0.1796 -0.1517
  823YOPS   C3A12363   4.493   0.960   8.075  0.0286 -0.0049  0.0652
  823YOPS   C4A12364   4.691   1.320   7.991 -0.0012 -0.3220 -0.1166
  823YOPS   C1B12365   4.657   0.572   6.901  0.1663  0.1089 -0.1105
  823YOPS   C2B12366   4.861   0.571   7.320  0.2725  0.0762  0.3520
  823YOPS   D3B12367   4.887   0.527   7.702 -0.1784 -0.4624  0.3716
  823YOPS   C4B12368   4.618   0.417   8.094  0.0483 -0.3051 -0.2880
  824YOPS   CNO12369  13.277   2.171   5.465 -0.1311  0.1721 -0.0326
  824YOPS   PO412370  13.517   2.086   5.824 -0.3172 -0.0156  0.1191
  824YOPS   GL112371  13.500   1.828   6.236 -0.0650  0.0005  0.1850
  824YOPS   GL212372  13.459   1.527   6.216  0.1958  0.0886 -0.4253
  824YOPS   C1A12373  13.505   2.111   6.561 -0.1702 -0.0860 -0.0787
  824YOPS   D2A12374  13.452   2.091   7.040  0.1268  0.1500  0.0442
  824YOPS   C3A12375  13.130   2.031   7.250 -0.1029  0.0147  0.1694
  824YOPS   C4A12376  13.010   2.311   7.588 -0.0317  0.2341 -0.0813
  824YOPS   C1B12377  13.268   1.494   6.523  0.0715  0.2149  0.0758
  824YOPS   C2B12378  13.302   1.584   6.849 -0.3656  0.0574 -0.1974
  824YOPS   D3B12379  13.421   1.354   7.173 -0.0875 -0.0641  0.1155
  824YOPS   C4B12380  13.326   1.651   7.529 -0.0719  0.1349  0.2292
  825YOPS   CNO12381  16.269   4.636   6.013  0.0392 -0.1515  0.2692
  825YOPS   PO412382  15.940   4.771   6.253 -0.2854  0.0390  0.0514
  825YOPS   GL112383  15.810   4.523   6.582  0.2843  0.0929  0.0440
  825YOPS   GL212384  15.811   4.345   6.615 -0.2063  0.0701  0.0838
  825YOPS   C1A12385  15.476   4.659   6.943  0.2622  0.1452  0.1898
  825YOPS   D2A12386  15.367   4.958   7.171  0.0235 -0.2979 -0.2363
  825YOPS   C3A12387  15.436   5.478   7.302 -0.0521  0.0290 -0.0889
  825YOPS   C4A12388  15.910   5.646   7.491  0.0555  0.4600 -0.1166
  825YOPS   C1B12389  15.652   4.129   6.965  0.1022 -0.0806  0.0066
  825YOPS   C2B12390  15.501   4.051   7.300  0.1452  0.0135  0.0597
  825YOPS   D3B12391  15.512   4.146   7.756 -0.2577  0.0603 -0.1486
  825YOPS   C4B12392  15.680   3.899   8.069  0.0323 -0.0698  0.1735
  826YOPS   CNO12393   3.415  11.996   6.099 -0.1467 -0.0847 -0.2915
  826YOPS   PO412394   3.679  12.359   5.959 -0.1058  0.1253 -0.1319
  826YOPS   GL112395   3.570  12.464   6.395 -0.0860 -0.1894 -0.0601
  826YOPS   GL212396   3.722  12.730   6.472  0.4336 -0.1877  0.1123
  826YOPS   C1A12397   3.309  12.601   6.747 -0.1510  0.3531  0.1085
  826YOPS   D2A12398   3.296  12.956   7.083  0.0750 -0.0594 -0.1960
  826YOPS   C3A12399   3.281  13.140   7.497 -0.1727 -0.1040 -0.1439
  826YOPS   C4A12400   2.901  13.401   7.749 -0.3624 -0.3525  0.3429
  826YOPS   C1B12401   3.739  12.842   6.913 -0.1143  0.3673  0.0582
  826YOPS   C2B12402   3.700  12.932   7.453  0.0146 -0.0785  0.2594
  826YOPS   D3B12403   3.584  12.848   7.802  0.0441  0.0507  0.0896
  826YOPS   C4B12404   3.798  12.421   7.755  0.0373  0.1108 -0.1302
  827YOPS   CNO12405   5.827  14.748   6.107 -0.0174 -0.2462 -0.1146
  827YOPS   PO412406   5.615  15.006   6.434  0.0528  0.1035  0.0570
  827YOPS   GL112407   5.872  14.811   6.622  0.0120 -0.1138 -0.3923
  827YOPS   GL212408   6.092  14.524   6.526 -0.2384 -0.1588 -0.0372
  827YOPS   C1A12409   5.978  14.706   7.007 -0.0574  0.0153  0.0246
  827YOPS   D2A12410   5.911  14.722   7.453 -0.1166 -0.1926  0.5325
  827YOPS   C3A12411   5.786  14.992   7.800  0.1783  0.2052 -0.0958
  827YOPS   C4A12412   5.601  15.162   8.140 -0.3131  0.3096  0.1420
  827YOPS   C1B12413   6.264  14.338   6.943  0.0329 -0.0452  0.2174
  827YOPS   C2B12414   6.401  14.627   7.228 -0.2903  0.1089  0.0940
  827YOPS   D3B12415   6.406  14.485   7.621  0.0564 -0.2457  0.1281
  827YOPS   C4B12416   6.347  14.120   7.904  0.5169 -0.1361 -0.0780
  828YOPS   CNO12417   7.503   6.631   5.866 -0.0024 -0.2852  0.1204
  828YOPS   PO412418   7.172   6.860   5.978  0.0880 -0.1913 -0.0217
  828YOPS   GL112419   7.229   6.679   6.313 -0.0790 -0.0858  0.3805
  828YOPS   GL212420   6.880   6.758   6.414 -0.3006  0.1394 -0.3453
  828YOPS   C1A12421   7.246   6.852   6.770  0.2072 -0.1491 -0.0112
  828YOPS   D2A12422   7.149   6.896   7.157 -0.2980 -0.0123 -0.2281
  828YOPS   C3A12423   6.982   6.852   7.548 -0.1829  0.0372  0.0773
  828YOPS   C4A12424   7.066   7.178   7.893  0.1565 -0.0402 -0.2459
  828YOPS   C1B12425   6.687   6.760   6.897 -0.4381  0.2409  0.0191
  828YOPS   C2B12426   6.406   6.906   7.204  0.0635 -0.1927 -0.2333
  828YOPS   D3B12427   6.566   7.189   7.537 -0.1451 -0.0738  0.3333
  828YOPS   C4B12428   6.176   7.376   7.413 -0.0178 -0.1433 -0.1944
  829YOPS   CNO12429   4.453   5.095   5.580  0.0573  0.0773 -0.0882
  829YOPS   PO412430   4.506   4.861   5.851 -0.3198  0.1779 -0.3348
  829YOPS   GL112431   4.598   4.981   6.180 -0.2108 -0.1239  0.1321
  829YOPS   GL212432   4.389   4.663   6.291 -0.4003  0.2491 -0.1254
  829YOPS   C1A12433   4.475   5.227   6.516  0.2562 -0.1177 -0.3344
  829YOPS   D2A12434   4.458   5.626   6.787  0.2438 -0.0696 -0.0567
  829YOPS   C3A12435   4.348   5.925   7.129 -0.2683  0.3116 -0.0693
  829YOPS   C4A12436   4.089   6.002   7.438  0.0920  0.0948  0.0933
  829YOPS   C1B12437   4.504   4.375   6.631  0.3637 -0.2858 -0.1311
  829YOPS   C2B12438   4.646   4.333   7.081 -0.1193 -0.0123  0.0309
  829YOPS   D3B12439   4.786   4.490   7.526  0.0580 -0.3283  0.1276
  829YOPS   C4B12440   4.678   4.599   8.012 -0.2316  0.2223  0.0221
  830YOPS   CNO12441  12.175  15.005   6.264  0.1825  0.0014  0.0347
  830YOPS   PO412442  11.751  15.218   6.017  0.2396 -0.0653 -0.1094
  830YOPS   GL112443  11.767  15.431   6.390  0.0585  0.3055 -0.0311
  830YOPS   GL212444  11.741  15.102   6.619  0.0824  0.1726 -0.0164
  830YOPS   C1A12445  11.726  15.657   6.824  0.1137 -0.0427  0.3379
  830YOPS   D2A12446  11.941  15.619   7.281 -0.0789 -0.1219  0.4362
  830YOPS   C3A12447  11.929  15.345   7.593  0.1027  0.2821 -0.3271
  830YOPS   C4A12448  12.287  15.370   7.930  0.1341 -0.0216  0.2164
  830YOPS   C1B12449  11.647  15.231   7.026 -0.0268 -0.0721  0.0574
  830YOPS   C2B12450  11.437  15.167   7.477 -0.0912  0.1748 -0.6575
  830YOPS   D3B12451  11.476  15.330   7.858  0.2069  0.2377  0.0403
  830YOPS   C4B12452  11.857  15.629   7.963  0.0791 -0.1325  0.0693
  831YOPS   CNO12453   1.120   8.803   5.755 -0.0318  0.0587  0.2125
  831YOPS   PO412454   0.685   8.735   6.107  0.1282 -0.1160 -0.1392
  831YOPS   GL112455   0.527   8.944   6.440 -0.1333  0.0784  0.1705
  831YOPS   GL212456   0.329   8.812   6.672 -0.1226  0.2589  0.2355
  831YOPS   C1A12457   0.720   9.103   6.750 -0.2216  0.3091  0.3936
  831YOPS   D2A12458   0.990   9.213   6.961  0.2703  0.0150 -0.5281
  831YOPS   C3A12459   1.013   9.356   7.305 -0.2620 -0.0421  0.0017
  831YOPS   C4A12460   1.135   9.074   7.666 -0.0407  0.0557 -0.2945
  831YOPS   C1B12461   0.318   8.986   7.004 -0.1583  0.1398 -0.2726
  831YOPS   C2B12462   0.481   9.250   7.346  0.2438 -0.1036  0.1327
  831YOPS   D3B12463   0.734   9.389   7.702 -0.2316  0.0578 -0.3157
  831YOPS   C4B12464   0.772   9.668   7.977 -0.0682  0.0396  0.1358
  832YOPS   CNO12465   3.168   0.788   5.522  0.3514 -0.0359 -0.2551
  832YOPS   PO412466   3.118   0.643   5.900  0.0424  0.1448 -0.1541
  832YOPS   GL112467   3.018   0.398   6.320  0.2854  0.0562 -0.3715
  832YOPS   GL212468   2.922   0.645   6.600 -0.0487 -0.1745  0.1404
  832YOPS   C1A12469   3.161   0.251   6.781  0.0003  0.0176  0.1578
  832YOPS   D2A12470   3.080   0.305   7.261 -0.0157 -0.2812  0.0734
  832YOPS   C3A12471   3.328   0.289   7.593  0.1244  0.2145  0.1308
  832YOPS   C4A12472   3.129   0.194   7.928  0.0126  0.0581  0.0252
  832YOPS   C1B12473   2.758   0.561   6.983  0.2504  0.3630 -0.1918
  832YOPS   C2B12474   2.350   0.559   7.255  0.1136  0.0040  0.2175
  832YOPS   D3B12475   2.316   0.548   7.745  0.0688  0.5298  0.1658
  832YOPS   C4B12476   1.949   0.792   7.934  0.2812  0.1953  0.3751
  833YOPS   CNO12477   3.947   8.035   6.263 -0.0391 -0.1911  0.1882
  833YOPS   PO412478   3.951   7.520   6.276  0.0666  0.2356  0.2682
  833YOPS   GL112479   4.231   7.528   6.533  0.0662 -0.1584 -0.0844
  833YOPS   GL212480   4.101   7.756   6.688 -0.0170 -0.1135 -0.2324
  833YOPS   C1A12481   4.711   7.390   6.758 -0.1211  0.1117 -0.3776
  833YOPS   D2A12482   4.824   7.268   7.086 -0.0535 -0.2972  0.2091
  833YOPS   C3A12483   4.995   7.124   7.545 -0.0260  0.1068 -0.1477
  833YOPS   C4A12484   5.337   7.351   7.710 -0.1858  0.3527  0.0772
  833YOPS   C1B12485   4.231   7.411   7.047 -0.0147  0.0524 -0.0126
  833YOPS   C2B12486   4.171   7.062   7.324 -0.1801  0.0224  0.1534
  833YOPS   D3B12487   4.150   6.879   7.660 -0.2224 -0.2545  0.0803
  833YOPS   C4B12488   3.772   6.820   7.968 -0.0239  0.1333  0.4579
  834YOPS   CNO12489  14.432   7.260   5.560 -0.3265  0.0886  0.0320
  834YOPS   PO412490  13.955   7.449   5.542 -0.0383 -0.0095 -0.1418
  834YOPS   GL112491  13.896   7.724   5.862 -0.2672  0.0378 -0.1739
  834YOPS   GL212492  14.174   7.810   5.780 -0.0626 -0.0348 -0.0545
  834YOPS   C1A12493  13.775   7.827   6.258  0.0237 -0.1804  0.2193
  834YOPS   D2A12494  13.726   7.826   6.618  0.0049 -0.1035 -0.1126
  834YOPS   C3A12495  13.518   8.008   6.924  0.0139 -0.0888 -0.1390
  834YOPS   C4A12496  13.394   7.911   7.336 -0.2635 -0.3089  0.0138
  834YOPS   C1B12497  14.402   7.643   6.145  0.0060 -0.1437 -0.0942
  834YOPS   C2B12498  14.123   7.481   6.553  0.1268 -0.0159  0.2933
  834YOPS   D3B12499  14.138   7.642   6.959 -0.0727 -0.1094 -0.0365
  834YOPS   C4B12500  14.505   7.494   7.260  0.2598  0.0180  0.0293
  835POPE   NH312501   6.724  16.430   6.428 -0.0858 -0.0301  0.0223
  835POPE   PO412502   6.944  16.103   6.234  0.1621  0.1597  0.3229
  835POPE   GL112503   7.028  15.969   6.593  0.1250  0.2395 -0.4666
  835POPE   GL212504   6.622  16.030   6.683  0.3112  0.1233  0.1134
  835POPE   C1A12505   7.141  15.662   6.952 -0.3365 -0.1923  0.2338
  835POPE   D2A12506   7.386  15.593   7.280  0.1457  0.0595 -0.2816
  835POPE   C3A12507   7.316  15.555   7.628  0.3347 -0.1264 -0.0502
  835POPE   C4A12508   7.649  15.366   7.908  0.0719  0.0258 -0.1597
  835POPE   C1B12509   6.339  16.032   6.910  0.1088 -0.2461  0.0915
  835POPE   C2B12510   6.316  15.838   7.246 -0.0262 -0.0263 -0.2892
  835POPE   C3B12511   6.396  15.470   7.549  0.1360  0.3236  0.1076
  835POPE   C4B12512   6.296  15.035   7.645  0.4902  0.4077  0.2919
  836POPE   NH312513   2.425   3.585   6.383 -0.0122  0.1486  0.1953
  836POPE   PO412514   2.364   4.056   6.573  0.0002 -0.0613  0.3482
  836POPE   GL112515   1.992   4.056   6.730 -0.0108  0.2036 -0.2365
  836POPE   GL212516   1.706   3.953   6.683  0.0966  0.0081  0.1255
  836POPE   C1A12517   2.041   4.154   7.173  0.2317 -0.4260  0.3442
  836POPE   D2A12518   2.210   4.193   7.509 -0.0665 -0.0027 -0.0634
  836POPE   C3A12519   1.942   4.152   7.887  0.1390 -0.4517  0.1183
  836POPE   C4A12520   1.603   4.200   8.105  0.0459  0.0338 -0.1611
  836POPE   C1B12521   1.562   4.154   6.911 -0.1597  0.0835  0.1586
  836POPE   C2B12522   1.428   4.089   7.293  0.1987 -0.1066  0.0037
  836POPE   C3B12523   1.537   3.897   7.742 -0.2660  0.0015 -0.3143
  836POPE   C4B12524   1.548   3.485   7.893 -0.1009 -0.4396 -0.1485
  837POPE   NH312525  10.476   2.083   5.348  0.1549 -0.1322  0.2639
  837POPE   PO412526  10.168   1.831   5.477 -0.4188 -0.1941  0.2540
  837POPE   GL112527  10.123   1.830   5.977 -0.5941 -0.0010  0.0090
  837POPE   GL212528   9.942   2.106   5.950 -0.3880  0.0007  0.1202
  837POPE   C1A12529  10.314   1.675   6.361  0.0593  0.0701  0.1398
  837POPE   D2A12530  10.151   1.377   6.684  0.1026  0.1155 -0.0637
  837POPE   C3A12531   9.720   1.436   6.792 -0.1712  0.4351  0.1695
  837POPE   C4A12532   9.384   1.224   7.000  0.0701  0.2253  0.1314
  837POPE   C1B12533  10.001   2.045   6.421  0.0481  0.1362  0.0010
  837POPE   C2B12534  10.072   1.865   6.754  0.0444  0.0943  0.0218
  837POPE   C3B12535  10.125   1.589   7.133  0.0692  0.1416 -0.1329
  837POPE   C4B12536  10.006   1.403   7.508 -0.3412 -0.1092 -0.1525
  838POPE   NH312537  13.927   3.351   5.533 -0.1240  0.1823 -0.5347
  838POPE   PO412538  13.747   3.785   5.508  0.1024 -0.2954  0.0656
  838POPE   GL112539  13.644   3.629   5.828 -0.2888  0.0707  0.1025
  838POPE   GL212540  13.980   3.775   5.949 -0.3226 -0.1169  0.1079
  838POPE   C1A12541  13.653   3.597   6.296 -0.2707  0.0257  0.0086
  838POPE   D2A12542  13.509   3.502   6.675  0.2484 -0.1882  0.0854
  838POPE   C3A12543  13.701   3.561   7.029  0.1544  0.0006 -0.1736
  838POPE   C4A12544  13.567   3.516   7.501 -0.0306  0.1751 -0.1748
  838POPE   C1B12545  13.951   4.003   6.344 -0.0026 -0.1475 -0.0287
  838POPE   C2B12546  13.749   3.995   6.699 -0.0697  0.1509 -0.0353
  838POPE   C3B12547  13.772   4.019   7.160 -0.0274  0.2764  0.0958
  838POPE   C4B12548  13.785   4.219   7.599 -0.0192 -0.3785 -0.1091
  839POPE   NH312549   4.840   7.503   6.064 -0.3468 -0.1373 -0.0481
  839POPE   PO412550   5.213   7.530   5.809 -0.1806 -0.0012 -0.2289
  839POPE   GL112551   5.232   7.785   6.043 -0.0742  0.2714 -0.2624
  839POPE   GL212552   5.224   7.629   6.403 -0.0081 -0.2758 -0.1962
  839POPE   C1A12553   5.266   8.163   6.328  0.1843 -0.1087  0.1047
  839POPE   D2A12554   5.443   8.465   6.595  0.1197 -0.1053 -0.1393
  839POPE   C3A12555   5.376   8.387   7.026 -0.0255 -0.4138  0.4290
  839POPE   C4A12556   5.202   8.530   7.433  0.1826  0.0813  0.1821
  839POPE   C1B12557   5.049   7.762   6.750 -0.1887  0.3811  0.1159
  839POPE   C2B12558   5.067   7.719   7.217  0.1407  0.2822 -0.3744
  839POPE   C3B12559   4.899   7.637   7.647  0.0587  0.2473  0.1221
  839POPE   C4B12560   4.877   7.247   7.986  0.1008  0.2289  0.1614
  840POPE   NH312561   9.906  10.871   6.131 -0.0808  0.1354  0.0746
  840POPE   PO412562  10.167  11.291   6.012  0.1681  0.0426  0.2866
  840POPE   GL112563  10.064  11.363   6.414 -0.0679  0.0785  0.0331
  840POPE   GL212564  10.266  11.087   6.468 -0.0341 -0.2421 -0.1116
  840POPE   C1A12565   9.946  11.258   6.851  0.2064 -0.1102 -0.0095
  840POPE   D2A12566   9.888  11.176   7.272  0.1265 -0.0345  0.0921
  840POPE   C3A12567  10.157  11.121   7.462 -0.1903  0.1392 -0.1970
  840POPE   C4A12568  10.377  10.893   7.717 -0.3358  0.0145 -0.1134
  840POPE   C1B12569  10.400  11.044   6.959 -0.1846 -0.2534 -0.0374
  840POPE   C2B12570  10.509  11.367   7.220  0.1592  0.0825 -0.3974
  840POPE   C3B12571  10.533  11.473   7.568 -0.3381  0.0583 -0.1719
  840POPE   C4B12572  10.516  11.327   7.868  0.0584  0.0091  0.1708
  841POPE   NH312573   3.662  10.587   5.918 -0.0762 -0.2679 -0.4436
  841POPE   PO412574   3.660  10.209   6.119  0.0825 -0.0703 -0.1292
  841POPE   GL112575   3.529  10.340   6.564 -0.0335  0.0202 -0.1355
  841POPE   GL212576   3.172  10.330   6.678  0.2929  0.1226  0.1501
  841POPE   C1A12577   3.638  10.533   7.012 -0.1438  0.0066  0.0116
  841POPE   D2A12578   3.746  10.771   7.362  0.3673  0.0823  0.0798
  841POPE   C3A12579   3.780  11.155   7.505 -0.1307  0.0414  0.0766
  841POPE   C4A12580   3.473  11.449   7.616 -0.1819  0.1427  0.0621
  841POPE   C1B12581   3.133  10.451   7.104 -0.1219 -0.1978  0.2604
  841POPE   C2B12582   2.912  10.506   7.500 -0.1644 -0.0107  0.1416
  841POPE   C3B12583   2.653  10.179   7.694 -0.0063  0.0960  0.1473
  841POPE   C4B12584   2.353   9.995   7.695 -0.0845 -0.1673  0.2667
  842POPE   NH312585  12.758   4.764   5.466 -0.0818  0.3875  0.3094
  842POPE   PO412586  12.333   4.447   5.491  0.0465 -0.1836 -0.2716
  842POPE   GL112587  12.285   4.358   5.873  0.0414 -0.1913 -0.0932
  842POPE   GL212588  12.351   4.687   5.983  0.1014 -0.4031 -0.0195
  842POPE   C1A12589  12.022   4.488   6.319 -0.3381  0.0050  0.0066
  842POPE   D2A12590  11.762   4.485   6.745 -0.0162  0.1005  0.0458
  842POPE   C3A12591  11.824   4.703   7.091 -0.1758 -0.0753  0.0927
  842POPE   C4A12592  12.104   4.903   7.405 -0.1594  0.0525 -0.4197
  842POPE   C1B12593  12.550   4.458   6.288 -0.2307  0.0859  0.1344
  842POPE   C2B12594  12.316   4.247   6.692  0.0341 -0.0208  0.0849
  842POPE   C3B12595  12.178   4.015   7.107  0.0217  0.0973  0.1897
  842POPE   C4B12596  12.145   3.933   7.529  0.0555  0.0632 -0.1042
  843POPE   NH312597   1.936   4.359   5.892 -0.0927 -0.0428 -0.2059
  843POPE   PO412598   1.655   4.286   6.220  0.0663  0.1367  0.1333
  843POPE   GL112599   1.546   4.429   6.527 -0.0755  0.2896  0.0070
  843POPE   GL212600   1.447   4.719   6.505 -0.0518  0.0178 -0.2804
  843POPE   C1A12601   1.192   4.536   6.845 -0.4446 -0.0737 -0.0169
  843POPE   D2A12602   1.097   4.489   7.328  0.2500 -0.0262 -0.0714
  843POPE   C3A12603   0.647   4.444   7.389 -0.1916  0.1441  0.0260
  843POPE   C4A12604   0.435   4.262   7.769  0.0930  0.0754 -0.1123
  843POPE   C1B12605   1.616   4.857   6.992  0.5576 -0.1523 -0.0592
  843POPE   C2B12606   1.990   4.701   7.274 -0.0129 -0.3466 -0.1730
  843POPE   C3B12607   2.410   4.503   7.155 -0.1323  0.1047  0.0432
  843POPE   C4B12608   2.648   4.202   7.130 -0.0769 -0.4885  0.1144
  844POPE   NH312609  15.627   2.761   5.796  0.0328  0.1116  0.0726
  844POPE   PO412610  15.834   2.493   6.140 -0.2029  0.0312  0.1230
  844POPE   GL112611  15.826   2.524   6.511 -0.1658  0.1043  0.2319
  844POPE   GL212612  16.049   2.716   6.656  0.0525  0.0485  0.3465
  844POPE   C1A12613  15.567   2.725   6.712 -0.2298  0.0515 -0.1931
  844POPE   D2A12614  15.514   2.887   7.123  0.1371  0.0298 -0.0350
  844POPE   C3A12615  15.196   2.824   7.224  0.0146  0.0573 -0.0842
  844POPE   C4A12616  14.773   2.734   7.083 -0.0452 -0.0017 -0.1435
  844POPE   C1B12617  15.946   2.580   7.067 -0.0063  0.0373 -0.5646
  844POPE   C2B12618  15.774   2.670   7.523 -0.0979 -0.0983  0.1682
  844POPE   C3B12619  15.879   2.832   7.901 -0.0647 -0.1850  0.0059
  844POPE   C4B12620  16.051   3.178   8.054  0.1651 -0.1628  0.0069
  845POPE   NH312621   3.567   4.952   6.262  0.2719 -0.1952 -0.2239
  845POPE   PO412622   3.610   4.526   6.048 -0.2180  0.2024  0.1145
  845POPE   GL112623   3.865   4.497   6.385 -0.2159 -0.2215  0.0095
  845POPE   GL212624   4.091   4.262   6.391  0.2906  0.2306  0.2471
  845POPE   C1A12625   4.122   4.621   6.865  0.1834 -0.1646  0.2431
  845POPE   D2A12626   4.299   4.758   7.256 -0.0215  0.2381  0.0638
  845POPE   C3A12627   4.326   4.976   7.653  0.1477  0.2176  0.1916
  845POPE   C4A12628   4.082   5.167   7.947 -0.0584  0.1598  0.1341
  845POPE   C1B12629   4.292   3.953   6.740 -0.0343 -0.1444  0.0190
  845POPE   C2B12630   4.514   3.874   7.102  0.1379  0.0758  0.2270
  845POPE   C3B12631   4.572   4.049   7.564  0.0304 -0.2615 -0.2363
  845POPE   C4B12632   4.845   3.982   7.835 -0.2047 -0.1525 -0.2353
  846POPE   NH312633   3.963  17.174   5.837  0.1220  0.1630 -0.2203
  846POPE   PO412634   3.649  16.812   6.036 -0.5122 -0.1497  0.0866
  846POPE   GL112635   3.477  16.760   6.542 -0.0187 -0.0765  0.0500
  846POPE   GL212636   3.282  17.031   6.613  0.1052 -0.2411 -0.0737
  846POPE   C1A12637   3.441  16.594   6.938  0.0082  0.1702 -0.0553
  846POPE   D2A12638   3.428  16.396   7.277  0.1026  0.2105  0.0690
  846POPE   C3A12639   3.522  16.630   7.577 -0.4002  0.2559 -0.2029
  846POPE   C4A12640   3.369  16.950   7.743 -0.1455  0.1708 -0.0474
  846POPE   C1B12641   3.637  17.215   6.804 -0.2012 -0.1097  0.0957
  846POPE   C2B12642   3.929  17.686   6.939 -0.1653  0.5550  0.2346
  846POPE   C3B12643   3.879  18.095   7.047  0.0882 -0.0473 -0.1201
  846POPE   C4B12644   3.807  18.478   7.272  0.0006 -0.1280  0.1289
  847POPE   NH312645   8.942  14.968   6.320  0.2811  0.2469  0.3878
  847POPE   PO412646   8.599  14.770   6.416  0.5011 -0.3785 -0.1152
  847POPE   GL112647   8.746  14.802   6.794  0.1324  0.0000  0.1109
  847POPE   GL212648   8.503  14.827   6.954 -0.1485  0.0036 -0.4296
  847POPE   C1A12649   8.924  14.692   7.168  0.0889 -0.3665 -0.0753
  847POPE   D2A12650   9.008  14.525   7.576 -0.6677 -0.0569 -0.0597
  847POPE   C3A12651   9.430  14.617   7.708  0.2174  0.1158  0.0735
  847POPE   C4A12652   9.866  14.469   7.851  0.2275  0.0199  0.4083
  847POPE   C1B12653   8.500  14.768   7.451  0.1775 -0.1473 -0.2570
  847POPE   C2B12654   8.760  15.096   7.651  0.1019  0.0661 -0.2038
  847POPE   C3B12655   9.184  15.040   7.488  0.5029 -0.0246 -0.3093
  847POPE   C4B12656   9.485  15.321   7.600  0.1459 -0.0682  0.0574
  848POPE   NH312657  11.954  16.591   5.729 -0.1161  0.0791  0.3456
  848POPE   PO412658  12.120  16.237   5.945 -0.3269 -0.2682 -0.1639
  848POPE   GL112659  12.184  16.297   6.296 -0.1686  0.0218  0.1278
  848POPE   GL212660  12.095  16.569   6.404  0.3243 -0.0418 -0.0553
  848POPE   C1A12661  12.296  16.281   6.735  0.1154  0.0717  0.1462
  848POPE   D2A12662  12.481  16.519   7.076 -0.1968 -0.1970  0.1422
  848POPE   C3A12663  12.402  16.395   7.434 -0.1233 -0.0940 -0.1466
  848POPE   C4A12664  12.445  16.210   7.885  0.1226  0.4771 -0.1956
  848POPE   C1B12665  12.038  16.738   6.822  0.1215 -0.1247 -0.0267
  848POPE   C2B12666  12.089  16.900   7.181  0.1106 -0.4564 -0.2914
  848POPE   C3B12667  11.895  17.065   7.525  0.3709 -0.1814 -0.0048
  848POPE   C4B12668  11.855  16.966   7.988  0.0478 -0.0849  0.3184
  849POPE   NH312669  13.013  14.017   6.031 -0.2796 -0.1965  0.1298
  849POPE   PO412670  13.172  14.431   5.988 -0.2421  0.0236  0.1100
  849POPE   GL112671  13.132  14.428   6.410  0.1126 -0.0026  0.1722
  849POPE   GL212672  12.810  14.532   6.476 -0.0099 -0.0372 -0.0006
  849POPE   C1A12673  13.218  14.414   6.767 -0.1953  0.0457  0.0453
  849POPE   D2A12674  13.543  14.656   7.088 -0.1726  0.0461  0.0294
  849POPE   C3A12675  13.920  14.985   7.348 -0.0280 -0.0338  0.1756
  849POPE   C4A12676  14.150  15.350   7.116 -0.1793  0.0153 -0.0400
  849POPE   C1B12677  12.604  14.518   6.814  0.1849 -0.2269 -0.1772
  849POPE   C2B12678  12.349  14.726   7.132  0.0156  0.0233  0.0006
  849POPE   C3B12679  12.166  14.910   7.564  0.1999 -0.1878 -0.0923
  849POPE   C4B12680  11.804  14.880   7.772  0.1690 -0.1842  0.0975
  850POPE   NH312681   7.965   9.844   6.211  0.1567  0.2335  0.0294
  850POPE   PO412682   7.761   9.400   6.227  0.1150 -0.1644 -0.2361
  850POPE   GL112683   7.758   9.391   6.650 -0.2059  0.0099  0.3794
  850POPE   GL212684   8.055   9.537   6.660  0.0332  0.2081 -0.0217
  850POPE   C1A12685   7.600   9.415   7.000 -0.3029 -0.0147  0.0983
  850POPE   D2A12686   7.638   9.463   7.462 -0.0777 -0.0665  0.3244
  850POPE   C3A12687   8.008   9.569   7.650 -0.0150  0.3812 -0.0222
  850POPE   C4A12688   8.097   9.541   8.059  0.1104 -0.2380 -0.0082
  850POPE   C1B12689   7.985   9.752   7.044  0.2063  0.1456 -0.1637
  850POPE   C2B12690   8.332  10.026   7.364  0.1111 -0.3003  0.1459
  850POPE   C3B12691   8.715  10.337   7.458  0.0464 -0.3763 -0.1931
  850POPE   C4B12692   9.035  10.669   7.532 -0.2577 -0.0359  0.1029
  851POPE   NH312693   4.540  12.577   6.220 -0.0384  0.0968 -0.2136
  851POPE   PO412694   4.532  12.133   6.403  0.1294  0.3436 -0.0229
  851POPE   GL112695   4.453  12.121   6.769  0.0831  0.1042  0.1589
  851POPE   GL212696   4.143  11.867   6.902 -0.1049 -0.0856 -0.0013
  851POPE   C1A12697   4.482  12.035   7.181 -0.1867  0.1410 -0.2236
  851POPE   D2A12698   4.025  12.069   7.348  0.2060  0.0798 -0.4883
  851POPE   C3A12699   4.087  11.773   7.727  0.0483  0.1690 -0.0518
  851POPE   C4A12700   3.804  11.560   7.935  0.0653 -0.3064  0.3859
  851POPE   C1B12701   4.190  11.512   7.251  0.3387 -0.2665 -0.0640
  851POPE   C2B12702   4.483  11.442   7.626  0.0216  0.1975 -0.1413
  851POPE   C3B12703   4.689  11.531   7.851  0.0203  0.1189 -0.0951
  851POPE   C4B12704   4.924  11.586   8.196  0.1228  0.0856  0.0757
  852POPE   NH312705  10.561  16.137   6.076  0.3155  0.0385 -0.2916
  852POPE   PO412706  10.149  15.943   5.972 -0.1489  0.2922 -0.2072
  852POPE   GL112707  10.426  15.797   6.434  0.0653 -0.1334 -0.2378
  852POPE   GL212708  10.815  15.829   6.465  0.0946 -0.3289 -0.1490
  852POPE   C1A12709  10.174  15.616   6.756  0.3950 -0.1358 -0.2672
  852POPE   D2A12710   9.791  15.600   7.151  0.0947 -0.2195  0.1236
  852POPE   C3A12711   9.906  15.747   7.614 -0.1388  0.3029 -0.3216
  852POPE   C4A12712   9.809  15.870   8.093  0.1077 -0.4835 -0.0530
  852POPE   C1B12713  10.827  15.822   6.838 -0.0735  0.0398 -0.0972
  852POPE   C2B12714  10.827  15.815   7.313  0.0368  0.0179  0.3751
  852POPE   C3B12715  10.507  15.738   7.700  0.0182  0.0692 -0.0001
  852POPE   C4B12716  10.352  15.341   7.838 -0.0765  0.1845 -0.0837
  853POPE   NH312717  10.485   2.266   5.867  0.0976 -0.0626  0.1572
  853POPE   PO412718  10.135   2.434   5.580 -0.0061 -0.0008 -0.1186
  853POPE   GL112719  10.149   2.616   6.002 -0.2627 -0.2463  0.0696
  853POPE   GL212720   9.902   2.830   6.081 -0.0516  0.1772  0.0357
  853POPE   C1A12721  10.095   2.511   6.430 -0.0106  0.1676  0.1448
  853POPE   D2A12722  10.015   2.800   6.749  0.0749  0.3162  0.0052
  853POPE   C3A12723  10.300   2.727   7.107  0.0550  0.2478  0.3028
  853POPE   C4A12724  10.445   2.560   7.462  0.0889  0.3317  0.1546
  853POPE   C1B12725  10.229   3.085   6.330  0.1568 -0.2627 -0.3682
  853POPE   C2B12726  10.349   3.139   6.796 -0.1574  0.0439  0.1162
  853POPE   C3B12727  10.330   3.338   7.078  0.1062  0.2614  0.1698
  853POPE   C4B12728  10.385   3.252   7.580  0.2809  0.1677  0.0885
  854POPE   NH312729  10.754  15.025   6.176 -0.0769  0.0823  0.2665
  854POPE   PO412730  10.645  14.652   6.017 -0.0674  0.1497  0.1227
  854POPE   GL112731  10.834  14.529   6.279  0.0622  0.1332  0.2001
  854POPE   GL212732  11.077  14.602   6.408 -0.1542  0.1843  0.2327
  854POPE   C1A12733  10.967  14.226   6.673  0.0716  0.2755  0.1664
  854POPE   D2A12734  10.922  14.188   7.068  0.0011  0.1931 -0.3206
  854POPE   C3A12735  11.249  14.230   7.357  0.0548 -0.1332 -0.0425
  854POPE   C4A12736  11.563  14.173   7.551  0.0105  0.2419 -0.1115
  854POPE   C1B12737  11.567  14.508   6.426  0.0825 -0.0816 -0.3524
  854POPE   C2B12738  11.897  14.583   6.673  0.1471 -0.0091 -0.0125
  854POPE   C3B12739  12.215  14.813   6.667  0.4229 -0.4695 -0.1741
  854POPE   C4B12740  12.661  14.950   6.615 -0.0490 -0.2811 -0.0895
  855POPE   NH312741   6.407  10.583   5.877  0.0157 -0.1172 -0.2664
  855POPE   PO412742   6.871  10.483   6.035 -0.0685 -0.2724  0.1353
  855POPE   GL112743   6.660  10.413   6.433 -0.0242 -0.3499  0.0377
  855POPE   GL212744   6.441  10.529   6.414 -0.0457 -0.1379 -0.1123
  855POPE   C1A12745   6.856  10.683   6.731  0.2047 -0.1757  0.0142
  855POPE   D2A12746   7.007  10.970   7.086  0.0919  0.0559  0.0340
  855POPE   C3A12747   6.980  10.755   7.505 -0.0994  0.3117 -0.2038
  855POPE   C4A12748   6.680  10.873   7.871  0.1865 -0.0915 -0.0474
  855POPE   C1B12749   6.362  10.231   6.760 -0.0552 -0.0431  0.4724
  855POPE   C2B12750   6.313  10.146   7.144  0.3002  0.0477 -0.0739
  855POPE   C3B12751   6.348   9.988   7.476  0.0640 -0.0827 -0.0431
  855POPE   C4B12752   6.248   9.878   7.970 -0.1076 -0.0636  0.4026
  856POPE   NH312753  15.476   9.359   5.493 -0.0104  0.0647 -0.0003
  856POPE   PO412754  15.444   9.064   5.750  0.1723  0.2462  0.0016
  856POPE   GL112755  15.108   9.018   6.029 -0.0087  0.3118 -0.3795
  856POPE   GL212756  14.729   8.947   5.963  0.0340  0.0289 -0.0480
  856POPE   C1A12757  15.062   8.722   6.392 -0.2402  0.0189 -0.0348
  856POPE   D2A12758  15.038   8.313   6.454 -0.0806 -0.3530  0.1437
  856POPE   C3A12759  14.994   8.133   6.913  0.0615  0.0503 -0.0230
  856POPE   C4A12760  15.031   8.107   7.376  0.0619 -0.3185 -0.2277
  856POPE   C1B12761  14.482   8.964   6.276 -0.0840 -0.4086  0.1015
  856POPE   C2B12762  14.252   8.926   6.653  0.1631 -0.2450  0.1940
  856POPE   C3B12763  14.193   8.718   7.085  0.2144  0.3095  0.1913
  856POPE   C4B12764  14.241   8.683   7.574  0.0532 -0.1558 -0.1382
  857POPE   NH312765  14.464   0.162   5.829 -0.1189  0.0750 -0.1199
  857POPE   PO412766  14.159   0.396   5.931 -0.0993  0.0677  0.2222
  857POPE   GL112767  14.332   0.570   6.325 -0.0165 -0.0241 -0.1074
  857POPE   GL212768  14.660   0.682   6.339 -0.1637 -0.0350 -0.0360
  857POPE   C1A12769  14.405   0.594   6.785  0.0854 -0.0847 -0.2517
  857POPE   D2A12770  14.424   0.836   7.160 -0.1385 -0.2418  0.1037
  857POPE   C3A12771  14.265   0.851   7.532 -0.2821  0.1163 -0.0882
  857POPE   C4A12772  14.040   0.936   7.914 -0.1390 -0.1391  0.2994
  857POPE   C1B12773  14.718   0.942   6.724 -0.1257 -0.1607  0.2618
  857POPE   C2B12774  14.809   1.108   7.207  0.1798 -0.1752 -0.4056
  857POPE   C3B12775  14.969   1.176   7.547  0.0342 -0.0697 -0.1851
  857POPE   C4B12776  15.074   1.487   7.855 -0.1655 -0.2690 -0.2636
  858POPE   NH312777   7.616   4.029   5.932  0.0091 -0.0262 -0.0633
  858POPE   PO412778   7.358   4.339   5.895  0.1374  0.1053  0.2618
  858POPE   GL112779   7.564   4.535   6.151 -0.0230 -0.1243  0.1760
  858POPE   GL212780   7.442   4.320   6.517  0.1108 -0.0118 -0.1324
  858POPE   C1A12781   7.913   4.543   6.467 -0.3978 -0.1822  0.1663
  858POPE   D2A12782   8.198   4.423   6.810  0.0918  0.0347  0.0315
  858POPE   C3A12783   8.218   4.158   7.200  0.1699  0.3036  0.2100
  858POPE   C4A12784   8.076   3.790   7.144 -0.0039 -0.1079  0.0290
  858POPE   C1B12785   7.579   4.619   6.955 -0.1093 -0.1761 -0.1743
  858POPE   C2B12786   7.847   4.698   7.119 -0.1903 -0.0302  0.2985
  858POPE   C3B12787   8.019   4.495   7.505 -0.0387 -0.2085 -0.0826
  858POPE   C4B12788   7.855   4.167   7.553 -0.2572  0.0584 -0.0474
  859POPE   NH312789  14.634   5.545   5.785 -0.0711 -0.5595  0.0995
  859POPE   PO412790  14.286   5.434   5.648  0.1463 -0.0897  0.0914
  859POPE   GL112791  14.138   5.348   6.054  0.0642 -0.1509 -0.2934
  859POPE   GL212792  14.128   5.644   6.074 -0.1877  0.0522  0.0191
  859POPE   C1A12793  14.181   5.309   6.479  0.0467 -0.0696  0.0693
  859POPE   D2A12794  14.095   5.263   6.934 -0.2311  0.1215  0.0398
  859POPE   C3A12795  13.624   5.221   7.092 -0.0114 -0.0416  0.0240
  859POPE   C4A12796  13.229   5.263   7.147 -0.3853 -0.2486  0.0349
  859POPE   C1B12797  14.180   5.802   6.480 -0.4764 -0.0019  0.0908
  859POPE   C2B12798  14.129   5.772   6.904  0.1215  0.1456  0.0131
  859POPE   C3B12799  13.994   5.594   7.347 -0.1568  0.1181 -0.1387
  859POPE   C4B12800  13.962   5.150   7.462  0.3880 -0.0935 -0.0536
  860POPE   NH312801   2.943   3.566   6.404 -0.2118  0.1743 -0.0875
  860POPE   PO412802   2.736   3.128   6.283 -0.0826 -0.1522 -0.1282
  860POPE   GL112803   2.842   3.176   6.708  0.1806 -0.0305  0.2025
  860POPE   GL212804   2.490   3.359   6.803  0.0085  0.3666 -0.0094
  860POPE   C1A12805   2.685   2.870   7.109 -0.3127  0.1881  0.0642
  860POPE   D2A12806   2.544   2.839   7.471 -0.0853  0.1354  0.2836
  860POPE   C3A12807   2.816   3.126   7.739 -0.0145  0.1315 -0.0614
  860POPE   C4A12808   2.925   3.305   8.061  0.2214 -0.1109 -0.2312
  860POPE   C1B12809   2.659   3.396   7.166 -0.3648 -0.1001 -0.3071
  860POPE   C2B12810   2.945   3.584   7.560 -0.1464 -0.1137 -0.1724
  860POPE   C3B12811   3.318   3.457   7.718 -0.4516 -0.0328 -0.2373
  860POPE   C4B12812   3.662   3.732   7.838 -0.1480 -0.1780 -0.1427
  861POPE   NH312813  16.907  17.388   5.867  0.2438 -0.2587  0.3208
  861POPE   PO412814  16.581  17.569   5.723  0.0966  0.0634 -0.1746
  861POPE   GL112815  16.476  17.564   6.170  0.2168  0.1959 -0.0767
  861POPE   GL212816  16.156  17.449   6.226 -0.1978  0.1725 -0.0646
  861POPE   C1A12817  16.412  17.199   6.543 -0.2336 -0.0782  0.1472
  861POPE   D2A12818  16.244  16.992   7.004  0.2501 -0.0570  0.0056
  861POPE   C3A12819  16.291  17.308   7.244  0.2567  0.0272  0.3123
  861POPE   C4A12820  16.097  17.353   7.696  0.0742 -0.3138  0.0598
  861POPE   C1B12821  16.126  17.577   6.661  0.0232 -0.2359  0.3651
  861POPE   C2B12822  16.228  17.776   7.022 -0.1881  0.1286  0.2274
  861POPE   C3B12823  16.429  17.774   7.357  0.0143  0.0101  0.1256
  861POPE   C4B12824  16.474  17.809   7.732 -0.0082  0.2116  0.1339
  862POPE   NH312825  14.067  12.274   5.972  0.0376  0.1429 -0.1021
  862POPE   PO412826  14.218  12.670   6.035  0.3038  0.0728 -0.0188
  862POPE   GL112827  14.261  12.615   6.407 -0.0151  0.2251 -0.0131
  862POPE   GL212828  14.082  12.344   6.465 -0.1231  0.0565  0.1291
  862POPE   C1A12829  14.187  12.711   6.833 -0.4137  0.0749  0.1903
  862POPE   D2A12830  14.093  12.620   7.216  0.3029  0.2047  0.0738
  862POPE   C3A12831  14.165  12.686   7.667 -0.0329 -0.0351  0.5074
  862POPE   C4A12832  14.329  12.402   7.999  0.1168 -0.0749  0.0441
  862POPE   C1B12833  13.930  12.335   6.876 -0.2601  0.0255  0.1051
  862POPE   C2B12834  13.926  12.101   7.262  0.2867 -0.1113 -0.1967
  862POPE   C3B12835  14.095  12.127   7.620  0.1882  0.1286 -0.0022
  862POPE   C4B12836  14.183  11.739   7.739 -0.0559 -0.1929  0.3581
  863POPE   NH312837   8.155   9.284   5.899  0.0180  0.2380 -0.3520
  863POPE   PO412838   8.311   9.312   6.166  0.1200  0.0119  0.1416
  863POPE   GL112839   8.543   9.027   6.382  0.0518  0.1016  0.0511
  863POPE   GL212840   8.520   9.202   6.596 -0.0522 -0.2840  0.0051
  863POPE   C1A12841   8.474   8.672   6.653  0.0864 -0.5353 -0.1108
  863POPE   D2A12842   8.609   8.338   6.836 -0.3287  0.0583 -0.0016
  863POPE   C3A12843   8.505   8.126   7.273  0.0356 -0.1696 -0.0790
  863POPE   C4A12844   8.624   8.015   7.603 -0.1141  0.4457 -0.1996
  863POPE   C1B12845   8.488   8.989   7.051  0.0519 -0.3492  0.0486
  863POPE   C2B12846   8.608   8.623   7.245  0.0382 -0.0777  0.3653
  863POPE   C3B12847   9.031   8.406   7.319 -0.0539  0.1223 -0.1314
  863POPE   C4B12848   9.267   8.040   7.592 -0.1374  0.1284 -0.1376
  864YOPE   NH312849   6.497   9.157   5.898 -0.0207  0.0636 -0.1568
  864YOPE   PO412850   6.246   8.994   5.587 -0.3671 -0.2575  0.0141
  864YOPE   GL112851   6.139   8.842   5.998 -0.0943  0.1957  0.2798
  864YOPE   GL212852   5.990   9.208   6.119 -0.0318 -0.0738  0.2996
  864YOPE   C1A12853   6.284   8.895   6.442  0.0569  0.1477 -0.2619
  864YOPE   D2A12854   6.171   8.835   6.858  0.4502  0.1277  0.0480
  864YOPE   C3A12855   5.815   8.707   6.889  0.1634  0.1339 -0.1619
  864YOPE   C4A12856   5.603   8.763   7.189  0.0781  0.3869  0.2817
  864YOPE   C1B12857   5.873   9.612   6.373  0.0207  0.0235 -0.2056
  864YOPE   C2B12858   5.733   9.575   6.768  0.3403  0.1308  0.3163
  864YOPE   D3B12859   5.620   9.559   7.177 -0.0167  0.2026  0.0672
  864YOPE   C4B12860   5.297   9.839   7.358  0.1718 -0.2168 -0.1872
  865YOPE   NH312861   6.066  13.561   6.058 -0.2755 -0.0924 -0.0188
  865YOPE   PO412862   6.447  13.324   5.821  0.1725 -0.0040  0.1615
  865YOPE   GL112863   6.436  13.266   6.240  0.2101  0.3001 -0.0894
  865YOPE   GL212864   6.488  13.025   6.409 -0.1596  0.2656 -0.0286
  865YOPE   C1A12865   6.502  13.496   6.621 -0.4844 -0.0284 -0.4345
  865YOPE   D2A12866   6.725  13.587   7.018 -0.2557  0.0067  0.1272
  865YOPE   C3A12867   6.615  13.538   7.413 -0.1795  0.0285 -0.1173
  865YOPE   C4A12868   6.490  13.574   7.888  0.2120 -0.0589  0.0030
  865YOPE   C1B12869   6.773  12.833   6.772  0.0379 -0.0237 -0.0484
  865YOPE   C2B12870   6.781  12.587   7.147 -0.0424  0.0033  0.1957
  865YOPE   D3B12871   6.561  12.669   7.517 -0.2696  0.0117  0.1107
  865YOPE   C4B12872   6.407  13.099   7.611 -0.1482  0.0087  0.0632
  866YOPE   NH312873  15.378   6.025   5.955  0.0761 -0.0286  0.0112
  866YOPE   PO412874  15.813   6.260   5.871  0.0692 -0.0916  0.0456
  866YOPE   GL112875  15.578   6.337   6.272  0.1892  0.1024  0.2059
  866YOPE   GL212876  15.399   6.016   6.489  0.0216  0.0115  0.0681
  866YOPE   C1A12877  15.773   6.245   6.725  0.2504  0.2026 -0.0954
  866YOPE   D2A12878  16.055   5.830   6.917 -0.1364 -0.1200  0.1318
  866YOPE   C3A12879  15.953   5.406   7.004 -0.1603  0.0540 -0.0064
  866YOPE   C4A12880  15.831   5.047   6.906 -0.3335 -0.1651 -0.0577
  866YOPE   C1B12881  15.206   6.259   6.855 -0.1081 -0.0455  0.0040
  866YOPE   C2B12882  14.899   6.300   7.145  0.0151  0.0313 -0.0906
  866YOPE   D3B12883  14.925   6.264   7.688 -0.1591  0.1086  0.2656
  866YOPE   C4B12884  14.695   6.676   7.890  0.1543  0.1507 -0.1364
  867YOPE   NH312885   3.509   9.156   6.255 -0.2628 -0.2040  0.2299
  867YOPE   PO412886   3.449   9.661   6.279 -0.0488  0.0351 -0.1145
  867YOPE   GL112887   3.541   9.466   6.619  0.0118 -0.0782  0.3803
  867YOPE   GL212888   3.832   9.431   6.542  0.1004  0.1875  0.2267
  867YOPE   C1A12889   3.546   9.472   6.943 -0.0578 -0.0836  0.1353
  867YOPE   D2A12890   3.197   9.512   7.332 -0.1705  0.1880 -0.3502
  867YOPE   C3A12891   3.201   9.225   7.769  0.0956 -0.3417 -0.1716
  867YOPE   C4A12892   3.642   9.294   7.889  0.2606 -0.1761 -0.2197
  867YOPE   C1B12893   4.070   9.509   6.925 -0.1572  0.1167  0.0100
  867YOPE   C2B12894   4.241   9.348   7.152  0.0896 -0.1560  0.1056
  867YOPE   D3B12895   4.095   9.487   7.648  0.2914  0.2201  0.2223
  867YOPE   C4B12896   4.253   9.449   7.998 -0.4858  0.3054  0.0508
  868YOPE   NH312897   6.325  16.746   6.495  0.4046  0.1169 -0.0094
  868YOPE   PO412898   6.228  17.145   6.537 -0.1823  0.1066  0.3728
  868YOPE   GL112899   6.112  17.148   6.931  0.2908  0.2724 -0.0204
  868YOPE   GL212900   5.914  17.368   7.027  0.1985  0.0844  0.1475
  868YOPE   C1A12901   6.387  17.158   7.422  0.1908  0.0929 -0.0910
  868YOPE   D2A12902   6.613  17.088   7.721 -0.3130  0.0286 -0.1286
  868YOPE   C3A12903   6.606  16.882   8.028 -0.0287 -0.3320 -0.0009
  868YOPE   C4A12904   6.817  16.855   8.436 -0.2925  0.1670  0.4206
  868YOPE   C1B12905   5.921  17.102   7.496  0.1606 -0.0135 -0.0311
  868YOPE   C2B12906   5.577  17.194   7.673 -0.2928  0.1877  0.1293
  868YOPE   D3B12907   5.452  17.065   8.042  0.2167 -0.2571 -0.1068
  868YOPE   C4B12908   5.695  16.747   8.217 -0.0159 -0.1521  0.1405
  869YOPE   NH312909   2.673   0.739   6.144 -0.0594 -0.2884 -0.1774
  869YOPE   PO412910   2.537   1.122   6.201  0.2539  0.2184 -0.4620
  869YOPE   GL112911   2.299   1.236   6.524  0.0489  0.3484 -0.2196
  869YOPE   GL212912   2.470   0.987   6.729  0.1389  0.2769  0.3242
  869YOPE   C1A12913   2.032   1.283   6.855 -0.1015 -0.2803 -0.1616
  869YOPE   D2A12914   1.885   1.025   7.122 -0.0566  0.1196  0.0139
  869YOPE   C3A12915   1.839   1.306   7.341 -0.3215  0.1922 -0.2425
  869YOPE   C4A12916   1.794   1.327   7.615  0.1545 -0.1312  0.0231
  869YOPE   C1B12917   2.416   1.031   7.156 -0.0576  0.4174 -0.1295
  869YOPE   C2B12918   2.296   1.060   7.593  0.0624 -0.1702 -0.3154
  869YOPE   D3B12919   2.143   1.232   8.015  0.0843 -0.0932 -0.3705
  869YOPE   C4B12920   2.169   1.363   8.320  0.0630  0.1483  0.1098
  870YOPE   NH312921   7.526  15.284   6.100 -0.0270  0.2066  0.0056
  870YOPE   PO412922   7.887  15.357   6.323 -0.0720 -0.1866 -0.4380
  870YOPE   GL112923   8.041  14.991   6.633 -0.0925  0.1251 -0.0164
  870YOPE   GL212924   8.084  14.654   6.631  0.1188 -0.0059 -0.0911
  870YOPE   C1A12925   7.982  14.978   7.058 -0.2412  0.2328 -0.0814
  870YOPE   D2A12926   8.003  14.887   7.521 -0.4103 -0.2235 -0.3083
  870YOPE   C3A12927   8.156  15.209   7.798 -0.0190 -0.1627 -0.1074
  870YOPE   C4A12928   8.434  15.391   8.083  0.1389 -0.1916 -0.0476
  870YOPE   C1B12929   8.070  14.329   7.058  0.1115 -0.1539  0.4043
  870YOPE   C2B12930   8.103  14.433   7.607  0.1009 -0.0057  0.2002
  870YOPE   D3B12931   8.184  14.665   7.965  0.2529  0.1385 -0.0800
  870YOPE   C4B12932   8.605  14.835   8.070  0.3394  0.1782 -0.3017
  871YOPE   NH312933  17.472   2.732   6.440  0.4872  0.2410  0.2151
  871YOPE   PO412934  17.147   2.926   6.444 -0.2225  0.1425  0.1303
  871YOPE   GL112935  17.294   2.981   6.869 -0.0097 -0.1411  0.1019
  871YOPE   GL212936  17.460   3.297   7.000  0.0165 -0.1987  0.0516
  871YOPE   C1A12937  17.226   2.802   7.246  0.0184 -0.1115 -0.3252
  871YOPE   D2A12938  17.190   2.740   7.650 -0.0673  0.0839  0.0411
  871YOPE   C3A12939  17.141   3.020   7.945 -0.0684 -0.0955 -0.1253
  871YOPE   C4A12940  17.245   3.407   7.882 -0.0023  0.0743 -0.5857
  871YOPE   C1B12941  17.184   3.262   7.430 -0.1519 -0.1787  0.1906
  871YOPE   C2B12942  16.795   3.252   7.691  0.1391 -0.0688  0.0070
  871YOPE   D3B12943  16.518   3.471   7.932 -0.1507 -0.1702  0.1209
  871YOPE   C4B12944  16.305   3.761   8.110  0.1208  0.0400 -0.0054
  872YOPE   NH312945  17.769   7.986   5.901 -0.2180 -0.5089  0.1726
  872YOPE   PO412946  18.138   8.184   6.119 -0.1211  0.3347 -0.0364
  872YOPE   GL112947  18.235   8.070   6.547 -0.0193 -0.1880  0.0281
  872YOPE   GL212948  18.521   8.261   6.642 -0.0654 -0.1009  0.1923
  872YOPE   C1A12949  18.195   8.067   6.985 -0.2473 -0.1775 -0.0817
  872YOPE   D2A12950  18.162   8.185   7.316 -0.2213 -0.0771 -0.0910
  872YOPE   C3A12951  18.061   7.930   7.508  0.0079  0.1403 -0.4321
  872YOPE   C4A12952  18.403   7.603   7.675  0.6232 -0.0392 -0.0497
  872YOPE   C1B12953  18.599   8.382   6.987  0.1623  0.0390 -0.3223
  872YOPE   C2B12954  18.463   8.582   7.336 -0.5824 -0.0487 -0.3655
  872YOPE   D3B12955  18.190   8.554   7.715 -0.0178 -0.0803 -0.1925
  872YOPE   C4B12956  18.052   8.573   8.259  0.0011  0.0298 -0.3507
  873YOPE   NH312957  10.966   9.305   5.682  0.0805  0.3069 -0.3090
  873YOPE   PO412958  10.986   8.904   5.873  0.1562  0.0105 -0.2388
  873YOPE   GL112959  10.870   9.146   6.299  0.1937 -0.0150 -0.0427
  873YOPE   GL212960  10.575   9.066   6.157 -0.1768  0.0307  0.1220
  873YOPE   C1A12961  10.893   9.353   6.682  0.2177 -0.1272  0.0768
  873YOPE   D2A12962  10.772   9.605   7.138 -0.0345  0.2462 -0.1513
  873YOPE   C3A12963  10.847   9.611   7.648  0.3081  0.0162 -0.0943
  873YOPE   C4A12964  10.524   9.416   8.017 -0.2697  0.1517 -0.1215
  873YOPE   C1B12965  10.494   9.079   6.543 -0.5795  0.0280 -0.0731
  873YOPE   C2B12966  10.720   8.732   6.746 -0.2553 -0.2500 -0.2039
  873YOPE   D3B12967  10.908   8.463   7.023 -0.2712  0.4350 -0.1623
  873YOPE   C4B12968  11.074   8.503   7.489 -0.3456 -0.3644  0.3019
  874YOPE   NH312969  16.102   0.816   6.324  0.1492  0.0038  0.1005
  874YOPE   PO412970  16.448   1.241   6.375  0.0188  0.6314  0.0300
  874YOPE   GL112971  16.489   0.928   6.725 -0.1068 -0.0277 -0.1531
  874YOPE   GL212972  16.258   0.619   6.729  0.2048 -0.3221  0.1413
  874YOPE   C1A12973  16.469   1.016   7.167  0.1911  0.0375 -0.1754
  874YOPE   D2A12974  16.382   0.937   7.577 -0.2696  0.0899 -0.4991
  874YOPE   C3A12975  16.517   1.099   7.788  0.3066  0.0119  0.0548
  874YOPE   C4A12976  16.637   1.084   8.236  0.2191 -0.0688 -0.0985
  874YOPE   C1B12977  16.211   0.613   7.128 -0.1041 -0.1889 -0.1135
  874YOPE   C2B12978  16.499   0.503   7.338  0.2316  0.0019  0.1829
  874YOPE   D3B12979  16.938   0.448   7.531  0.1705  0.1276 -0.2139
  874YOPE   C4B12980  17.292   0.588   7.823  0.3182 -0.2318 -0.0209
  875YOPE   NH312981  16.794   8.615   5.823 -0.0856 -0.0486  0.0466
  875YOPE   PO412982  17.092   8.849   5.992 -0.1512  0.2554  0.2240
  875YOPE   GL112983  17.277   8.810   6.423  0.2011 -0.1365 -0.2980
  875YOPE   GL212984  17.382   8.511   6.634  0.0122 -0.0315 -0.0355
  875YOPE   C1A12985  17.081   8.858   6.834  0.0633 -0.0320 -0.0090
  875YOPE   D2A12986  16.864   8.968   7.103  0.1180 -0.0994 -0.1236
  875YOPE   C3A12987  16.988   9.060   7.432 -0.2484 -0.3286  0.2604
  875YOPE   C4A12988  16.862   9.334   7.655 -0.0786 -0.0529 -0.0791
  875YOPE   C1B12989  17.340   8.418   7.005  0.0382  0.2324 -0.0269
  875YOPE   C2B12990  17.231   8.533   7.372  0.1349 -0.2250 -0.0216
  875YOPE   D3B12991  17.144   8.693   7.706 -0.1824 -0.1768 -0.1743
  875YOPE   C4B12992  16.739   8.776   7.841  0.2150  0.5495  0.0715
  876YOPE   NH312993  17.109  11.836   5.889  0.1044 -0.1445 -0.0267
  876YOPE   PO412994  17.392  11.437   5.963 -0.0066 -0.3732 -0.0249
  876YOPE   GL112995  17.139  11.400   6.404 -0.1195  0.0766 -0.1502
  876YOPE   GL212996  17.120  11.704   6.358  0.1051 -0.1012  0.0200
  876YOPE   C1A12997  17.025  11.448   6.767  0.0545  0.0005  0.0732
  876YOPE   D2A12998  16.915  11.213   7.171  0.1769  0.1231 -0.0059
  876YOPE   C3A12999  16.740  11.399   7.544 -0.0429  0.2474  0.1194
  876YOPE   C4A13000  16.519  11.684   7.822  0.1067  0.1943  0.1172
  876YOPE   C1B13001  17.282  11.886   6.760  0.0565  0.4754 -0.1796
  876YOPE   C2B13002  17.341  12.160   7.124  0.1331  0.3078  0.1279
  876YOPE   D3B13003  17.449  12.211   7.474  0.1301 -0.2408  0.2772
  876YOPE   C4B13004  17.211  12.178   7.921  0.1544 -0.1291 -0.0062
  877YOPE   NH313005   3.667   1.215   6.215  0.0125  0.2621 -0.0249
  877YOPE   PO413006   3.369   1.568   6.304 -0.0448  0.1597 -0.1724
  877YOPE   GL113007   3.194   1.338   6.596 -0.0517  0.3326  0.0079
  877YOPE   GL213008   2.912   1.260   6.620  0.3019  0.0912 -0.1193
  877YOPE   C1A13009   3.327   1.270   7.072  0.1275  0.1642 -0.1247
  877YOPE   D2A13010   3.341   1.337   7.473 -0.0401  0.1117 -0.5421
  877YOPE   C3A13011   2.974   1.656   7.639 -0.0691 -0.1439  0.0624
  877YOPE   C4A13012   2.754   1.941   7.351  0.0224 -0.1027 -0.2504
  877YOPE   C1B13013   2.906   1.004   7.128 -0.2031 -0.1585  0.3571
  877YOPE   C2B13014   2.882   0.783   7.393  0.3651  0.0641 -0.0526
  877YOPE   D3B13015   2.875   0.692   7.834 -0.1264  0.0316  0.3262
  877YOPE   C4B13016   2.505   0.869   8.095 -0.2020 -0.1233 -0.0386
  878YOPE   NH313017   0.491  15.259   6.258 -0.0720  0.0635 -0.2116
  878YOPE   PO413018   0.923  15.105   6.084  0.2654 -0.2523 -0.0437
  878YOPE   GL113019   0.889  15.046   6.499 -0.2495 -0.2332 -0.0905
  878YOPE   GL213020   0.570  14.882   6.631 -0.2115 -0.1486  0.0081
  878YOPE   C1A13021   0.950  15.228   6.782  0.0872 -0.1455  0.0840
  878YOPE   D2A13022   0.914  15.289   7.194 -0.0374 -0.1361  0.1619
  878YOPE   C3A13023   0.914  15.731   7.362  0.1485  0.1835  0.0875
  878YOPE   C4A13024   0.890  15.774   7.766 -0.0724  0.2377 -0.1002
  878YOPE   C1B13025   0.585  14.927   7.093 -0.0097  0.2138  0.1845
  878YOPE   C2B13026   0.626  14.770   7.439 -0.1694 -0.1044  0.1679
  878YOPE   D3B13027   0.862  14.543   7.560 -0.1157 -0.2619  0.0849
  878YOPE   C4B13028   1.325  14.431   7.516  0.0447  0.1999 -0.0203
  879YOPE   NH313029   2.870   5.433   6.365  0.0671  0.2990 -0.0453
  879YOPE   PO413030   3.271   5.357   6.314 -0.0502  0.1273  0.2396
  879YOPE   GL113031   3.194   5.341   6.792 -0.1823 -0.2004 -0.1146
  879YOPE   GL213032   3.322   5.150   7.039  0.1342  0.0322  0.0629
  879YOPE   C1A13033   2.961   5.521   7.148 -0.1603  0.0692 -0.0690
  879YOPE   D2A13034   3.054   5.662   7.464  0.0531 -0.2297 -0.3667
  879YOPE   C3A13035   2.764   5.735   7.863  0.0364 -0.0077 -0.2938
  879YOPE   C4A13036   2.371   5.869   8.080  0.1413 -0.0398  0.1729
  879YOPE   C1B13037   3.403   5.176   7.401 -0.1174 -0.0418  0.1281
  879YOPE   C2B13038   3.259   5.331   7.787 -0.1521  0.0513  0.0824
  879YOPE   D3B13039   3.228   5.588   8.208 -0.2213  0.1473  0.0299
  879YOPE   C4B13040   3.336   5.781   8.543  0.2698  0.0505 -0.1928
  880YOPE   NH313041   5.233  13.652   6.025  0.0220  0.2985 -0.0400
  880YOPE   PO413042   5.603  13.788   6.245  0.0499  0.2982 -0.2293
  880YOPE   GL113043   5.384  13.517   6.532 -0.1752  0.1333  0.1199
  880YOPE   GL213044   5.117  13.713   6.739 -0.0485  0.0505  0.1057
  880YOPE   C1A13045   5.524  13.307   6.925 -0.0005 -0.1016  0.2014
  880YOPE   D2A13046   5.615  13.063   7.160 -0.0557 -0.0982  0.1834
  880YOPE   C3A13047   5.524  13.024   7.603  0.0400  0.1147 -0.4987
  880YOPE   C4A13048   5.508  13.144   8.015  0.3523  0.2339 -0.1463
  880YOPE   C1B13049   5.291  13.736   7.096 -0.1685 -0.0398 -0.5069
  880YOPE   C2B13050   5.414  13.493   7.430  0.0540 -0.0155  0.3257
  880YOPE   D3B13051   5.689  13.523   7.743 -0.0656 -0.1845 -0.0132
  880YOPE   C4B13052   6.012  13.299   7.889  0.2162  0.3305 -0.0120
  881YOPE   NH313053  15.757   0.592   5.984  0.2153  0.1710  0.1361
  881YOPE   PO413054  15.819   0.200   5.982  0.2881 -0.4264 -0.1572
  881YOPE   GL113055  15.649   0.072   6.335 -0.4919  0.1222  0.2200
  881YOPE   GL213056  15.736  -0.336   6.387  0.1909 -0.1035  0.2209
  881YOPE   C1A13057  15.450   0.223   6.701 -0.2132  0.1128  0.2290
  881YOPE   D2A13058  15.254   0.111   7.069 -0.0602  0.2920  0.3264
  881YOPE   C3A13059  15.208   0.403   7.359 -0.0236  0.1765  0.0055
  881YOPE   C4A13060  15.195   0.805   7.202  0.3089  0.0661  0.0526
  881YOPE   C1B13061  15.806  -0.244   6.800 -0.4566  0.4691 -0.1830
  881YOPE   C2B13062  15.671  -0.139   7.164  0.0493 -0.0530  0.5477
  881YOPE   D3B13063  15.598   0.166   7.550  0.3074  0.2373 -0.1203
  881YOPE   C4B13064  15.352   0.097   7.946 -0.1604 -0.2629 -0.1358
  882YOPE   NH313065  16.577   5.999   6.061  0.1516  0.2036 -0.1015
  882YOPE   PO413066  16.154   5.885   5.968 -0.0478  0.2209 -0.0673
  882YOPE   GL113067  16.136   6.246   6.336  0.1042  0.0122  0.2028
  882YOPE   GL213068  16.501   6.416   6.344 -0.0369 -0.1560 -0.6045
  882YOPE   C1A13069  16.295   6.272   6.797  0.0803 -0.1491  0.0795
  882YOPE   D2A13070  16.479   6.097   7.152  0.1882  0.0137  0.4640
  882YOPE   C3A13071  16.219   6.023   7.487 -0.0861 -0.0871 -0.0081
  882YOPE   C4A13072  16.317   5.810   7.900  0.0215  0.2012 -0.1784
  882YOPE   C1B13073  16.426   6.712   6.604 -0.2597  0.0273 -0.1625
  882YOPE   C2B13074  16.658   7.020   6.850  0.3435  0.0462  0.1464
  882YOPE   D3B13075  16.683   7.372   7.087 -0.0505  0.2237 -0.1032
  882YOPE   C4B13076  16.697   7.341   7.518 -0.1150  0.1168  0.4794
  883YOPE   NH313077   9.220  13.618   5.992  0.4309  0.0658 -0.1716
  883YOPE   PO413078   9.554  13.228   5.909  0.1477  0.2564  0.0999
  883YOPE   GL113079   9.846  12.998   6.205 -0.0426 -0.0656  0.0719
  883YOPE   GL213080   9.664  12.814   6.404 -0.0538 -0.2810 -0.1778
  883YOPE   C1A13081   9.987  13.199   6.622 -0.2706 -0.2612 -0.2255
  883YOPE   D2A13082   9.963  13.309   7.039 -0.1789  0.0837  0.2357
  883YOPE   C3A13083  10.171  13.213   7.326 -0.0317  0.3026 -0.1796
  883YOPE   C4A13084  10.412  13.132   7.763  0.4151 -0.0414  0.0270
  883YOPE   C1B13085   9.671  12.394   6.678 -0.1982 -0.0589 -0.0500
  883YOPE   C2B13086   9.850  12.283   7.028 -0.0438  0.0515 -0.0757
  883YOPE   D3B13087  10.187  12.455   7.264 -0.6714 -0.0100 -0.3376
  883YOPE   C4B13088  10.170  12.756   7.547 -0.2189 -0.1210  0.0287
  884YOPE   NH313089   2.694   0.040   6.147 -0.1718 -0.0259  0.1067
  884YOPE   PO413090   2.377   0.308   6.410 -0.1997  0.2526 -0.2253
  884YOPE   GL113091   2.601  -0.007   6.672  0.2006  0.0499  0.0325
  884YOPE   GL213092   2.617  -0.328   6.759  0.0093  0.0500 -0.0628
  884YOPE   C1A13093   2.688   0.019   7.097 -0.1610  0.1658 -0.0113
  884YOPE   D2A13094   2.666   0.229   7.543 -0.1000 -0.0797  0.0653
  884YOPE   C3A13095   2.636   0.107   8.008  0.2539 -0.2537  0.1994
  884YOPE   C4A13096   2.356   0.387   8.229 -0.1243 -0.0722  0.0970
  884YOPE   C1B13097   2.313  -0.402   7.092 -0.0426  0.0833  0.1787
  884YOPE   C2B13098   2.182  -0.429   7.491 -0.2151 -0.4897 -0.1146
  884YOPE   D3B13099   2.271  -0.307   7.977  0.2803  0.0598  0.1891
  884YOPE   C4B13100   2.211  -0.177   8.406 -0.0942  0.0374  0.0163
  885YOPE   NH313101   5.991   0.567   6.305 -0.0843  0.0383  0.1398
  885YOPE   PO413102   6.228   0.832   6.122 -0.3013  0.2390 -0.0598
  885YOPE   GL113103   6.387   0.914   6.552 -0.2428  0.1467 -0.0558
  885YOPE   GL213104   6.679   1.121   6.534 -0.1754 -0.1277 -0.3281
  885YOPE   C1A13105   6.482   1.082   6.973 -0.2463 -0.2769  0.1899
  885YOPE   D2A13106   6.592   1.004   7.398  0.0977 -0.1889  0.0407
  885YOPE   C3A13107   6.416   0.856   7.731  0.0735 -0.0535 -0.1137
  885YOPE   C4A13108   6.080   0.693   7.650 -0.1990 -0.0720 -0.1414
  885YOPE   C1B13109   6.683   1.514   6.692  0.1911 -0.0178  0.0509
  885YOPE   C2B13110   6.773   1.896   6.966  0.0735  0.1882  0.0569
  885YOPE   D3B13111   6.471   2.152   7.166 -0.0740  0.0996  0.1963
  885YOPE   C4B13112   6.088   2.188   7.182  0.0833  0.0375 -0.0000
  886YOPE   NH313113  11.337   5.595   5.647 -0.0338 -0.1193  0.3300
  886YOPE   PO413114  10.895   5.422   5.607 -0.0181  0.1743 -0.0430
  886YOPE   GL113115  11.001   5.151   5.890 -0.2892 -0.1490 -0.1918
  886YOPE   GL213116  10.851   5.032   5.950  0.1393 -0.1663 -0.0335
  886YOPE   C1A13117  11.319   4.997   6.201 -0.3362 -0.0063  0.1076
  886YOPE   D2A13118  11.519   4.926   6.552 -0.0496 -0.0294  0.4280
  886YOPE   C3A13119  11.819   5.089   6.672  0.0528  0.1460 -0.0605
  886YOPE   C4A13120  12.037   5.213   7.031  0.1635 -0.2294  0.0137
  886YOPE   C1B13121  10.861   4.814   6.251  0.0881  0.1060 -0.0897
  886YOPE   C2B13122  10.675   4.651   6.676  0.0861  0.1203  0.1119
  886YOPE   D3B13123  10.892   4.254   6.875 -0.0373  0.1681 -0.2825
  886YOPE   C4B13124  11.388   4.142   6.798  0.1321  0.1060  0.0620
  887YOPE   NH313125   4.365   9.749   6.136  0.1648  0.1165 -0.1530
  887YOPE   PO413126   4.555   9.613   5.757 -0.2547  0.2387 -0.1208
  887YOPE   GL113127   4.672   9.331   6.002  0.0274  0.4537  0.1998
  887YOPE   GL213128   4.635   9.388   6.330 -0.5095 -0.4586  0.0150
  887YOPE   C1A13129   5.055   9.059   6.272  0.1707 -0.1910  0.0916
  887YOPE   D2A13130   5.046   8.941   6.656 -0.0080  0.0376  0.3193
  887YOPE   C3A13131   5.421   9.115   6.854  0.0956  0.0404 -0.2112
  887YOPE   C4A13132   5.778   9.029   6.497 -0.0180  0.0751  0.1615
  887YOPE   C1B13133   4.549   9.614   6.792  0.0851  0.3452 -0.0094
  887YOPE   C2B13134   4.653   9.494   7.299 -0.0568 -0.0841 -0.1746
  887YOPE   D3B13135   4.565   9.196   7.595 -0.2290  0.1346  0.0177
  887YOPE   C4B13136   4.540   9.012   7.996 -0.1313  0.1038 -0.0376
  888YOPE   NH313137   3.523  16.342   6.268 -0.0633  0.0144  0.0765
  888YOPE   PO413138   3.143  16.116   6.359  0.0711 -0.2566  0.1176
  888YOPE   GL113139   3.072  16.306   6.761 -0.2427 -0.3059  0.2111
  888YOPE   GL213140   2.941  16.095   6.994  0.2257 -0.0903  0.0284
  888YOPE   C1A13141   2.963  16.607   7.170 -0.1936 -0.0989 -0.1844
  888YOPE   D2A13142   3.004  16.540   7.647 -0.0415 -0.1440  0.1315
  888YOPE   C3A13143   2.928  16.855   7.923  0.2416  0.0020 -0.2783
  888YOPE   C4A13144   3.029  17.224   8.129  0.0735 -0.0809 -0.0879
  888YOPE   C1B13145   3.119  16.119   7.459  0.0326  0.2774  0.2759
  888YOPE   C2B13146   3.153  15.913   7.910  0.3856 -0.2899 -0.0645
  888YOPE   D3B13147   3.480  15.913   8.230  0.0567  0.0315 -0.1348
  888YOPE   C4B13148   3.811  15.588   8.153  0.0244 -0.0054 -0.2965
  889YOPE   NH313149  17.222   9.664   6.054  0.0211 -0.1153 -0.1239
  889YOPE   PO413150  17.491   9.405   6.177  0.0814 -0.0072  0.2289
  889YOPE   GL113151  17.559   9.316   6.619  0.1351 -0.1533 -0.3304
  889YOPE   GL213152  17.596   9.027   6.703  0.2933 -0.1020 -0.2336
  889YOPE   C1A13153  17.669   9.442   7.023 -0.1981 -0.1960 -0.0528
  889YOPE   D2A13154  17.762   9.566   7.421 -0.0751 -0.0117 -0.1886
  889YOPE   C3A13155  17.905   9.230   7.655  0.2738  0.0150 -0.1569
  889YOPE   C4A13156  18.097   9.089   8.048  0.2974 -0.1329  0.2037
  889YOPE   C1B13157  17.441   9.003   7.123  0.2408  0.3037 -0.0421
  889YOPE   C2B13158  17.443   9.188   7.533  0.0303  0.1809 -0.3878
  889YOPE   D3B13159  17.365   9.522   7.812  0.2474 -0.1001 -0.1717
  889YOPE   C4B13160  17.635   9.884   8.063 -0.0714  0.0357 -0.0790
  890YOPE   NH313161   1.255   0.991   5.833 -0.1837 -0.1338  0.0470
  890YOPE   PO413162   1.132   1.192   6.207 -0.0084  0.0965 -0.3902
  890YOPE   GL113163   1.170   0.953   6.599  0.2746  0.0957 -0.0895
  890YOPE   GL213164   0.957   1.256   6.762  0.2842  0.2584 -0.0434
  890YOPE   C1A13165   1.381   0.689   6.850 -0.0630 -0.0665 -0.1213
  890YOPE   D2A13166   1.438   0.298   6.831 -0.1158 -0.2890  0.0769
  890YOPE   C3A13167   1.504   0.239   7.286  0.0106  0.2206 -0.0644
  890YOPE   C4A13168   1.575   0.416   7.709 -0.0853 -0.2491 -0.3710
  890YOPE   C1B13169   0.599   1.331   6.929  0.0685  0.0649  0.1581
  890YOPE   C2B13170   0.411   1.272   7.293 -0.2464 -0.1678 -0.0598
  890YOPE   D3B13171   0.189   1.140   7.584  0.1174 -0.1132 -0.0490
  890YOPE   C4B13172  -0.160   0.947   7.727 -0.0458 -0.3058  0.1968
  891YOPE   NH313173   2.919   6.377   6.595 -0.2715 -0.0331 -0.0515
  891YOPE   PO413174   2.627   6.159   6.443 -0.1776 -0.1139 -0.3239
  891YOPE   GL113175   2.513   6.148   6.916  0.1880 -0.2139 -0.0312
  891YOPE   GL213176   2.727   6.413   7.044 -0.1217  0.0409  0.4248
  891YOPE   C1A13177   2.246   6.068   7.269  0.0628  0.2534  0.1579
  891YOPE   D2A13178   2.180   5.829   7.597 -0.1613 -0.1779  0.1524
  891YOPE   C3A13179   1.726   5.838   7.865  0.2557  0.1678  0.0176
  891YOPE   C4A13180   1.594   5.511   8.179 -0.1222 -0.2862  0.3068
  891YOPE   C1B13181   2.838   6.634   7.308  0.4622 -0.1975  0.0448
  891YOPE   C2B13182   2.808   6.670   7.766 -0.1259 -0.0333  0.2489
  891YOPE   D3B13183   2.426   6.674   8.047 -0.1492 -0.2905 -0.0442
  891YOPE   C4B13184   2.350   6.904   8.432  0.2509 -0.1617 -0.2183
  892YOPE   NH313185   2.812   7.553   5.826  0.1039 -0.0867  0.4011
  892YOPE   PO413186   2.747   8.007   5.604 -0.2025  0.2837 -0.2295
  892YOPE   GL113187   2.524   8.142   5.972 -0.3967 -0.1476 -0.2036
  892YOPE   GL213188   2.500   7.896   6.139 -0.3468 -0.0064  0.3573
  892YOPE   C1A13189   2.741   8.288   6.387  0.3054 -0.1017  0.2692
  892YOPE   D2A13190   2.778   8.336   6.860 -0.0362 -0.1093  0.1824
  892YOPE   C3A13191   2.763   8.682   7.211 -0.0653  0.1657  0.0649
  892YOPE   C4A13192   2.783   8.639   7.727  0.1344  0.3062 -0.0652
  892YOPE   C1B13193   2.254   8.030   6.374  0.2265  0.2052 -0.1639
  892YOPE   C2B13194   1.942   8.193   6.639 -0.2691  0.0821  0.0759
  892YOPE   D3B13195   1.959   8.138   7.030  0.0749  0.0535  0.0971
  892YOPE   C4B13196   1.923   7.928   7.438  0.2409 -0.2211 -0.1496
  893YOPE   NH313197   4.758   6.085   5.984  0.0505 -0.2529  0.0202
  893YOPE   PO413198   4.357   6.062   6.082  0.1060 -0.2134  0.1419
  893YOPE   GL113199   4.347   6.054   6.553  0.0764  0.0890  0.0468
  893YOPE   GL213200   4.010   6.075   6.617  0.1430  0.2844 -0.1260
  893YOPE   C1A13201   4.770   6.014   6.787  0.0965 -0.1567  0.0770
  893YOPE   D2A13202   5.003   6.128   7.057 -0.0211 -0.2041 -0.1078
  893YOPE   C3A13203   5.199   6.168   7.428 -0.0294  0.0480  0.4496
  893YOPE   C4A13204   5.423   5.958   7.725  0.0758 -0.0134 -0.3393
  893YOPE   C1B13205   3.843   6.161   7.038  0.4248 -0.0584 -0.0516
  893YOPE   C2B13206   3.554   6.085   7.403  0.1482  0.0215  0.0846
  893YOPE   D3B13207   3.335   5.935   7.834 -0.3120 -0.0993 -0.1239
  893YOPE   C4B13208   3.125   6.077   8.197  0.2375  0.2049 -0.0083
  894YOPE   NH313209   8.162  14.206   6.428 -0.1243  0.1694  0.1407
  894YOPE   PO413210   7.768  14.386   6.090 -0.0048 -0.0522 -0.1417
  894YOPE   GL113211   7.641  14.279   6.470 -0.2541 -0.1806 -0.0452
  894YOPE   GL213212   7.716  14.308   6.737  0.0184 -0.2185 -0.1080
  894YOPE   C1A13213   7.249  14.113   6.745 -0.0404 -0.2267  0.0164
  894YOPE   D2A13214   7.204  13.875   7.074 -0.0341  0.1266 -0.1202
  894YOPE   C3A13215   7.272  14.055   7.503 -0.0831 -0.2841  0.3000
  894YOPE   C4A13216   7.312  13.944   7.942 -0.1710  0.0219 -0.0902
  894YOPE   C1B13217   7.560  14.275   7.105 -0.2248  0.1439 -0.2609
  894YOPE   C2B13218   7.641  14.409   7.520  0.1749 -0.3271  0.3953
  894YOPE   D3B13219   7.683  14.239   7.946  0.1157 -0.0709  0.0615
  894YOPE   C4B13220   8.061  14.241   8.332  0.0496  0.1231  0.0911
  895YOPE   NH313221  10.981  14.532   5.620 -0.0421  0.2076 -0.1775
  895YOPE   PO413222  11.186  14.880   5.923  0.2234  0.3429  0.0564
  895YOPE   GL113223  11.221  15.076   6.345 -0.1409 -0.2983 -0.3411
  895YOPE   GL213224  11.283  15.422   6.376  0.1335 -0.2097 -0.2079
  895YOPE   C1A13225  11.351  14.800   6.761  0.1035  0.0638  0.0949
  895YOPE   D2A13226  11.413  14.411   6.922  0.0448 -0.0014  0.0758
  895YOPE   C3A13227  11.640  14.410   7.112 -0.3276 -0.0192  0.1001
  895YOPE   C4A13228  11.746  14.820   7.282  0.1470  0.0530  0.1362
  895YOPE   C1B13229  11.252  15.493   6.805  0.0995  0.1419  0.3064
  895YOPE   C2B13230  11.072  15.387   7.214  0.1002  0.0073  0.0701
  895YOPE   D3B13231  10.751  15.206   7.465 -0.0144  0.1541  0.0328
  895YOPE   C4B13232  10.815  15.006   7.808  0.1784 -0.0625 -0.0643
  896YOPE   NH313233   4.675  17.714   5.994  0.0688 -0.3772 -0.0799
  896YOPE   PO413234   4.880  17.803   6.354 -0.1484 -0.1044 -0.2026
  896YOPE   GL113235   4.530  17.796   6.565 -0.1153 -0.2654 -0.0588
  896YOPE   GL213236   4.270  18.072   6.554  0.3239 -0.1512  0.0283
  896YOPE   C1A13237   4.356  17.840   7.008  0.0199 -0.1991  0.2188
  896YOPE   D2A13238   4.180  17.824   7.393 -0.1218 -0.4851 -0.0056
  896YOPE   C3A13239   3.955  17.628   7.402  0.0774  0.0929 -0.1412
  896YOPE   C4A13240   3.914  17.317   7.228  0.1011 -0.0451 -0.0175
  896YOPE   C1B13241   4.316  18.341   6.871  0.0188 -0.2031 -0.0016
  896YOPE   C2B13242   4.367  18.371   7.362  0.1169  0.3702  0.0447
  896YOPE   D3B13243   4.037  18.226   7.647  0.1004 -0.3443  0.2709
  896YOPE   C4B13244   4.056  18.338   8.142  0.0411 -0.1955  0.0546
  897YOPE   NH313245  16.349   1.676   6.146  0.0544  0.0431  0.0914
  897YOPE   PO413246  16.158   1.380   5.922 -0.1205 -0.2077  0.1089
  897YOPE   GL113247  15.995   1.420   6.413 -0.0412 -0.1226  0.2058
  897YOPE   GL213248  15.846   1.239   6.559 -0.0146 -0.0611  0.1744
  897YOPE   C1A13249  15.874   1.682   6.786  0.0986 -0.4224  0.3545
  897YOPE   D2A13250  15.774   2.146   6.780  0.0920 -0.1777  0.2492
  897YOPE   C3A13251  15.512   2.383   7.115 -0.4573  0.0785 -0.1343
  897YOPE   C4A13252  15.331   2.359   7.529 -0.1307  0.3911 -0.2470
  897YOPE   C1B13253  16.101   1.266   6.957 -0.0479  0.0914 -0.2238
  897YOPE   C2B13254  16.218   1.407   7.441  0.0142  0.0200 -0.2017
  897YOPE   D3B13255  16.197   1.431   7.875  0.0815 -0.0119  0.0853
  897YOPE   C4B13256  16.261   1.437   8.210 -0.2833 -0.2867 -0.3198
  898YOPE   NH313257   4.197  15.638   5.811 -0.1764 -0.0749  0.1807
  898YOPE   PO413258   3.932  15.442   6.143  0.3847  0.1101 -0.0141
  898YOPE   GL113259   3.745  15.347   6.618  0.2212  0.0935  0.1579
  898YOPE   GL213260   3.913  15.292   6.826 -0.3910  0.3871  0.2844
  898YOPE   C1A13261   3.476  15.371   6.953 -0.1248 -0.3523 -0.1189
  898YOPE   D2A13262   3.049  15.504   7.114 -0.1388 -0.1908 -0.0687
  898YOPE   C3A13263   2.962  15.585   7.637 -0.0457 -0.2480  0.2046
  898YOPE   C4A13264   2.742  15.327   7.949  0.1958 -0.1182  0.1249
  898YOPE   C1B13265   4.057  15.589   7.144  0.0152 -0.0290 -0.1496
  898YOPE   C2B13266   3.899  15.931   7.266  0.0474 -0.0132 -0.0119
  898YOPE   D3B13267   3.625  16.052   7.570  0.0069  0.1337 -0.2620
  898YOPE   C4B13268   3.423  16.341   7.961 -0.3565  0.2409 -0.0581
  899YOPE   NH313269  16.542   2.945   6.381 -0.1671 -0.0710 -0.2489
  899YOPE   PO413270  16.443   2.561   6.332  0.1498  0.0338  0.0978
  899YOPE   GL113271  16.563   2.620   6.760  0.0184  0.0549 -0.2342
  899YOPE   GL213272  16.913   2.554   6.769 -0.1806  0.0163  0.0332
  899YOPE   C1A13273  16.439   2.488   7.103 -0.3801 -0.1094  0.0588
  899YOPE   D2A13274  16.260   2.602   7.529  0.0186 -0.2176  0.0013
  899YOPE   C3A13275  16.284   2.327   7.734 -0.0268 -0.1229 -0.1893
  899YOPE   C4A13276  16.140   1.953   7.962  0.0088 -0.1298 -0.3401
  899YOPE   C1B13277  16.898   2.344   7.109 -0.3501  0.0630 -0.1641
  899YOPE   C2B13278  16.655   2.182   7.451 -0.2314  0.0736  0.2820
  899YOPE   D3B13279  16.545   1.813   7.601 -0.1083  0.1927  0.2130
  899YOPE   C4B13280  16.699   1.426   7.315 -0.1100 -0.2633  0.4662
  900YOPE   NH313281  11.788  11.021   6.188  0.1996  0.1631 -0.1825
  900YOPE   PO413282  12.093  10.630   5.915  0.0731 -0.1910 -0.1511
  900YOPE   GL113283  12.085  10.267   6.354  0.1002 -0.0901  0.0637
  900YOPE   GL213284  11.925  10.571   6.448 -0.2335 -0.0401  0.1970
  900YOPE   C1A13285  12.124  10.228   6.848  0.2119 -0.1068  0.1628
  900YOPE   D2A13286  12.334  10.198   7.351 -0.1448  0.0226 -0.2264
  900YOPE   C3A13287  12.252   9.890   7.708  0.3111  0.1339  0.2021
  900YOPE   C4A13288  12.202   9.751   8.219  0.0675 -0.0228 -0.2217
  900YOPE   C1B13289  12.078  10.737   6.864 -0.3355  0.0906 -0.0924
  900YOPE   C2B13290  12.152  10.630   7.252  0.2532 -0.2451 -0.1391
  900YOPE   D3B13291  12.011  10.712   7.695 -0.2787 -0.0997  0.3095
  900YOPE   C4B13292  11.866  10.998   8.061  0.1224  0.1807 -0.1403
  901YOPE   NH313293   1.925  16.751   6.192  0.0168  0.1873  0.2692
  901YOPE   PO413294   2.250  16.484   6.003  0.1732  0.0016 -0.1657
  901YOPE   GL113295   2.417  16.581   6.367 -0.3840 -0.0091 -0.0034
  901YOPE   GL213296   2.389  16.931   6.439 -0.0387 -0.2430 -0.2552
  901YOPE   C1A13297   2.512  16.548   6.736 -0.0907 -0.3313  0.3795
  901YOPE   D2A13298   2.440  16.127   6.875  0.1907 -0.0634  0.0389
  901YOPE   C3A13299   2.078  15.902   6.842 -0.0120  0.1721 -0.2481
  901YOPE   C4A13300   1.547  16.031   6.857 -0.0232  0.0059 -0.0143
  901YOPE   C1B13301   2.182  16.962   6.850 -0.0263  0.0177 -0.1167
  901YOPE   C2B13302   2.036  16.891   7.160 -0.1223 -0.2048  0.1411
  901YOPE   D3B13303   2.109  16.759   7.570 -0.0434  0.2415  0.2329
  901YOPE   C4B13304   1.876  16.468   7.778 -0.1760  0.1636 -0.1733
  902YOPE   NH313305   9.667  15.818   5.896 -0.0513  0.2416 -0.3447
  902YOPE   PO413306   9.414  16.053   6.080 -0.1949 -0.1865  0.0478
  902YOPE   GL113307   9.613  16.317   6.307 -0.0862  0.1705  0.2250
  902YOPE   GL213308   9.494  16.659   6.353 -0.3134 -0.0370 -0.0816
  902YOPE   C1A13309   9.582  16.318   6.744 -0.1356  0.4156  0.0614
  902YOPE   D2A13310   9.435  15.948   7.030 -0.0417  0.1116 -0.0445
  902YOPE   C3A13311   8.999  15.964   7.215 -0.3581 -0.3638 -0.1011
  902YOPE   C4A13312   8.685  16.147   7.265 -0.0995 -0.0088 -0.2664
  902YOPE   C1B13313   9.648  16.881   6.693  0.0251  0.1561  0.0183
  902YOPE   C2B13314   9.626  16.918   7.104 -0.1120 -0.1631 -0.0137
  902YOPE   D3B13315   9.625  16.792   7.540 -0.0232  0.0721 -0.0434
  902YOPE   C4B13316   9.916  16.480   7.727 -0.0571 -0.1629  0.0390
  903YOPE   NH313317  12.010   0.426   5.690  0.1316  0.0590  0.1965
  903YOPE   PO413318  12.368   0.308   5.885 -0.2338 -0.0208 -0.0862
  903YOPE   GL113319  12.584   0.343   6.292  0.4043 -0.2665  0.2760
  903YOPE   GL213320  12.567   0.755   6.333 -0.1686 -0.3271  0.2501
  903YOPE   C1A13321  12.809   0.541   6.704  0.1245 -0.3090 -0.1524
  903YOPE   D2A13322  12.605   0.719   7.096  0.1499  0.2214  0.0740
  903YOPE   C3A13323  12.599   0.665   7.480 -0.2251  0.0840 -0.1271
  903YOPE   C4A13324  12.468   0.732   7.929 -0.2137 -0.0742  0.2277
  903YOPE   C1B13325  12.550   1.015   6.708  0.0398  0.0011 -0.0594
  903YOPE   C2B13326  12.551   1.218   7.176 -0.5356 -0.0855  0.0267
  903YOPE   D3B13327  12.304   1.461   7.502  0.2119 -0.1424 -0.0540
  903YOPE   C4B13328  12.147   1.860   7.661 -0.0700 -0.1630 -0.0644
  904YOPE   NH313329  15.492  12.551   5.979  0.0036  0.2655 -0.2084
  904YOPE   PO413330  15.832  12.323   5.995 -0.3428 -0.0676  0.1443
  904YOPE   GL113331  15.538  12.192   6.329  0.0182  0.0869  0.2510
  904YOPE   GL213332  15.533  11.894   6.115  0.2243 -0.1169 -0.1505
  904YOPE   C1A13333  15.423  11.922   6.631 -0.2122  0.4247 -0.1803
  904YOPE   D2A13334  15.364  11.941   7.098 -0.1400 -0.0184  0.3118
  904YOPE   C3A13335  15.560  11.797   7.468  0.0229 -0.1048  0.0052
  904YOPE   C4A13336  15.674  11.728   7.923 -0.2487  0.1832  0.1460
  904YOPE   C1B13337  15.855  11.745   6.382 -0.2584  0.0440  0.1463
  904YOPE   C2B13338  15.904  11.692   6.781 -0.2675 -0.0924 -0.0514
  904YOPE   D3B13339  15.935  11.613   7.187  0.1052  0.0630  0.2029
  904YOPE   C4B13340  16.095  11.703   7.568 -0.2298  0.3008  0.0764
  905YOPE   NH313341  13.140   6.639   5.671  0.1861 -0.0177 -0.2133
  905YOPE   PO413342  13.481   6.908   5.708 -0.0533 -0.1054  0.0498
  905YOPE   GL113343  13.574   7.019   6.161 -0.0932 -0.0005  0.1082
  905YOPE   GL213344  13.647   7.363   6.308 -0.2805 -0.1786 -0.0379
  905YOPE   C1A13345  13.895   6.987   6.529  0.1088 -0.2937 -0.0815
  905YOPE   D2A13346  13.899   7.034   6.986  0.0063  0.4043 -0.1250
  905YOPE   C3A13347  14.019   7.156   7.411  0.1307 -0.1741 -0.1296
  905YOPE   C4A13348  14.158   7.433   7.641  0.0744  0.1896 -0.2705
  905YOPE   C1B13349  13.596   7.369   6.784  0.0286  0.5072  0.0971
  905YOPE   C2B13350  13.636   7.447   7.194 -0.0156  0.4385 -0.0081
  905YOPE   D3B13351  13.859   7.771   7.403  0.2570 -0.1647 -0.0268
  905YOPE   C4B13352  13.916   7.814   7.896  0.0095  0.2839  0.0675
  906YOPE   NH313353  17.483   3.688   6.509  0.1059  0.0482  0.0450
  906YOPE   PO413354  17.475   4.063   6.328 -0.0112  0.0748 -0.4759
  906YOPE   GL113355  17.297   4.215   6.669  0.2718 -0.0373 -0.3296
  906YOPE   GL213356  17.151   3.909   6.828 -0.1313  0.2378  0.2183
  906YOPE   C1A13357  17.247   4.542   6.947  0.0549  0.4462 -0.1257
  906YOPE   D2A13358  17.019   4.745   7.358 -0.2995 -0.1778 -0.0607
  906YOPE   C3A13359  16.921   5.009   7.645  0.1422  0.0308 -0.0999
  906YOPE   C4A13360  16.762   5.015   7.993 -0.2673  0.0276  0.1976
  906YOPE   C1B13361  17.385   3.845   7.216 -0.1463  0.0033  0.2306
  906YOPE   C2B13362  17.448   3.988   7.622 -0.0363 -0.1041  0.3683
  906YOPE   D3B13363  17.946   3.985   7.792  0.0928 -0.0183 -0.1719
  906YOPE   C4B13364  18.339   3.644   7.672  0.1633 -0.1372  0.0805
  907YOPE   NH313365  11.252  17.061   5.851  0.3710  0.0546 -0.2744
  907YOPE   PO413366  11.035  16.697   6.079 -0.1388  0.1334 -0.0253
  907YOPE   GL113367  10.996  16.796   6.409 -0.0353 -0.1079 -0.3711
  907YOPE   GL213368  11.277  16.991   6.369  0.1225 -0.4721 -0.1060
  907YOPE   C1A13369  11.089  16.600   6.872 -0.1589  0.2730  0.1710
  907YOPE   D2A13370  11.322  16.439   7.183  0.1501  0.2773  0.3320
  907YOPE   C3A13371  11.282  16.101   7.495  0.0279 -0.1150 -0.3065
  907YOPE   C4A13372  11.217  15.865   7.863 -0.1981 -0.2006  0.0901
  907YOPE   C1B13373  11.436  16.555   6.544  0.1555 -0.1703  0.0566
  907YOPE   C2B13374  11.306  16.170   6.614 -0.0080  0.0527  0.1708
  907YOPE   D3B13375  11.360  15.980   7.039  0.0668  0.0512 -0.2758
  907YOPE   C4B13376  11.522  15.661   7.496 -0.1794  0.0651 -0.0566
  908YOPE   NH313377   3.546   4.139   6.417  0.0892  0.1766  0.0622
  908YOPE   PO413378   3.179   3.917   6.623 -0.2076  0.2512  0.0348
  908YOPE   GL113379   3.504   4.162   6.933 -0.0308  0.2139 -0.1829
  908YOPE   GL213380   3.814   4.130   6.865 -0.0933 -0.3335 -0.2234
  908YOPE   C1A13381   3.627   4.271   7.381 -0.1034 -0.0516  0.0275
  908YOPE   D2A13382   3.788   4.360   7.845  0.3218 -0.0606  0.2238
  908YOPE   C3A13383   4.021   4.688   8.021 -0.0589  0.2162 -0.0093
  908YOPE   C4A13384   3.940   4.948   8.359 -0.1974  0.1613 -0.4051
  908YOPE   C1B13385   4.133   4.278   7.238 -0.1843 -0.1418  0.0038
  908YOPE   C2B13386   4.250   4.431   7.644 -0.1852  0.2697  0.0434
  908YOPE   D3B13387   4.297   4.264   8.006 -0.0759 -0.2570 -0.2283
  908YOPE   C4B13388   4.605   4.149   8.244  0.0294 -0.0026 -0.1489
  909YOPE   NH313389   3.013   7.088   6.012 -0.0381  0.1887  0.1017
  909YOPE   PO413390   3.157   6.609   6.209 -0.1070 -0.0010 -0.4530
  909YOPE   GL113391   3.006   6.872   6.530  0.0504 -0.0150 -0.1087
  909YOPE   GL213392   3.218   7.001   6.709 -0.0199  0.0237 -0.1895
  909YOPE   C1A13393   2.614   6.912   6.945  0.0509 -0.0455  0.3232
  909YOPE   D2A13394   2.502   7.029   7.444  0.3019  0.2009 -0.0964
  909YOPE   C3A13395   2.663   7.208   7.849 -0.0103 -0.0066  0.0631
  909YOPE   C4A13396   2.872   7.199   8.171 -0.0956  0.0993 -0.1388
  909YOPE   C1B13397   3.303   7.048   7.068 -0.2766 -0.2217 -0.3496
  909YOPE   C2B13398   3.642   7.062   7.429  0.0271  0.0930  0.1348
  909YOPE   D3B13399   3.739   7.247   7.744 -0.0655 -0.1828 -0.1462
  909YOPE   C4B13400   3.828   7.735   7.905  0.2815  0.1272  0.1577
  910YOPE   NH313401  17.475  10.973   5.831 -0.1361  0.2463  0.1607
  910YOPE   PO413402  17.893  10.951   6.026  0.1210  0.1092 -0.0779
  910YOPE   GL113403  17.822  10.683   6.394 -0.1852  0.0635 -0.4725
  910YOPE   GL213404  18.048  10.396   6.499  0.1740 -0.0509  0.0032
  910YOPE   C1A13405  17.867  10.599   6.863 -0.0276  0.1244 -0.2248
  910YOPE   D2A13406  17.787  10.519   7.278 -0.2443 -0.0167  0.0396
  910YOPE   C3A13407  17.763  10.855   7.606  0.1718 -0.1286 -0.2017
  910YOPE   C4A13408  17.955  10.917   7.977 -0.0737 -0.1043  0.2451
  910YOPE   C1B13409  17.648  10.125   6.656  0.0055  0.3373  0.0445
  910YOPE   C2B13410  17.340   9.980   6.659  0.0586 -0.0174 -0.0406
  910YOPE   D3B13411  17.025   9.893   6.409 -0.0507  0.1785 -0.3406
  910YOPE   C4B13412  16.521   9.950   6.476  0.0373 -0.0710  0.0980
  911YOPE   NH313413   1.112   8.425   6.146 -0.0978 -0.2055 -0.1330
  911YOPE   PO413414   1.133   8.015   6.167  0.0109  0.2365  0.0974
  911YOPE   GL113415   1.091   8.155   6.626 -0.2107  0.2581 -0.0316
  911YOPE   GL213416   1.309   8.431   6.615  0.0387  0.3156 -0.0022
  911YOPE   C1A13417   1.062   8.172   7.153  0.3035  0.2257  0.1371
  911YOPE   D2A13418   0.925   8.133   7.530  0.1070  0.1233  0.2295
  911YOPE   C3A13419   1.100   8.321   7.981  0.1186  0.0359  0.0822
  911YOPE   C4A13420   1.120   8.318   8.417 -0.0788  0.0589  0.1817
  911YOPE   C1B13421   1.511   8.301   7.021  0.1001  0.0861  0.0235
  911YOPE   C2B13422   1.561   8.281   7.432 -0.0904 -0.2057 -0.1254
  911YOPE   D3B13423   1.824   8.299   7.765  0.1245  0.1453  0.0657
  911YOPE   C4B13424   2.126   8.515   7.896  0.0885  0.1196  0.0604
  912YOPE   NH313425   0.014   6.589   6.072  0.0482 -0.1093 -0.0867
  912YOPE   PO413426  -0.219   6.891   5.953  0.0728  0.0905  0.0942
  912YOPE   GL113427  -0.402   7.011   6.390 -0.0735  0.1072  0.0628
  912YOPE   GL213428  -0.223   7.316   6.495 -0.0470  0.1037 -0.1372
  912YOPE   C1A13429  -0.328   6.722   6.708  0.2038  0.3732 -0.2175
  912YOPE   D2A13430  -0.257   6.751   7.149 -0.0458  0.0015  0.1315
  912YOPE   C3A13431  -0.413   6.464   7.372  0.0070 -0.1869  0.2642
  912YOPE   C4A13432  -0.783   6.261   7.612  0.1627  0.2072  0.0045
  912YOPE   C1B13433   0.001   7.118   6.856 -0.1472 -0.0146  0.0833
  912YOPE   C2B13434   0.250   6.735   7.134  0.1366 -0.1628 -0.0001
  912YOPE   D3B13435   0.332   6.528   7.449 -0.3546 -0.3049 -0.2487
  912YOPE   C4B13436   0.028   6.355   7.551  0.1277 -0.1019  0.2928
  913YOPE   NH313437   1.577   3.112   6.482  0.0326  0.1224  0.1528
  913YOPE   PO413438   1.726   2.777   6.553 -0.2690  0.2070 -0.2167
  913YOPE   GL113439   2.110   2.624   6.945  0.2241 -0.4262  0.2490
  913YOPE   GL213440   2.123   2.272   7.025  0.0002 -0.0094 -0.0861
  913YOPE   C1A13441   2.113   2.584   7.371 -0.1858 -0.0847 -0.0705
  913YOPE   D2A13442   2.109   2.792   7.731  0.2431 -0.1582 -0.1151
  913YOPE   C3A13443   1.952   2.792   8.058 -0.0201  0.1136  0.0876
  913YOPE   C4A13444   1.624   2.529   8.218 -0.2101 -0.0644  0.1332
  913YOPE   C1B13445   2.565   2.324   7.134  0.1365 -0.2049  0.1119
  913YOPE   C2B13446   2.797   2.442   7.553  0.4289 -0.1350  0.1028
  913YOPE   D3B13447   2.904   2.663   7.899 -0.1486 -0.0657  0.3294
  913YOPE   C4B13448   2.989   2.872   8.284  0.0758 -0.0960  0.3090
  914YOPE   NH313449   0.222   8.607   6.197  0.1839  0.2408  0.1803
  914YOPE   PO413450  -0.097   8.640   5.971 -0.1111 -0.0257 -0.1856
  914YOPE   GL113451  -0.074   9.063   6.254 -0.2586  0.0658 -0.2145
  914YOPE   GL213452  -0.220   9.407   6.292 -0.0721  0.0474 -0.0910
  914YOPE   C1A13453  -0.119   9.025   6.712 -0.2929  0.0912  0.1016
  914YOPE   D2A13454  -0.204   9.058   7.144  0.0847  0.1188 -0.1612
  914YOPE   C3A13455   0.057   8.983   7.471 -0.1244  0.1120  0.1843
  914YOPE   C4A13456   0.366   8.953   7.753 -0.2333  0.3919 -0.1772
  914YOPE   C1B13457  -0.181   9.634   6.687 -0.0437 -0.1187 -0.0262
  914YOPE   C2B13458  -0.103  10.025   7.000 -0.2877 -0.1144 -0.0085
  914YOPE   D3B13459   0.093  10.492   7.069 -0.1248 -0.4713  0.0050
  914YOPE   C4B13460   0.146  10.713   6.768  0.0946 -0.0394  0.0222
  915YOPE   NH313461   6.830  17.413   6.460  0.1962  0.1090  0.5423
  915YOPE   PO413462   7.179  17.285   6.230 -0.0289  0.0522 -0.0029
  915YOPE   GL113463   7.370  17.151   6.563 -0.1046  0.0051  0.1039
  915YOPE   GL213464   7.343  16.808   6.509  0.0191 -0.0385  0.0999
  915YOPE   C1A13465   7.712  17.258   6.885  0.1678  0.2079  0.0367
  915YOPE   D2A13466   8.108  17.381   7.038  0.2360 -0.0778 -0.1619
  915YOPE   C3A13467   8.105  17.387   7.445  0.1850 -0.0295  0.0590
  915YOPE   C4A13468   8.440  17.348   7.718  0.3038  0.1331 -0.2091
  915YOPE   C1B13469   7.518  16.774   6.943 -0.1229 -0.2843 -0.1834
  915YOPE   C2B13470   7.484  16.555   7.234  0.0956 -0.1221 -0.1219
  915YOPE   D3B13471   7.522  16.267   7.455 -0.2238 -0.0770 -0.0278
  915YOPE   C4B13472   7.669  15.919   7.558 -0.0238 -0.1840 -0.0578
  916YOPE   NH313473  14.736   3.074   5.419 -0.0531  0.1499  0.1081
  916YOPE   PO413474  14.379   3.197   5.435  0.1115 -0.0872  0.3047
  916YOPE   GL113475  14.313   3.288   5.878 -0.0891  0.0039  0.1142
  916YOPE   GL213476  13.969   3.169   6.029 -0.0438 -0.2879 -0.0672
  916YOPE   C1A13477  14.228   3.560   6.311 -0.0163  0.0139 -0.3715
  916YOPE   D2A13478  14.106   3.564   6.680  0.1950 -0.2618 -0.0052
  916YOPE   C3A13479  14.309   3.647   7.038  0.0511  0.2407  0.0047
  916YOPE   C4A13480  14.098   3.660   7.481  0.0956 -0.2900 -0.3070
  916YOPE   C1B13481  13.840   3.149   6.387 -0.2990  0.0118 -0.0272
  916YOPE   C2B13482  14.240   3.025   6.576 -0.4183  0.1067 -0.5063
  916YOPE   D3B13483  14.626   2.871   6.631  0.0208 -0.1862 -0.0153
  916YOPE   C4B13484  14.962   2.677   6.513 -0.1048  0.1779 -0.0625
  917YOPE   NH313485   6.678  15.058   5.897  0.0674 -0.1194  0.2076
  917YOPE   PO413486   6.765  14.639   5.894  0.0836 -0.1198 -0.1481
  917YOPE   GL113487   7.031  14.693   6.238 -0.1437  0.2966  0.2488
  917YOPE   GL213488   7.167  14.464   6.437  0.0522  0.0017  0.3543
  917YOPE   C1A13489   7.069  14.969   6.551 -0.1571  0.0797  0.0842
  917YOPE   D2A13490   7.278  15.161   6.930  0.1678 -0.0491 -0.3804
  917YOPE   C3A13491   7.113  15.109   7.314 -0.1466 -0.0344 -0.1678
  917YOPE   C4A13492   7.251  15.100   7.765  0.1389 -0.0410 -0.2591
  917YOPE   C1B13493   7.376  14.675   6.801  0.2572  0.0950 -0.0636
  917YOPE   C2B13494   7.480  14.802   7.219  0.1475 -0.3987  0.2549
  917YOPE   D3B13495   7.596  15.183   7.422  0.2919 -0.0788 -0.1214
  917YOPE   C4B13496   7.917  15.451   7.421  0.2066 -0.0792 -0.0927
  918YOPE   NH313497  16.994   0.691   5.959  0.1029  0.3916  0.1746
  918YOPE   PO413498  17.446   0.748   5.952  0.3068 -0.0926  0.0260
  918YOPE   GL113499  17.190   0.606   6.416 -0.1097 -0.0693  0.1694
  918YOPE   GL213500  17.205   0.765   6.608 -0.1781 -0.1684 -0.3574
  918YOPE   C1A13501  16.749   0.516   6.735 -0.2539  0.0392  0.0167
  918YOPE   D2A13502  16.835   0.683   7.076 -0.1916 -0.0000  0.4262
  918YOPE   C3A13503  16.912   0.943   7.429  0.1583  0.5248 -0.1928
  918YOPE   C4A13504  16.992   1.095   7.717 -0.1305 -0.4397 -0.1760
  918YOPE   C1B13505  17.323   0.881   7.028 -0.1890 -0.0148  0.0434
  918YOPE   C2B13506  17.496   0.915   7.384 -0.0554 -0.1694 -0.2752
  918YOPE   D3B13507  17.532   1.041   7.795  0.0042  0.1175  0.1344
  918YOPE   C4B13508  17.684   1.143   8.214 -0.1486 -0.2631 -0.0702
  919YOPE   NH313509   1.977   0.063   6.220 -0.3338  0.0673 -0.2731
  919YOPE   PO413510   2.218  -0.260   6.273  0.1345 -0.0948  0.1618
  919YOPE   GL113511   2.159  -0.438   6.665 -0.0648 -0.1530  0.3117
  919YOPE   GL213512   1.955  -0.686   6.681  0.2339 -0.1011  0.2010
  919YOPE   C1A13513   2.516  -0.802   6.885 -0.1193  0.0491 -0.0378
  919YOPE   D2A13514   2.834  -0.667   7.204  0.2885 -0.0939  0.1450
  919YOPE   C3A13515   3.097  -0.996   7.122 -0.0404  0.2235 -0.0145
  919YOPE   C4A13516   3.485  -1.169   7.227 -0.1737  0.1757 -0.1174
  919YOPE   C1B13517   2.006  -0.770   7.109 -0.0906  0.2438  0.0160
  919YOPE   C2B13518   2.360  -0.883   7.337  0.0347 -0.0229 -0.3136
  919YOPE   D3B13519   2.602  -0.715   7.656 -0.2287 -0.2379 -0.1100
  919YOPE   C4B13520   2.936  -0.982   7.628  0.0139 -0.1610 -0.0179
  920YOPE   NH313521  14.735  15.745   5.808  0.0334 -0.1896  0.3527
  920YOPE   PO413522  15.169  15.896   5.701 -0.0474 -0.1442 -0.1330
  920YOPE   GL113523  15.197  15.926   6.197 -0.0543  0.0745 -0.1801
  920YOPE   GL213524  15.040  15.689   6.292  0.0526 -0.0656  0.3362
  920YOPE   C1A13525  15.278  16.075   6.679 -0.1302 -0.1033 -0.2957
  920YOPE   D2A13526  15.241  16.222   7.054 -0.2251  0.4780  0.1404
  920YOPE   C3A13527  15.411  16.496   7.262  0.2161  0.0049  0.0633
  920YOPE   C4A13528  15.395  16.963   7.404  0.2034 -0.0226  0.0356
  920YOPE   C1B13529  14.888  15.677   6.743  0.1624 -0.3627 -0.2330
  920YOPE   C2B13530  14.666  15.471   7.088 -0.2397  0.1179 -0.1198
  920YOPE   D3B13531  14.650  15.559   7.458  0.2563  0.3592  0.3307
  920YOPE   C4B13532  14.918  15.773   7.803  0.3671 -0.2502 -0.1539
  921YOPE   NH313533  13.386  14.872   6.167 -0.2447  0.0439 -0.4731
  921YOPE   PO413534  13.120  15.106   5.877  0.0610 -0.1001 -0.4820
  921YOPE   GL113535  13.025  15.321   6.313  0.3479 -0.1837  0.1579
  921YOPE   GL213536  12.958  15.709   6.303 -0.2138  0.0835  0.2290
  921YOPE   C1A13537  13.177  15.477   6.752 -0.3191 -0.2765 -0.1013
  921YOPE   D2A13538  13.132  15.634   7.120  0.0412 -0.3334  0.0762
  921YOPE   C3A13539  13.154  15.732   7.501 -0.0019 -0.1146 -0.1633
  921YOPE   C4A13540  12.895  15.921   7.903  0.0745 -0.1156  0.1485
  921YOPE   C1B13541  12.712  15.655   6.605 -0.0027  0.1007 -0.1676
  921YOPE   C2B13542  12.683  15.363   7.013  0.0061  0.1304 -0.2230
  921YOPE   D3B13543  12.851  15.212   7.321 -0.2615  0.1746  0.3902
  921YOPE   C4B13544  13.128  15.159   7.643 -0.2100  0.2302  0.0269
  922YOPE   NH313545  11.894   0.048   6.017  0.0388  0.4196 -0.1518
  922YOPE   PO413546  11.821   0.413   6.153  0.2336 -0.1272  0.0126
  922YOPE   GL113547  11.956   0.185   6.501  0.0382 -0.1452 -0.1469
  922YOPE   GL213548  12.290  -0.008   6.392  0.1017  0.1351  0.1091
  922YOPE   C1A13549  11.938   0.108   6.927  0.0379  0.0787 -0.3421
  922YOPE   D2A13550  11.921   0.170   7.312  0.0858 -0.2340  0.0987
  922YOPE   C3A13551  12.160   0.529   7.441 -0.2356  0.1628  0.2074
  922YOPE   C4A13552  12.212   0.973   7.492  0.0168  0.0943 -0.0863
  922YOPE   C1B13553  12.426   0.218   6.860 -0.0649  0.0296  0.1795
  922YOPE   C2B13554  12.454   0.123   7.286 -0.3245 -0.0802 -0.0929
  922YOPE   D3B13555  12.651   0.094   7.602  0.0026  0.3016  0.1430
  922YOPE   C4B13556  12.948   0.218   7.613 -0.1917 -0.2642 -0.0327
  923YOPE   NH313557  15.649   7.412   5.733  0.0209 -0.0155  0.0259
  923YOPE   PO413558  15.896   7.841   5.904 -0.3023 -0.1495 -0.0278
  923YOPE   GL113559  15.997   7.532   6.087  0.0381  0.1164 -0.0964
  923YOPE   GL213560  16.134   7.291   6.179 -0.0113  0.1472  0.2374
  923YOPE   C1A13561  16.122   7.691   6.535 -0.0176 -0.1749  0.2332
  923YOPE   D2A13562  16.350   7.648   6.842  0.1382  0.0768  0.2283
  923YOPE   C3A13563  16.247   7.703   7.230  0.0894 -0.1258 -0.1809
  923YOPE   C4A13564  16.149   7.568   7.676 -0.1029 -0.1977 -0.3185
  923YOPE   C1B13565  16.264   7.203   6.613  0.1600  0.2695 -0.0117
  923YOPE   C2B13566  16.189   7.211   7.120  0.0394  0.2500  0.1679
  923YOPE   D3B13567  16.206   7.022   7.540 -0.0609 -0.3719  0.0445
  923YOPE   C4B13568  16.229   6.930   8.005  0.0524  0.0030 -0.0403
  924YOPE   NH313569  14.388   1.404   5.668  0.0358 -0.1141  0.0667
  924YOPE   PO413570  14.649   1.881   5.687  0.0245 -0.0717  0.0085
  924YOPE   GL113571  14.386   1.941   5.964 -0.1891 -0.0790  0.1578
  924YOPE   GL213572  14.406   1.665   6.210  0.0552  0.0377  0.0533
  924YOPE   C1A13573  14.092   2.042   6.340 -0.0404 -0.1863  0.0668
  924YOPE   D2A13574  13.967   2.093   6.777  0.0689 -0.3212  0.0505
  924YOPE   C3A13575  13.967   2.179   7.180  0.2557 -0.2705  0.0634
  924YOPE   C4A13576  14.087   2.390   7.461  0.4473 -0.2838 -0.0774
  924YOPE   C1B13577  14.366   1.795   6.713 -0.0192  0.0270  0.0377
  924YOPE   C2B13578  14.415   1.915   7.119 -0.0423 -0.4215 -0.0364
  924YOPE   D3B13579  14.369   1.965   7.522 -0.0571 -0.2459 -0.0469
  924YOPE   C4B13580  14.502   1.795   7.874  0.0981  0.0844 -0.0306
  925YOPE   NH313581  15.131   9.763   5.756  0.0321  0.1895 -0.0175
  925YOPE   PO413582  15.351   9.493   5.925 -0.5260  0.1963 -0.1967
  925YOPE   GL113583  15.557   9.656   6.225 -0.1177 -0.0435 -0.0511
  925YOPE   GL213584  15.335  10.000   6.183 -0.0374  0.0416 -0.1070
  925YOPE   C1A13585  15.598   9.698   6.577  0.3817 -0.2138  0.1621
  925YOPE   D2A13586  15.807   9.607   6.992  0.4258 -0.0095 -0.2701
  925YOPE   C3A13587  15.604   9.546   7.490 -0.0852  0.2411  0.1420
  925YOPE   C4A13588  15.466   9.330   7.863  0.1272  0.0014  0.0035
  925YOPE   C1B13589  15.466  10.277   6.542 -0.1218  0.3840 -0.3045
  925YOPE   C2B13590  15.535  10.099   6.874  0.0216 -0.1061 -0.1066
  925YOPE   D3B13591  15.690  10.096   7.279  0.1327 -0.0407  0.0643
  925YOPE   C4B13592  15.893   9.940   7.614  0.0710  0.0419  0.0396
  926YOPE   NH313593   2.091  14.250   5.899 -0.4097 -0.1857 -0.2512
  926YOPE   PO413594   2.508  14.127   6.116  0.0799  0.3151  0.0361
  926YOPE   GL113595   2.409  14.194   6.468  0.2204 -0.2226 -0.2494
  926YOPE   GL213596   2.486  14.417   6.630  0.0949 -0.2969  0.1092
  926YOPE   C1A13597   2.086  14.501   6.902 -0.1205  0.2476 -0.1644
  926YOPE   D2A13598   2.273  14.801   7.157 -0.4022  0.1719 -0.0227
  926YOPE   C3A13599   2.243  14.743   7.499  0.0803  0.1356  0.2398
  926YOPE   C4A13600   2.089  14.545   7.906  0.1257  0.1638  0.0917
  926YOPE   C1B13601   2.727  14.563   6.960 -0.0678 -0.0690  0.0330
  926YOPE   C2B13602   2.822  14.778   7.349  0.0001 -0.0785 -0.1288
  926YOPE   D3B13603   2.644  14.812   7.792  0.3169 -0.0369  0.0608
  926YOPE   C4B13604   2.543  14.862   8.251  0.0162 -0.1409  0.0444
  927YOPE   NH313605  13.372   1.582   5.694 -0.0056  0.0310 -0.2383
  927YOPE   PO413606  13.068   1.439   5.846  0.0534  0.1987 -0.6027
  927YOPE   GL113607  12.982   1.607   6.085  0.1799  0.0525  0.2126
  927YOPE   GL213608  12.587   1.575   6.280  0.1482  0.1477  0.3238
  927YOPE   C1A13609  13.003   1.914   6.411 -0.0089 -0.0987  0.2360
  927YOPE   D2A13610  12.977   1.968   6.769  0.2881  0.0898 -0.1298
  927YOPE   C3A13611  12.674   2.176   7.037  0.1517  0.1001  0.2823
  927YOPE   C4A13612  12.246   2.208   7.259  0.3302  0.0722 -0.1389
  927YOPE   C1B13613  12.777   1.470   6.682  0.0420  0.0233 -0.2387
  927YOPE   C2B13614  12.949   1.531   7.114  0.2575 -0.4078  0.1080
  927YOPE   D3B13615  12.818   1.446   7.548  0.0839  0.1374 -0.0315
  927YOPE   C4B13616  12.658   1.166   7.713  0.0302  0.1478 -0.0684
  928YOPE   NH313617   1.095  10.528   6.122 -0.0973  0.3078 -0.2044
  928YOPE   PO413618   1.486  10.358   6.240 -0.1619  0.0122 -0.1876
  928YOPE   GL113619   1.648  10.322   6.572  0.1331 -0.4366  0.0340
  928YOPE   GL213620   2.002  10.386   6.688  0.1196 -0.0207  0.1843
  928YOPE   C1A13621   1.482  10.437   6.935  0.3319  0.1407  0.1026
  928YOPE   D2A13622   1.387  10.575   7.349 -0.4259  0.2215 -0.1219
  928YOPE   C3A13623   1.490  10.459   7.717 -0.0317 -0.0129  0.0290
  928YOPE   C4A13624   1.619  10.188   8.155 -0.4319  0.2798 -0.0769
  928YOPE   C1B13625   2.135  10.804   6.691 -0.1085  0.0757 -0.0946
  928YOPE   C2B13626   2.144  11.192   7.019 -0.0896  0.0442 -0.2041
  928YOPE   D3B13627   2.064  11.511   7.138  0.3038 -0.0206 -0.1974
  928YOPE   C4B13628   1.752  11.819   7.183  0.0821 -0.1542  0.1904
  929YOPE   NH313629   1.854   7.060   6.004 -0.1221 -0.0636 -0.2174
  929YOPE   PO413630   1.814   6.598   6.119  0.1089 -0.0216 -0.0793
  929YOPE   GL113631   1.881   6.844   6.482  0.3468  0.3541  0.1303
  929YOPE   GL213632   1.707   7.231   6.444  0.1340  0.1452 -0.1652
  929YOPE   C1A13633   2.090   7.132   6.673 -0.1907 -0.1076 -0.1116
  929YOPE   D2A13634   2.416   7.435   6.695  0.0724 -0.0407 -0.0332
  929YOPE   C3A13635   2.507   7.590   7.153  0.0807  0.0235 -0.0490
  929YOPE   C4A13636   2.320   7.508   7.481  0.1471  0.1158 -0.2145
  929YOPE   C1B13637   1.632   7.233   6.880 -0.5957  0.1539  0.0387
  929YOPE   C2B13638   1.537   7.353   7.224 -0.1237 -0.0308 -0.0218
  929YOPE   D3B13639   1.799   7.423   7.549 -0.0020  0.0653 -0.2328
  929YOPE   C4B13640   1.884   7.692   7.845 -0.0211  0.0067 -0.0268
  930YOPE   NH313641  15.130  11.647   5.472 -0.0521 -0.0938 -0.1168
  930YOPE   PO413642  15.277  11.626   5.790 -0.1535  0.0327 -0.1154
  930YOPE   GL113643  15.392  11.411   6.176  0.1189 -0.3425  0.0420
  930YOPE   GL213644  15.081  11.382   6.358  0.1081 -0.1479  0.0802
  930YOPE   C1A13645  15.543  11.405   6.483  0.2866  0.0432 -0.2556
  930YOPE   D2A13646  15.531  11.460   6.881  0.3275  0.1934  0.1777
  930YOPE   C3A13647  15.314  11.432   7.213 -0.0283 -0.0336 -0.3086
  930YOPE   C4A13648  15.087  11.552   7.467  0.0720  0.1054 -0.0396
  930YOPE   C1B13649  15.070  11.261   6.755 -0.1752 -0.2333  0.3663
  930YOPE   C2B13650  14.865  11.177   7.103  0.4046 -0.2308  0.3758
  930YOPE   D3B13651  14.941  11.090   7.524  0.0891  0.1623 -0.1680
  930YOPE   C4B13652  15.036  11.267   7.989 -0.0563  0.1526  0.4808
  931YOPE   NH313653  17.619   1.868   6.247 -0.1393 -0.3536  0.3004
  931YOPE   PO413654  17.639   2.280   6.481  0.0508 -0.4367 -0.1242
  931YOPE   GL113655  17.673   2.301   6.862 -0.1590  0.0269  0.0017
  931YOPE   GL213656  17.413   2.459   6.899  0.0595  0.0892 -0.0272
  931YOPE   C1A13657  17.825   2.316   7.263  0.3521 -0.1006 -0.4582
  931YOPE   D2A13658  17.610   2.322   7.661  0.2255 -0.2088 -0.1680
  931YOPE   C3A13659  17.668   2.157   7.957  0.0343  0.2688 -0.1399
  931YOPE   C4A13660  17.886   1.861   8.148  0.3354 -0.0102  0.0917
  931YOPE   C1B13661  17.330   2.244   7.264 -0.0206 -0.1833 -0.0761
  931YOPE   C2B13662  17.139   2.196   7.698  0.2459 -0.1062  0.2670
  931YOPE   D3B13663  17.097   2.419   8.109 -0.2450  0.1262  0.2004
  931YOPE   C4B13664  16.912   2.678   8.211  0.0773  0.1550 -0.1203
  932POPC   NC313665  12.091   2.139   5.560 -0.1173  0.3006 -0.0874
  932POPC   PO413666  12.465   2.114   5.725 -0.2196  0.0754 -0.0352
  932POPC   GL113667  12.587   2.098   6.141  0.0376  0.0479  0.1627
  932POPC   GL213668  12.568   2.444   6.328  0.3311 -0.0139  0.0825
  932POPC   C1A13669  12.488   1.911   6.579  0.1329 -0.1297 -0.1965
  932POPC   D2A13670  12.106   1.944   6.794 -0.1001 -0.2967 -0.3368
  932POPC   C3A13671  11.919   1.700   7.160 -0.2698 -0.0336  0.0230
  932POPC   C4A13672  11.688   1.776   7.521 -0.0408 -0.0170 -0.0933
  932POPC   C1B13673  12.594   2.592   6.725  0.3305  0.2224  0.3502
  932POPC   C2B13674  12.555   2.629   7.257  0.2636 -0.0694 -0.1177
  932POPC   C3B13675  12.901   2.867   7.588  0.0819  0.0392  0.3799
  932POPC   C4B13676  13.224   2.725   7.833 -0.0059 -0.1399  0.2159
  933POPC   NC313677   9.183  13.003   6.208  0.2765 -0.1731 -0.3280
  933POPC   PO413678   8.865  13.345   6.222  0.0066  0.2841  0.1675
  933POPC   GL113679   9.224  13.430   6.497  0.0140  0.0498 -0.0141
  933POPC   GL213680   9.502  13.409   6.427  0.0400 -0.1350  0.2279
  933POPC   C1A13681   9.513  13.188   6.901  0.0051 -0.0469 -0.1654
  933POPC   D2A13682   9.504  13.335   7.367  0.0815 -0.3892  0.2178
  933POPC   C3A13683   9.725  12.968   7.402  0.2937  0.3157  0.3319
  933POPC   C4A13684   9.743  12.754   7.010  0.0430 -0.0780 -0.0947
  933POPC   C1B13685   9.793  13.662   6.661 -0.2158 -0.2322  0.1186
  933POPC   C2B13686   9.847  13.847   7.124  0.1289 -0.0420  0.2953
  933POPC   C3B13687  10.002  13.678   7.505  0.0511 -0.0794 -0.2073
  933POPC   C4B13688   9.892  13.356   7.670 -0.2735  0.2736  0.0035
  934POPC   NC313689  15.544   5.076   6.004 -0.2099 -0.1474  0.0580
  934POPC   PO413690  15.152   5.297   6.242 -0.4774 -0.0046 -0.0888
  934POPC   GL113691  15.160   5.356   6.560 -0.1757  0.0737  0.0814
  934POPC   GL213692  15.542   5.434   6.611  0.0210 -0.5438 -0.4151
  934POPC   C1A13693  15.083   5.347   7.019  0.0597  0.1886  0.2945
  934POPC   D2A13694  15.022   5.204   7.453 -0.0337  0.0339 -0.0447
  934POPC   C3A13695  14.904   4.908   7.783 -0.2587 -0.1499  0.2169
  934POPC   C4A13696  14.522   4.713   7.928  0.0302 -0.1085  0.1455
  934POPC   C1B13697  15.533   5.805   6.912  0.0298  0.0116  0.1908
  934POPC   C2B13698  15.672   6.027   7.207  0.2375 -0.1490  0.2222
  934POPC   C3B13699  16.019   6.395   7.172 -0.1471 -0.2444  0.2762
  934POPC   C4B13700  16.363   6.691   7.126 -0.0684 -0.0568  0.1458
  935POPC   NC313701   5.559   5.342   6.022  0.1286 -0.3425  0.1895
  935POPC   PO413702   5.219   5.676   5.892  0.0109 -0.1981  0.0253
  935POPC   GL113703   5.250   5.754   6.311  0.3882  0.1053  0.1003
  935POPC   GL213704   5.083   6.067   6.403  0.0248  0.2028  0.0579
  935POPC   C1A13705   5.237   5.701   6.831  0.3082  0.0127  0.1579
  935POPC   D2A13706   5.396   5.709   7.292  0.0690 -0.1784 -0.2494
  935POPC   C3A13707   5.062   5.613   7.579  0.0432  0.1495 -0.0248
  935POPC   C4A13708   4.698   5.474   7.703 -0.0142 -0.0324 -0.0308
  935POPC   C1B13709   5.393   6.299   6.689 -0.2024  0.3184 -0.0003
  935POPC   C2B13710   5.547   6.290   7.099  0.2259 -0.0421 -0.1591
  935POPC   C3B13711   5.691   6.317   7.517 -0.2765 -0.2099  0.1481
  935POPC   C4B13712   5.630   6.393   7.953 -0.1069 -0.1654  0.4355
  936POPC   NC313713  15.944  10.205   5.757 -0.0368 -0.0172 -0.2148
  936POPC   PO413714  15.939  10.597   5.614  0.2284 -0.1922 -0.0619
  936POPC   GL113715  16.030  10.724   6.021 -0.3396 -0.0875  0.1678
  936POPC   GL213716  16.038  11.104   6.034  0.0880 -0.0482  0.0884
  936POPC   C1A13717  15.828  10.725   6.413 -0.1902  0.2594 -0.0678
  936POPC   D2A13718  15.697  10.608   6.862  0.0518 -0.0995  0.0433
  936POPC   C3A13719  15.843  10.611   7.237 -0.0099 -0.3704  0.2745
  936POPC   C4A13720  16.123  10.603   7.584  0.1184  0.0460 -0.0059
  936POPC   C1B13721  15.986  11.233   6.434  0.4306  0.2644 -0.3233
  936POPC   C2B13722  15.876  11.064   6.852 -0.0677  0.1208  0.2759
  936POPC   C3B13723  15.751  11.167   7.245  0.1020  0.2997  0.0535
  936POPC   C4B13724  15.826  11.011   7.629 -0.0659 -0.1795  0.2507
  937POPC   NC313725  17.418   7.199   6.114  0.3236 -0.4613 -0.1633
  937POPC   PO413726  17.572   7.494   6.227 -0.1217  0.0317 -0.0108
  937POPC   GL113727  17.418   7.286   6.654  0.0868  0.0360  0.0516
  937POPC   GL213728  17.091   7.275   6.644 -0.0817 -0.0100  0.0621
  937POPC   C1A13729  17.664   7.182   6.911  0.1133 -0.1860 -0.0990
  937POPC   D2A13730  17.595   7.131   7.293 -0.1073 -0.1239  0.2852
  937POPC   C3A13731  17.755   6.917   7.656  0.2526  0.1267  0.2295
  937POPC   C4A13732  17.819   6.509   7.855  0.1908  0.2211 -0.0360
  937POPC   C1B13733  17.148   7.116   7.006  0.0892 -0.2247  0.0718
  937POPC   C2B13734  16.871   6.916   7.312  0.1089 -0.1059  0.0497
  937POPC   C3B13735  16.586   6.714   7.569  0.2101 -0.0470 -0.1314
  937POPC   C4B13736  16.117   6.532   7.676 -0.0749 -0.2787 -0.2250
  938POPC   NC313737  12.823   5.947   5.477  0.0169  0.1580  0.2908
  938POPC   PO413738  12.750   6.360   5.560  0.2161  0.1255 -0.1982
  938POPC   GL113739  12.820   6.207   5.941 -0.0518 -0.2128 -0.0324
  938POPC   GL213740  12.805   6.438   6.215  0.1676  0.3903  0.0617
  938POPC   C1A13741  12.983   5.868   6.135 -0.1688  0.2202  0.2748
  938POPC   D2A13742  12.968   5.389   6.284 -0.2528  0.0939  0.2076
  938POPC   C3A13743  12.774   5.335   6.634 -0.3577  0.1902  0.0172
  938POPC   C4A13744  12.670   5.024   6.973 -0.3923  0.3602 -0.1180
  938POPC   C1B13745  12.648   6.258   6.659  0.0482 -0.1041 -0.1663
  938POPC   C2B13746  12.615   6.144   6.973 -0.1112 -0.2287 -0.2210
  938POPC   C3B13747  12.599   5.967   7.396 -0.0168  0.0614 -0.1473
  938POPC   C4B13748  12.345   6.007   7.767  0.2362 -0.0894  0.2399
  939POPC   NC313749   9.617  17.199   6.195  0.0289 -0.1957  0.1006
  939POPC   PO413750   9.693  17.611   6.257 -0.2209  0.1270 -0.0175
  939POPC   GL113751   9.364  17.533   6.600  0.3087 -0.0633  0.0300
  939POPC   GL213752   9.314  17.268   6.578  0.1433 -0.2701 -0.2063
  939POPC   C1A13753   9.547  17.649   6.976  0.1879 -0.0672  0.0820
  939POPC   D2A13754   9.566  18.180   7.171  0.0205  0.0025  0.2667
  939POPC   C3A13755   9.898  18.488   7.069 -0.0778  0.1100  0.2497
  939POPC   C4A13756  10.165  18.186   7.186 -0.0600  0.0836 -0.1062
  939POPC   C1B13757   9.144  17.204   6.939  0.1318 -0.1197 -0.0004
  939POPC   C2B13758   9.241  17.086   7.404 -0.0357  0.0407  0.1604
  939POPC   C3B13759   9.055  17.219   7.724  0.1040  0.0444 -0.0411
  939POPC   C4B13760   8.910  17.409   7.992  0.1865  0.2097  0.2740
  940POPC   NC313761   0.723   7.878   5.900  0.2545  0.0959 -0.2801
  940POPC   PO413762   0.352   7.722   5.899  0.3745 -0.1284  0.1596
  940POPC   GL113763   0.385   7.705   6.319 -0.0706 -0.1141 -0.1102
  940POPC   GL213764   0.688   7.792   6.402  0.1305 -0.0194  0.1837
  940POPC   C1A13765   0.255   7.629   6.730  0.1434  0.1631 -0.2556
  940POPC   D2A13766   0.149   7.621   7.127  0.0227  0.0811 -0.0551
  940POPC   C3A13767   0.041   7.229   7.405 -0.1209 -0.0171 -0.1059
  940POPC   C4A13768   0.010   7.160   7.834 -0.1024 -0.3511 -0.0629
  940POPC   C1B13769   0.647   7.948   6.805  0.2437  0.2012 -0.1884
  940POPC   C2B13770   0.446   7.986   7.253 -0.0284  0.0972 -0.2999
  940POPC   C3B13771   0.384   8.210   7.644 -0.0074 -0.3200  0.2127
  940POPC   C4B13772   0.264   8.332   8.112  0.0440  0.0324  0.0330
  941POPC   NC313773   8.370  13.394   6.144 -0.1069  0.2400  0.0521
  941POPC   PO413774   8.162  13.725   6.278 -0.1513 -0.0473  0.0380
  941POPC   GL113775   8.314  13.783   6.732 -0.0733 -0.1879  0.1086
  941POPC   GL213776   8.714  13.754   6.933  0.0068  0.2351  0.1825
  941POPC   C1A13777   8.253  13.903   7.094  0.0603 -0.2008 -0.2528
  941POPC   D2A13778   8.176  13.905   7.549 -0.1673  0.0203  0.0515
  941POPC   C3A13779   8.336  14.038   7.864 -0.1408 -0.0981 -0.2325
  941POPC   C4A13780   8.592  14.312   8.062  0.1317  0.0220  0.2137
  941POPC   C1B13781   8.719  13.769   7.321  0.1590 -0.1146 -0.3054
  941POPC   C2B13782   8.621  13.556   7.627 -0.1865  0.1407 -0.0502
  941POPC   C3B13783   8.314  13.556   7.925 -0.0119 -0.0190 -0.0777
  941POPC   C4B13784   8.123  13.444   8.286  0.0083 -0.1718 -0.0021
  942POPC   NC313785  14.622   4.520   5.373 -0.1371 -0.4390 -0.1488
  942POPC   PO413786  15.023   4.529   5.550  0.0198  0.2177 -0.0513
  942POPC   GL113787  15.135   4.332   5.956 -0.0173  0.0380  0.1971
  942POPC   GL213788  15.408   4.450   6.223  0.0340 -0.0003 -0.2193
  942POPC   C1A13789  14.931   4.150   6.320  0.0725  0.1611 -0.2660
  942POPC   D2A13790  14.648   3.924   6.458 -0.0948 -0.2144 -0.0657
  942POPC   C3A13791  14.281   4.061   6.737  0.1338  0.2084  0.0201
  942POPC   C4A13792  14.071   4.504   6.844 -0.2760  0.2176  0.0493
  942POPC   C1B13793  15.064   4.649   6.421  0.0057 -0.0065  0.1128
  942POPC   C2B13794  15.018   4.753   6.788 -0.1129  0.2603 -0.1486
  942POPC   C3B13795  14.817   4.804   7.200  0.0458  0.2108 -0.1816
  942POPC   C4B13796  14.708   4.518   7.529 -0.4546 -0.0983 -0.2091
  943POPC   NC313797  14.422   5.898   5.459  0.0869  0.2066 -0.1375
  943POPC   PO413798  14.902   5.951   5.768  0.1883 -0.2501  0.4089
  943POPC   GL113799  14.951   5.760   6.220  0.2660 -0.0714  0.1221
  943POPC   GL213800  14.642   5.503   6.322  0.2378  0.1823  0.1144
  943POPC   C1A13801  15.012   5.870   6.667  0.0952 -0.2772  0.2340
  943POPC   D2A13802  15.076   5.850   7.123 -0.1608 -0.0341  0.0337
  943POPC   C3A13803  14.894   5.736   7.438 -0.2463 -0.1947 -0.1287
  943POPC   C4A13804  14.862   5.815   7.903  0.0304 -0.0528  0.0243
  943POPC   C1B13805  14.629   5.504   6.748  0.0928  0.3618  0.0817
  943POPC   C2B13806  14.510   5.386   7.174  0.3271  0.0807  0.1495
  943POPC   C3B13807  14.538   5.461   7.687 -0.1140  0.1690  0.1566
  943POPC   C4B13808  14.672   5.298   8.026 -0.0077 -0.1337 -0.4565
  944POPC   NC313809  13.896  13.903   5.788 -0.1319  0.4858  0.0940
  944POPC   PO413810  13.499  13.760   5.939 -0.0866  0.2475 -0.0752
  944POPC   GL113811  13.597  13.476   6.309 -0.1880 -0.1950  0.0442
  944POPC   GL213812  13.923  13.265   6.284  0.3806  0.4320  0.2159
  944POPC   C1A13813  13.562  13.419   6.783  0.0184 -0.2137 -0.1009
  944POPC   D2A13814  13.503  13.461   7.171  0.1503  0.3545  0.2164
  944POPC   C3A13815  13.204  13.369   7.546 -0.1280 -0.1896  0.2032
  944POPC   C4A13816  12.990  13.010   7.863 -0.1318 -0.0286 -0.0355
  944POPC   C1B13817  13.931  13.058   6.638  0.0076  0.1203 -0.0077
  944POPC   C2B13818  13.781  13.016   7.068 -0.0985 -0.0840 -0.2678
  944POPC   C3B13819  13.742  13.226   7.554 -0.1141 -0.1981 -0.0556
  944POPC   C4B13820  13.937  13.459   7.973 -0.0381 -0.2330  0.0754
  945POPC   NC313821  17.786  13.649   6.206 -0.0783  0.1885  0.3599
  945POPC   PO413822  18.029  13.426   6.065 -0.0100  0.1133  0.3783
  945POPC   GL113823  18.426  13.428   6.276  0.4852 -0.0395  0.1762
  945POPC   GL213824  18.552  13.656   6.617 -0.2890  0.2035  0.0682
  945POPC   C1A13825  18.768  13.209   6.336 -0.0629  0.0017 -0.1363
  945POPC   D2A13826  18.938  12.849   6.199  0.0410  0.0545  0.0497
  945POPC   C3A13827  19.171  12.622   6.449 -0.0053 -0.2535  0.2412
  945POPC   C4A13828  19.357  12.178   6.674  0.0356 -0.1678 -0.1284
  945POPC   C1B13829  18.347  13.931   6.926  0.0206  0.1840  0.0877
  945POPC   C2B13830  18.320  13.906   7.295  0.1914 -0.3629  0.1887
  945POPC   C3B13831  18.211  14.102   7.654  0.0488 -0.0220  0.1915
  945POPC   C4B13832  18.184  13.932   8.015 -0.0299 -0.0619 -0.0961
  946POPC   NC313833   3.221  11.586   6.429  0.3133 -0.0048  0.0482
  946POPC   PO413834   3.057  11.231   6.407  0.2404  0.1532  0.2086
  946POPC   GL113835   2.780  11.300   6.764  0.1225 -0.2544  0.3226
  946POPC   GL213836   2.798  10.998   7.038  0.0104 -0.2391  0.1313
  946POPC   C1A13837   2.591  11.425   7.136  0.0125 -0.2232  0.1995
  946POPC   D2A13838   2.348  11.514   7.590  0.4221  0.1226 -0.3041
  946POPC   C3A13839   2.554  11.465   7.867  0.0724 -0.0677 -0.0351
  946POPC   C4A13840   2.685  11.473   8.165  0.0766 -0.2550  0.2646
  946POPC   C1B13841   2.806  11.102   7.433  0.0669  0.2448 -0.0415
  946POPC   C2B13842   2.975  11.278   7.645  0.1500 -0.3820  0.1114
  946POPC   C3B13843   2.932  11.665   7.527 -0.2682  0.0352 -0.1361
  946POPC   C4B13844   2.939  12.093   7.413 -0.2317  0.1474 -0.0300
  947POPC   NC313845   5.745   5.795   5.978 -0.2176  0.3593 -0.1450
  947POPC   PO413846   5.999   5.466   6.290  0.1888 -0.0861  0.0144
  947POPC   GL113847   6.227   5.318   6.686  0.5412  0.1998 -0.0416
  947POPC   GL213848   6.525   5.376   6.670 -0.1832 -0.2167  0.0242
  947POPC   C1A13849   6.164   5.471   7.054  0.0803 -0.2444 -0.0723
  947POPC   D2A13850   5.858   5.789   7.053  0.0141 -0.1070 -0.0729
  947POPC   C3A13851   5.848   6.113   6.726  0.0754 -0.0086  0.2925
  947POPC   C4A13852   5.803   6.515   6.460 -0.0739 -0.0374 -0.1477
  947POPC   C1B13853   6.342   5.022   7.023 -0.1871 -0.0683  0.3453
  947POPC   C2B13854   6.088   4.857   7.458  0.1137 -0.4535  0.0080
  947POPC   C3B13855   6.054   4.821   7.805  0.2196  0.0105  0.2509
  947POPC   C4B13856   6.391   4.757   8.178  0.1013  0.2292 -0.0935
  948POPC   NC313857   7.297  14.384   5.962 -0.1250 -0.0373  0.1163
  948POPC   PO413858   6.845  14.097   5.965  0.0672 -0.2085 -0.0921
  948POPC   GL113859   6.743  14.202   6.374  0.1886  0.0680  0.4190
  948POPC   GL213860   6.460  14.122   6.544 -0.2730  0.1773 -0.0626
  948POPC   C1A13861   6.921  13.779   6.533 -0.0934 -0.0669 -0.1790
  948POPC   D2A13862   7.376  13.627   6.635  0.1050  0.0339 -0.0724
  948POPC   C3A13863   7.493  13.219   6.696  0.1913  0.3367  0.2182
  948POPC   C4A13864   7.940  12.860   6.651  0.0008  0.1037  0.2118
  948POPC   C1B13865   6.671  14.068   6.911  0.0388 -0.2522  0.0027
  948POPC   C2B13866   6.760  13.989   7.321  0.0117  0.2322 -0.2001
  948POPC   C3B13867   6.824  14.063   7.794 -0.1435  0.0544  0.3428
  948POPC   C4B13868   6.913  13.843   8.223  0.2977  0.0989  0.0019
  949POPC   NC313869   8.028  10.825   5.558  0.1626  0.4010 -0.4710
  949POPC   PO413870   7.653  10.713   5.897 -0.2679  0.0824  0.1940
  949POPC   GL113871   7.565  10.939   6.206  0.2406  0.2781 -0.0957
  949POPC   GL213872   7.423  11.201   6.106 -0.2810  0.2531 -0.0463
  949POPC   C1A13873   7.758  11.007   6.589 -0.0671  0.0052  0.0286
  949POPC   D2A13874   7.913  10.795   6.924  0.1171  0.1505 -0.0101
  949POPC   C3A13875   7.943  10.913   7.236 -0.1241  0.1653  0.3169
  949POPC   C4A13876   8.336  11.182   7.325 -0.0828 -0.0621 -0.3841
  949POPC   C1B13877   7.238  11.241   6.623  0.3181 -0.2205 -0.1576
  949POPC   C2B13878   7.493  11.318   7.012 -0.4673 -0.0828 -0.0167
  949POPC   C3B13879   7.484  11.166   7.434 -0.0758 -0.5332 -0.0281
  949POPC   C4B13880   7.329  11.081   7.836  0.1080 -0.0187 -0.0510
  950POPC   NC313881  11.244   8.243   6.068  0.0936  0.0411 -0.0651
  950POPC   PO413882  11.327   8.660   6.096 -0.1901 -0.3260  0.0131
  950POPC   GL113883  11.452   8.654   6.499  0.0367 -0.2307 -0.0115
  950POPC   GL213884  11.251   8.937   6.562 -0.1715 -0.1236 -0.3452
  950POPC   C1A13885  11.764   8.394   6.731  0.2526  0.5040 -0.0537
  950POPC   D2A13886  12.084   8.504   6.955 -0.1188  0.2377 -0.0424
  950POPC   C3A13887  12.298   8.862   7.017  0.2068  0.0878 -0.0911
  950POPC   C4A13888  12.479   9.233   6.868 -0.2801  0.1995  0.0122
  950POPC   C1B13889  11.161   8.902   7.006 -0.1564 -0.2374  0.1543
  950POPC   C2B13890  10.918   9.094   7.295  0.0842 -0.1346 -0.2365
  950POPC   C3B13891  10.876   9.056   7.681 -0.0787 -0.2632 -0.3145
  950POPC   C4B13892  10.499   8.910   7.871  0.2596 -0.0365  0.0191
  951POPC   NC313893   4.435   9.114   5.596  0.2237 -0.0611  0.1077
  951POPC   PO413894   4.688   8.845   5.353  0.0767  0.4499  0.3480
  951POPC   GL113895   4.919   8.913   5.702 -0.0360  0.0497 -0.0737
  951POPC   GL213896   4.707   8.767   5.914 -0.1697  0.1034 -0.3300
  951POPC   C1A13897   5.256   9.131   5.832 -0.3402 -0.1651 -0.1213
  951POPC   D2A13898   5.460   9.358   6.162  0.1235  0.3447 -0.0503
  951POPC   C3A13899   5.245   9.471   6.542 -0.2022  0.1287  0.1114
  951POPC   C4A13900   5.026   9.455   6.916  0.1803 -0.4070 -0.0966
  951POPC   C1B13901   4.978   8.532   6.234  0.1820  0.1468  0.0574
  951POPC   C2B13902   4.875   8.211   6.609  0.0217 -0.0721 -0.1385
  951POPC   C3B13903   4.613   7.876   6.852  0.1208 -0.1293 -0.6270
  951POPC   C4B13904   4.494   7.746   7.321  0.0914  0.0323  0.0869
  952POPC   NC313905  12.768   2.446   5.622  0.3775  0.1411  0.4791
  952POPC   PO413906  12.673   2.881   5.499 -0.3917 -0.1180 -0.1105
  952POPC   GL113907  12.647   2.835   5.913  0.1675 -0.1401 -0.0981
  952POPC   GL213908  12.940   2.783   6.081  0.1476  0.2834 -0.1683
  952POPC   C1A13909  12.489   2.961   6.388 -0.1106  0.1542  0.1031
  952POPC   D2A13910  12.892   2.942   6.678  0.2223 -0.0491 -0.0659
  952POPC   C3A13911  12.834   3.010   7.105  0.0234  0.0117 -0.0826
  952POPC   C4A13912  12.914   3.371   7.480  0.3628  0.2158 -0.0708
  952POPC   C1B13913  13.080   2.495   6.523  0.0006 -0.0167 -0.1987
  952POPC   C2B13914  13.049   2.480   6.921 -0.1652  0.0591  0.0729
  952POPC   C3B13915  13.374   2.501   7.314 -0.0033 -0.1084 -0.2672
  952POPC   C4B13916  13.654   2.812   7.445 -0.0646  0.0635 -0.1589
  953POPC   NC313917  15.839  14.402   5.990 -0.0071  0.0844 -0.2834
  953POPC   PO413918  15.930  13.983   5.969 -0.0047 -0.2751 -0.1443
  953POPC   GL113919  16.004  13.961   6.410  0.0695  0.2035  0.1188
  953POPC   GL213920  15.782  14.089   6.719 -0.0648 -0.1020  0.2562
  953POPC   C1A13921  16.277  13.947   6.783  0.2007 -0.0309 -0.2985
  953POPC   D2A13922  16.376  13.961   7.195  0.3258  0.0221  0.2831
  953POPC   C3A13923  16.099  14.040   7.480 -0.0386  0.0113  0.0033
  953POPC   C4A13924  15.595  14.122   7.303  0.2085 -0.3064 -0.1061
  953POPC   C1B13925  15.874  13.815   7.047 -0.0780 -0.1564 -0.2074
  953POPC   C2B13926  15.805  13.638   7.418 -0.1675  0.0586 -0.0888
  953POPC   C3B13927  16.031  13.191   7.663  0.1444 -0.1014 -0.2632
  953POPC   C4B13928  16.033  13.048   8.066 -0.0111 -0.2756 -0.0993
  954POPC   NC313929  13.968   2.930   5.319 -0.0221 -0.0490  0.0914
  954POPC   PO413930  13.593   3.033   5.497  0.0499 -0.1223  0.0390
  954POPC   GL113931  13.462   3.063   5.880 -0.1280 -0.2208 -0.0377
  954POPC   GL213932  13.197   3.181   5.806  0.0485 -0.1636 -0.1096
  954POPC   C1A13933  13.231   3.103   6.314  0.0676 -0.0612  0.1931
  954POPC   D2A13934  13.358   3.008   6.700 -0.0132 -0.0098 -0.0253
  954POPC   C3A13935  13.749   3.080   6.859  0.0341 -0.1875 -0.0259
  954POPC   C4A13936  13.988   3.234   7.270  0.2568 -0.0985 -0.3225
  954POPC   C1B13937  13.165   3.617   6.069  0.1478  0.0385 -0.3173
  954POPC   C2B13938  13.274   3.924   6.432 -0.1448 -0.2395  0.1569
  954POPC   C3B13939  13.309   3.887   6.867 -0.0533  0.3215 -0.4173
  954POPC   C4B13940  13.118   3.777   7.288  0.1287  0.0450  0.1164
  955POPC   NC313941  10.017   8.232   6.173  0.0790 -0.0812  0.1120
  955POPC   PO413942   9.648   8.207   6.171  0.0163  0.2660  0.2428
  955POPC   GL113943   9.703   8.239   6.603  0.2658 -0.2102  0.2653
  955POPC   GL213944   9.469   8.015   6.713  0.2227 -0.1366 -0.0375
  955POPC   C1A13945   9.958   8.307   7.001 -0.0373  0.1182  0.0444
  955POPC   D2A13946  10.370   8.287   7.045  0.3648  0.2844  0.0750
  955POPC   C3A13947  10.680   8.080   7.237 -0.1235 -0.2035 -0.2449
  955POPC   C4A13948  10.814   7.722   7.403  0.2342  0.0373  0.3516
  955POPC   C1B13949   9.348   8.199   7.009 -0.0924 -0.0364 -0.2138
  955POPC   C2B13950   9.485   8.478   7.256 -0.0550 -0.2296  0.1511
  955POPC   C3B13951   9.316   8.622   7.673 -0.1269  0.0889  0.0809
  955POPC   C4B13952   9.264   8.738   8.013 -0.0036  0.0294  0.0899
  956POPC   NC313953   5.366   7.426   5.312 -0.0462  0.0640  0.1038
  956POPC   PO413954   5.195   7.950   5.531 -0.2291  0.0108  0.2729
  956POPC   GL113955   5.576   8.112   5.853  0.0282 -0.0709  0.0862
  956POPC   GL213956   5.689   7.870   6.170 -0.2230 -0.0183  0.4039
  956POPC   C1A13957   5.715   8.345   6.158  0.0915 -0.0754  0.0793
  956POPC   D2A13958   5.982   8.479   6.400  0.0700  0.1149  0.0162
  956POPC   C3A13959   6.265   8.303   6.644  0.0195 -0.1687  0.0952
  956POPC   C4A13960   6.335   8.261   7.041  0.1975  0.1582  0.3737
  956POPC   C1B13961   5.696   7.995   6.598  0.0705  0.0368 -0.0122
  956POPC   C2B13962   5.815   8.221   6.943  0.0164  0.2684 -0.1477
  956POPC   C3B13963   5.922   8.372   7.343 -0.1337 -0.0646 -0.0045
  956POPC   C4B13964   5.637   8.487   7.668 -0.0060 -0.1860  0.1373
  957POPC   NC313965   6.449   4.741   5.939 -0.3142  0.0829 -0.0839
  957POPC   PO413966   6.725   5.062   6.011  0.1434  0.0790  0.1004
  957POPC   GL113967   6.781   5.036   6.433 -0.1840 -0.0527  0.2970
  957POPC   GL213968   6.593   4.843   6.621  0.0891  0.0426 -0.1825
  957POPC   C1A13969   6.898   5.163   6.897 -0.0310  0.3146 -0.0269
  957POPC   D2A13970   6.783   5.022   7.205 -0.1488 -0.1408  0.0272
  957POPC   C3A13971   6.980   5.055   7.597  0.2453 -0.0134  0.2438
  957POPC   C4A13972   7.035   5.272   7.952  0.2452 -0.1664 -0.1993
  957POPC   C1B13973   6.157   4.721   6.652 -0.2342 -0.0248 -0.1949
  957POPC   C2B13974   5.813   5.016   6.819 -0.0019 -0.0299  0.6371
  957POPC   C3B13975   5.660   5.234   7.126  0.1056 -0.3124  0.1473
  957POPC   C4B13976   5.741   5.577   7.612 -0.2176  0.4073  0.1625
  958POPC   NC313977   4.284  15.263   6.530 -0.2102  0.0552  0.0484
  958POPC   PO413978   4.513  15.635   6.701 -0.1340  0.3683  0.2089
  958POPC   GL113979   4.490  15.777   7.063 -0.0829  0.0413  0.0945
  958POPC   GL213980   4.735  15.981   7.027 -0.1955  0.2339 -0.3000
  958POPC   C1A13981   4.365  15.868   7.426  0.1824  0.0555 -0.2421
  958POPC   D2A13982   4.514  16.036   7.701 -0.0041  0.2464  0.2279
  958POPC   C3A13983   4.529  15.831   8.106 -0.0260 -0.1924  0.2376
  958POPC   C4A13984   4.713  15.624   8.499  0.6011  0.0808  0.0754
  958POPC   C1B13985   4.892  15.877   7.350 -0.0478  0.0895  0.0834
  958POPC   C2B13986   5.131  15.643   7.553  0.1119 -0.0309  0.0726
  958POPC   C3B13987   5.518  15.569   7.633 -0.0664 -0.0947 -0.1891
  958POPC   C4B13988   5.937  15.432   7.659 -0.0214 -0.1800  0.1261
  959POPC   NC313989  13.543   5.976   5.347  0.1769  0.1770 -0.2774
  959POPC   PO413990  13.285   6.176   5.571  0.1609 -0.0775 -0.0352
  959POPC   GL113991  13.339   6.271   5.982 -0.0296  0.0713 -0.3203
  959POPC   GL213992  13.519   6.524   6.101 -0.2045  0.1159 -0.1444
  959POPC   C1A13993  13.242   6.248   6.411 -0.1286  0.0872  0.0252
  959POPC   D2A13994  13.404   6.179   6.761 -0.3124 -0.2093  0.0659
  959POPC   C3A13995  13.475   6.511   7.066 -0.2530 -0.1203  0.0239
  959POPC   C4A13996  13.566   6.469   7.503 -0.2342  0.0019 -0.0663
  959POPC   C1B13997  13.485   6.689   6.593 -0.1686  0.1508  0.1514
  959POPC   C2B13998  13.356   6.978   6.964 -0.0198  0.3224 -0.1503
  959POPC   C3B13999  13.478   6.976   7.412  0.2191 -0.0087  0.0827
  959POPC   C4B14000  13.265   7.003   7.805  0.0261 -0.1861 -0.3016
  960POPC   NC314001  16.057   2.952   6.178 -0.0758 -0.3333 -0.0877
  960POPC   PO414002  16.109   3.407   6.052 -0.0788  0.2321 -0.0798
  960POPC   GL114003  15.991   3.310   6.486 -0.1751 -0.3820  0.0455
  960POPC   GL214004  15.718   3.260   6.420  0.0931 -0.0827  0.1067
  960POPC   C1A14005  15.881   3.098   6.827 -0.2616 -0.1155 -0.0544
  960POPC   D2A14006  16.188   3.022   7.027  0.3785 -0.2444 -0.2747
  960POPC   C3A14007  16.253   3.123   7.614 -0.1085  0.0610  0.1037
  960POPC   C4A14008  16.483   2.959   8.007  0.0878  0.3740  0.0806
  960POPC   C1B14009  15.359   3.193   6.686  0.2260  0.3331  0.0511
  960POPC   C2B14010  15.012   3.098   6.831 -0.0103 -0.0887  0.0732
  960POPC   C3B14011  14.701   3.321   7.076 -0.3066  0.0621  0.0651
  960POPC   C4B14012  14.431   3.130   7.064 -0.0288 -0.1689 -0.1582
  961POPC   NC314013   4.565  10.698   5.891  0.1724 -0.1370  0.2518
  961POPC   PO414014   4.735  11.093   5.900 -0.2040 -0.0047  0.2516
  961POPC   GL114015   5.019  10.946   6.199  0.2044  0.0492  0.1938
  961POPC   GL214016   5.376  10.856   6.059  0.2049  0.0063  0.1676
  961POPC   C1A14017   5.175  10.943   6.682  0.0694  0.1599  0.0282
  961POPC   D2A14018   5.106  10.772   7.040  0.1331  0.1185 -0.0364
  961POPC   C3A14019   4.962  10.802   7.439  0.4239 -0.1649 -0.1155
  961POPC   C4A14020   5.080  10.704   7.756 -0.1618  0.0999 -0.5700
  961POPC   C1B14021   5.667  10.798   6.450  0.2358 -0.0720  0.0664
  961POPC   C2B14022   5.553  10.586   6.821  0.1578  0.0540 -0.0889
  961POPC   C3B14023   5.457  10.406   7.273 -0.0657 -0.0354  0.2429
  961POPC   C4B14024   5.125  10.324   7.400  0.0831 -0.0221 -0.3221
  962POPC   NC314025   0.055   9.618   5.702 -0.0022 -0.2057 -0.0178
  962POPC   PO414026   0.344   9.496   5.782 -0.2823  0.0244  0.0884
  962POPC   GL114027   0.258   9.616   6.193 -0.0889  0.0227 -0.0287
  962POPC   GL214028   0.286   9.366   6.330  0.5434  0.0724  0.1985
  962POPC   C1A14029   0.227   9.910   6.580  0.1870 -0.2470  0.1032
  962POPC   D2A14030   0.411  10.129   6.855  0.1441 -0.1546  0.0977
  962POPC   C3A14031   0.300  10.147   7.358 -0.3754  0.2435  0.0608
  962POPC   C4A14032   0.477   9.877   7.678 -0.0798  0.0726  0.2343
  962POPC   C1B14033   0.297   9.393   6.708 -0.0664  0.1927  0.2813
  962POPC   C2B14034   0.109   9.433   7.076  0.1137  0.0392  0.0285
  962POPC   C3B14035   0.103   9.627   7.494 -0.0415  0.2850 -0.1574
  962POPC   C4B14036  -0.123   9.646   7.827  0.0398  0.0813 -0.1636
  963POPC   NC314037   1.172   2.482   6.699  0.1259 -0.0131 -0.0474
  963POPC   PO414038   0.703   2.364   6.596  0.1293 -0.0627 -0.0655
  963POPC   GL114039   0.788   2.212   7.006 -0.0527 -0.0664  0.2153
  963POPC   GL214040   0.559   1.990   7.068 -0.2396 -0.0366 -0.0048
  963POPC   C1A14041   0.809   2.164   7.523  0.2055  0.0790 -0.1425
  963POPC   D2A14042   1.028   2.026   7.909  0.2032  0.1064  0.1826
  963POPC   C3A14043   1.518   1.959   8.071 -0.1282  0.1425  0.0630
  963POPC   C4A14044   1.815   1.644   8.085 -0.4175  0.2777 -0.1818
  963POPC   C1B14045   0.554   1.728   7.387 -0.0288 -0.0270 -0.1406
  963POPC   C2B14046   0.268   1.811   7.643 -0.1361 -0.2253 -0.1050
  963POPC   C3B14047   0.137   1.918   8.107  0.1105  0.1594 -0.1040
  963POPC   C4B14048   0.266   2.129   8.528 -0.0322 -0.0165 -0.2242
  964POPC   NC314049  11.249   2.183   5.459 -0.0750  0.2472  0.3007
  964POPC   PO414050  10.850   2.402   5.481  0.1500  0.0063  0.0567
  964POPC   GL114051  11.115   2.381   5.889  0.0673  0.0352  0.0909
  964POPC   GL214052  11.359   2.059   6.071 -0.1763  0.0829  0.2070
  964POPC   C1A14053  11.114   2.492   6.282 -0.1307  0.1704 -0.0579
  964POPC   D2A14054  11.174   2.487   6.691 -0.3061  0.1327  0.0826
  964POPC   C3A14055  11.040   2.086   6.789  0.1148  0.1705 -0.1530
  964POPC   C4A14056  11.271   1.816   7.043 -0.1840 -0.0932 -0.0847
  964POPC   C1B14057  11.469   2.075   6.560 -0.0019  0.0408  0.2968
  964POPC   C2B14058  11.540   2.273   6.863  0.0325 -0.0488 -0.0418
  964POPC   C3B14059  11.581   2.209   7.277  0.1660 -0.0873 -0.2681
  964POPC   C4B14060  11.766   2.433   7.658  0.0177  0.0158  0.1942
  965POPC   NC314061   6.071  15.234   6.337 -0.3025  0.1908 -0.0897
  965POPC   PO414062   6.345  14.959   6.248  0.0718  0.1039  0.0896
  965POPC   GL114063   6.669  15.248   6.481  0.1167  0.1842  0.0243
  965POPC   GL214064   6.820  15.511   6.535  0.2167 -0.1721 -0.0532
  965POPC   C1A14065   6.780  15.119   6.915 -0.1585 -0.3042  0.0768
  965POPC   D2A14066   6.573  15.114   7.200  0.0565  0.0822 -0.0006
  965POPC   C3A14067   6.751  14.911   7.581  0.2339 -0.2079  0.2562
  965POPC   C4A14068   6.757  14.644   7.965  0.2298  0.1323  0.3227
  965POPC   C1B14069   6.686  15.617   6.936 -0.1103 -0.0975  0.2343
  965POPC   C2B14070   6.843  15.510   7.322  0.1044  0.0917  0.3429
  965POPC   C3B14071   6.813  15.518   7.805 -0.0102 -0.0008  0.1782
  965POPC   C4B14072   7.095  15.448   8.119  0.0868  0.2597 -0.2887
  966POPC   NC314073  17.199  15.929   5.641 -0.1749  0.2535  0.1567
  966POPC   PO414074  17.050  15.994   6.031  0.0150  0.0264  0.1348
  966POPC   GL114075  16.908  15.791   6.413 -0.2236  0.2610  0.0641
  966POPC   GL214076  16.951  15.414   6.448  0.0191  0.1081  0.0219
  966POPC   C1A14077  16.738  15.914   6.827 -0.1015 -0.0954  0.2784
  966POPC   D2A14078  16.867  16.152   7.071 -0.0541 -0.0206  0.2899
  966POPC   C3A14079  16.993  15.943   7.520 -0.2062 -0.1732 -0.1934
  966POPC   C4A14080  17.011  15.696   7.943  0.3370  0.1046 -0.0139
  966POPC   C1B14081  17.064  15.503   6.863 -0.0817  0.1311  0.1092
  966POPC   C2B14082  16.968  15.556   7.255  0.1745  0.2454 -0.3923
  966POPC   C3B14083  16.962  15.370   7.599 -0.1694 -0.1937 -0.1622
  966POPC   C4B14084  16.703  15.169   7.914  0.1912 -0.0628  0.0863
  967POPC   NC314085  10.901   4.814   5.532  0.1350  0.2165 -0.0495
  967POPC   PO414086  10.823   4.323   5.442  0.2009 -0.0671  0.2086
  967POPC   GL114087  11.005   4.209   5.770  0.1791 -0.0948 -0.1335
  967POPC   GL214088  11.062   4.548   5.921 -0.0819  0.4490  0.0877
  967POPC   C1A14089  11.237   3.954   5.986 -0.1465 -0.0365 -0.0086
  967POPC   D2A14090  11.368   3.592   6.070  0.1567 -0.0082 -0.2777
  967POPC   C3A14091  11.401   3.706   6.453 -0.1591 -0.1315 -0.2523
  967POPC   C4A14092  11.189   3.457   6.750 -0.1811  0.0366  0.0494
  967POPC   C1B14093  10.652   4.393   6.208 -0.3533  0.0107 -0.0814
  967POPC   C2B14094  10.303   4.589   6.283 -0.3394  0.1111 -0.2609
  967POPC   C3B14095  10.222   4.811   6.594 -0.0446  0.0918 -0.3073
  967POPC   C4B14096  10.341   5.014   6.922 -0.0330 -0.2865 -0.0519
  968POPC   NC314097   8.467   9.758   6.355 -0.1799 -0.4375  0.0566
  968POPC   PO414098   8.383  10.178   6.140 -0.0506  0.1471 -0.1091
  968POPC   GL114099   8.182  10.340   6.479 -0.1765  0.1146  0.0437
  968POPC   GL214100   8.137  10.045   6.652  0.3337  0.0721 -0.2327
  968POPC   C1A14101   8.265  10.815   6.599  0.2817  0.1064  0.1410
  968POPC   D2A14102   8.540  11.067   6.669  0.1903 -0.0144 -0.0962
  968POPC   C3A14103   8.685  11.307   7.037  0.1872 -0.1648 -0.0932
  968POPC   C4A14104   8.718  11.594   7.440 -0.1684  0.1065 -0.1054
  968POPC   C1B14105   7.984  10.299   7.020 -0.2438 -0.0056 -0.3366
  968POPC   C2B14106   8.057  10.493   7.502  0.1157  0.1629  0.1892
  968POPC   C3B14107   8.298  10.325   7.766 -0.0568 -0.2101  0.1544
  968POPC   C4B14108   8.507  10.132   8.116  0.3681  0.0836  0.0632
  969POPC   NC314109   3.400  13.967   6.162 -0.0524  0.0880 -0.1694
  969POPC   PO414110   3.345  13.590   6.451 -0.2432  0.2549  0.0849
  969POPC   GL114111   3.132  13.644   6.852  0.0028 -0.0480  0.1008
  969POPC   GL214112   2.795  13.602   6.719 -0.0522 -0.1694  0.1170
  969POPC   C1A14113   3.089  13.651   7.288  0.0711  0.2706 -0.0299
  969POPC   D2A14114   3.201  13.781   7.640 -0.0291  0.3685 -0.0259
  969POPC   C3A14115   2.982  13.853   8.009  0.0935 -0.0137  0.1416
  969POPC   C4A14116   2.654  13.960   8.351 -0.1429 -0.0099 -0.0640
  969POPC   C1B14117   2.772  13.319   7.051  0.0367  0.1582  0.1466
  969POPC   C2B14118   2.526  13.341   7.416  0.0891  0.2039  0.0255
  969POPC   C3B14119   2.371  13.334   7.786  0.2519 -0.1994  0.0805
  969POPC   C4B14120   2.281  13.653   8.132  0.1530  0.0330  0.1595
  970POPC   NC314121  12.869  14.716   5.698 -0.1192 -0.1556 -0.0495
  970POPC   PO414122  12.678  14.461   5.993  0.0464  0.0840  0.1528
  970POPC   GL114123  12.685  14.027   6.375 -0.1201 -0.2635  0.0483
  970POPC   GL214124  12.743  13.620   6.326  0.1456 -0.1586  0.3024
  970POPC   C1A14125  12.862  14.010   6.708  0.0062 -0.0697  0.0318
  970POPC   D2A14126  12.890  14.168   7.089  0.2317 -0.0793  0.2598
  970POPC   C3A14127  12.563  14.241   7.278  0.1187  0.1757  0.1790
  970POPC   C4A14128  12.459  14.410   7.608 -0.1202  0.1390  0.0080
  970POPC   C1B14129  13.073  13.615   6.602 -0.1103 -0.0441 -0.1807
  970POPC   C2B14130  13.015  13.616   7.071  0.0974  0.3281 -0.0249
  970POPC   C3B14131  13.117  13.819   7.386 -0.0877 -0.1247 -0.0996
  970POPC   C4B14132  13.212  13.940   7.774 -0.0901 -0.0912 -0.3120
  971YOPC   NC314133  17.114   5.282   5.928  0.1533 -0.0867 -0.2373
  971YOPC   PO414134  16.809   5.444   6.199 -0.1444  0.0556 -0.0003
  971YOPC   GL114135  16.914   5.213   6.611 -0.2842 -0.0687 -0.3792
  971YOPC   GL214136  16.575   4.963   6.722  0.0748  0.0689 -0.2586
  971YOPC   C1A14137  16.942   5.165   7.029  0.1771 -0.2859 -0.1742
  971YOPC   D2A14138  17.023   5.365   7.358  0.2644 -0.3670  0.2397
  971YOPC   C3A14139  16.926   5.484   7.777 -0.0215 -0.0179  0.2737
  971YOPC   C4A14140  17.315   5.752   7.868  0.1729 -0.1573 -0.0858
  971YOPC   C1B14141  16.580   4.848   7.168 -0.2534  0.0099  0.0359
  971YOPC   C2B14142  16.326   4.824   7.516 -0.1112 -0.1401  0.0387
  971YOPC   D3B14143  15.913   5.182   7.632  0.4320 -0.3674 -0.0643
  971YOPC   C4B14144  15.818   5.315   7.996 -0.0005 -0.2402 -0.0588
  972YOPC   NC314145   4.511   0.973   5.639  0.1887 -0.2062  0.3677
  972YOPC   PO414146   4.392   0.794   6.091 -0.0844  0.2260 -0.0747
  972YOPC   GL114147   4.231   1.149   6.461 -0.0473  0.0261  0.1488
  972YOPC   GL214148   4.164   1.445   6.433  0.1268  0.1558  0.3124
  972YOPC   C1A14149   4.411   1.079   6.903 -0.2007  0.0516  0.4438
  972YOPC   D2A14150   4.521   0.959   7.267 -0.0702  0.0204  0.1371
  972YOPC   C3A14151   4.767   1.072   7.599  0.1127  0.1640 -0.0734
  972YOPC   C4A14152   5.118   1.053   7.825  0.2449 -0.0625  0.0830
  972YOPC   C1B14153   4.086   1.469   6.824 -0.2543  0.0737  0.3310
  972YOPC   C2B14154   4.269   1.434   7.330 -0.3143  0.0871  0.2056
  972YOPC   D3B14155   4.264   1.246   7.740 -0.3758  0.1161  0.1356
  972YOPC   C4B14156   4.192   1.524   7.990 -0.0535  0.5767  0.0557
  973YOPC   NC314157   3.562   6.745   6.417 -0.1028  0.0092  0.2880
  973YOPC   PO414158   3.477   7.185   6.270 -0.3413 -0.0540 -0.1643
  973YOPC   GL114159   3.665   7.234   6.561  0.1780 -0.0004  0.1006
  973YOPC   GL214160   4.027   7.121   6.636 -0.0439 -0.2290 -0.0305
  973YOPC   C1A14161   3.775   7.288   7.045  0.1043  0.1957 -0.3917
  973YOPC   D2A14162   3.838   7.534   7.386  0.1394  0.1890  0.0234
  973YOPC   C3A14163   4.144   7.440   7.627 -0.1745 -0.4084  0.0602
  973YOPC   C4A14164   4.544   7.307   7.627  0.2193 -0.0298 -0.1464
  973YOPC   C1B14165   4.385   6.938   6.844 -0.2666 -0.1894 -0.2016
  973YOPC   C2B14166   4.620   6.843   7.221  0.2267 -0.2075 -0.0036
  973YOPC   D3B14167   4.789   6.439   7.456 -0.1623  0.2453  0.1496
  973YOPC   C4B14168   4.705   6.031   7.453  0.1758  0.0037 -0.0019
  974YOPC   NC314169   2.869   6.243   6.012  0.1519 -0.1090  0.0254
  974YOPC   PO414170   3.090   5.925   6.366  0.1720 -0.1205 -0.0257
  974YOPC   GL114171   3.218   5.942   6.879  0.1775  0.2175 -0.2139
  974YOPC   GL214172   3.085   6.033   7.123  0.2290  0.2259 -0.1654
  974YOPC   C1A14173   3.482   5.696   7.075  0.5223  0.0105  0.1440
  974YOPC   D2A14174   3.776   5.629   7.234 -0.1648 -0.1365  0.0089
  974YOPC   C3A14175   3.677   5.605   7.615 -0.1010  0.0386  0.1723
  974YOPC   C4A14176   3.874   5.910   7.931  0.0506  0.0110  0.0879
  974YOPC   C1B14177   2.785   6.081   7.406 -0.0175  0.0051 -0.4170
  974YOPC   C2B14178   2.932   6.207   7.730  0.4063 -0.1521 -0.1209
  974YOPC   D3B14179   2.732   6.281   8.084  0.0686  0.3332  0.3092
  974YOPC   C4B14180   2.456   6.304   8.430  0.0658  0.2075  0.3040
  975YOPC   NC314181  17.827  15.077   6.303 -0.2632  0.0935 -0.1534
  975YOPC   PO414182  18.232  15.057   6.291  0.0251 -0.1765  0.1912
  975YOPC   GL114183  18.322  15.295   6.675 -0.0378 -0.0276  0.2018
  975YOPC   GL214184  18.647  15.347   6.784  0.0028 -0.0149 -0.3243
  975YOPC   C1A14185  18.108  15.322   7.045 -0.3774 -0.2639  0.3558
  975YOPC   D2A14186  18.043  15.836   7.222 -0.3014 -0.1561  0.1774
  975YOPC   C3A14187  18.175  16.074   7.621 -0.0384  0.1248 -0.1276
  975YOPC   C4A14188  18.481  16.411   7.903  0.0988  0.0768  0.1909
  975YOPC   C1B14189  18.622  15.497   7.146  0.0230 -0.1455 -0.1578
  975YOPC   C2B14190  18.736  15.391   7.544  0.3050  0.0835  0.1455
  975YOPC   D3B14191  18.996  15.229   7.676  0.2224 -0.0632 -0.0386
  975YOPC   C4B14192  18.883  14.873   7.974 -0.0345 -0.0053 -0.2377
  976YOPC   NC314193  11.754   6.258   5.200 -0.1750  0.3068 -0.2845
  976YOPC   PO414194  11.884   5.869   5.477  0.1458  0.2636  0.1917
  976YOPC   GL114195  11.739   5.703   5.924  0.0881  0.0552  0.1469
  976YOPC   GL214196  11.544   5.867   6.120 -0.0512 -0.0681 -0.1007
  976YOPC   C1A14197  11.999   5.840   6.257 -0.0056  0.1941  0.2033
  976YOPC   D2A14198  12.198   6.075   6.685  0.0046 -0.1195 -0.3009
  976YOPC   C3A14199  12.144   6.267   7.055  0.1299 -0.0659 -0.0465
  976YOPC   C4A14200  12.045   6.721   7.188  0.0388  0.3390  0.2664
  976YOPC   C1B14201  11.554   5.908   6.528  0.1516 -0.1524 -0.0845
  976YOPC   C2B14202  11.733   6.000   6.914  0.0421 -0.0145  0.2213
  976YOPC   D3B14203  12.093   5.777   7.072 -0.2321 -0.1475  0.0390
  976YOPC   C4B14204  12.270   5.467   7.390  0.3158  0.0859  0.2510
  977YOPC   NC314205   8.239   2.482   5.414 -0.2022 -0.1140  0.1766
  977YOPC   PO414206   8.260   2.161   5.838  0.2179 -0.0063 -0.2956
  977YOPC   GL114207   7.973   2.184   6.204 -0.0103 -0.1646  0.1246
  977YOPC   GL214208   8.069   2.585   6.344  0.0317  0.0046 -0.0512
  977YOPC   C1A14209   7.841   2.199   6.655  0.0045  0.0897  0.1051
  977YOPC   D2A14210   7.929   2.214   6.989  0.2432 -0.1417  0.0114
  977YOPC   C3A14211   8.110   1.941   7.301 -0.2075  0.0135  0.0429
  977YOPC   C4A14212   8.259   1.882   7.680 -0.0390  0.0322 -0.2108
  977YOPC   C1B14213   8.017   2.671   6.815 -0.2323 -0.0727  0.1129
  977YOPC   C2B14214   7.892   2.671   7.311 -0.4045  0.2287 -0.1401
  977YOPC   D3B14215   8.224   2.441   7.447 -0.2419 -0.0450 -0.0035
  977YOPC   C4B14216   8.452   2.399   7.825  0.0134 -0.1209 -0.2847
  978YOPC   NC314217  13.936  11.252   5.845 -0.3736  0.0679  0.0420
  978YOPC   PO414218  13.377  11.090   5.954  0.4202 -0.0178  0.0832
  978YOPC   GL114219  13.152  10.853   6.219  0.2877 -0.1358  0.3694
  978YOPC   GL214220  12.850  10.733   6.094  0.1119  0.2808  0.2258
  978YOPC   C1A14221  13.059  10.913   6.708 -0.1683  0.2456 -0.0464
  978YOPC   D2A14222  13.069  11.273   6.827  0.1521  0.0685 -0.2639
  978YOPC   C3A14223  13.021  11.387   7.280 -0.3605 -0.0146 -0.1904
  978YOPC   C4A14224  13.171  11.596   7.574  0.1794 -0.2190 -0.2565
  978YOPC   C1B14225  12.722  11.114   6.368  0.1980  0.0726  0.1257
  978YOPC   C2B14226  12.630  11.532   6.622 -0.0772 -0.2288 -0.2099
  978YOPC   D3B14227  12.649  11.574   6.972  0.4286 -0.3820  0.0634
  978YOPC   C4B14228  12.399  11.672   7.357 -0.4209  0.1158  0.1339
  979YOPC   NC314229  17.903   4.034   6.567 -0.0327 -0.1028 -0.1498
  979YOPC   PO414230  18.352   4.059   6.459  0.1107 -0.1787  0.0606
  979YOPC   GL114231  18.763   4.001   6.710 -0.3035  0.1037  0.2349
  979YOPC   GL214232  18.740   3.688   6.823 -0.4022  0.2000  0.0191
  979YOPC   C1A14233  19.028   4.047   7.088  0.0304  0.0276  0.5566
  979YOPC   D2A14234  19.229   3.781   7.315  0.0416 -0.3933 -0.1542
  979YOPC   C3A14235  19.128   3.432   7.553  0.0102 -0.1455 -0.0208
  979YOPC   C4A14236  19.146   3.374   8.022  0.4257  0.0649  0.2590
  979YOPC   C1B14237  18.687   3.661   7.311  0.0826 -0.1131  0.0408
  979YOPC   C2B14238  18.813   3.804   7.727  0.0361  0.4802 -0.0883
  979YOPC   D3B14239  19.131   4.173   7.747 -0.3284  0.0675  0.1344
  979YOPC   C4B14240  19.503   4.504   7.787  0.2045  0.0788 -0.2974
  980YOPC   NC314241   1.354  17.451   6.108 -0.0137  0.0180 -0.0049
  980YOPC   PO414242   1.804  17.259   6.297  0.2178  0.1778 -0.1139
  980YOPC   GL114243   1.514  17.358   6.618  0.0204  0.1444  0.0137
  980YOPC   GL214244   1.403  17.555   6.691 -0.0498  0.0120 -0.0981
  980YOPC   C1A14245   1.559  17.208   7.031  0.0125 -0.3213 -0.0111
  980YOPC   D2A14246   1.610  17.200   7.399 -0.0776  0.4145 -0.1438
  980YOPC   C3A14247   1.970  17.244   7.592 -0.1240  0.1792  0.1795
  980YOPC   C4A14248   2.119  17.423   7.887 -0.0397  0.0632  0.0803
  980YOPC   C1B14249   1.223  17.600   7.078 -0.1134  0.0576  0.0407
  980YOPC   C2B14250   1.083  17.446   7.516  0.0895  0.1228 -0.1319
  980YOPC   D3B14251   1.149  17.715   7.871  0.1472  0.3040 -0.1168
  980YOPC   C4B14252   1.160  18.005   8.257  0.0989 -0.4633  0.2108
  981YOPC   NC314253   0.463   0.404   6.213 -0.0129  0.0470 -0.0658
  981YOPC   PO414254   0.200   0.246   6.079  0.1180  0.1459 -0.2763
  981YOPC   GL114255   0.017   0.200   6.498 -0.0340  0.0295  0.1910
  981YOPC   GL214256   0.202  -0.010   6.486 -0.0035  0.0688  0.0127
  981YOPC   C1A14257  -0.333   0.438   6.736  0.4141  0.2983 -0.0008
  981YOPC   D2A14258  -0.486   0.587   7.075  0.2379 -0.1917  0.2489
  981YOPC   C3A14259  -0.794   0.302   7.335 -0.2476  0.3764  0.3286
  981YOPC   C4A14260  -0.968   0.043   7.595 -0.0162 -0.0225  0.0050
  981YOPC   C1B14261   0.190  -0.143   6.949  0.2052  0.0584  0.1088
  981YOPC   C2B14262   0.141  -0.017   7.431  0.2779 -0.1611  0.1927
  981YOPC   D3B14263  -0.025  -0.456   7.622 -0.1955 -0.1617 -0.1967
  981YOPC   C4B14264   0.251  -0.611   8.002  0.2162  0.0926 -0.3807
  982YOPC   NC314265  15.895   6.671   6.110  0.0078 -0.0208 -0.0181
  982YOPC   PO414266  16.058   6.974   5.817  0.0288  0.1140  0.1235
  982YOPC   GL114267  15.666   7.112   6.119  0.1006  0.0852  0.2141
  982YOPC   GL214268  15.345   6.803   6.232  0.0221  0.2931  0.0589
  982YOPC   C1A14269  15.783   7.313   6.562 -0.2152 -0.2479 -0.0614
  982YOPC   D2A14270  15.787   7.539   6.852 -0.2009  0.1582  0.2325
  982YOPC   C3A14271  15.784   7.467   7.300  0.1325 -0.2682 -0.2225
  982YOPC   C4A14272  15.779   7.205   7.769  0.1803  0.4327  0.0666
  982YOPC   C1B14273  15.407   6.698   6.695  0.3073  0.3846 -0.3017
  982YOPC   C2B14274  15.249   6.757   7.011  0.2727  0.0779 -0.0274
  982YOPC   D3B14275  15.371   6.472   7.375  0.1941  0.1301 -0.2661
  982YOPC   C4B14276  15.648   6.236   7.635  0.0089  0.0920 -0.0817
  983YOPC   NC314277   3.206   4.374   5.778  0.1363  0.1919 -0.2771
  983YOPC   PO414278   3.166   4.419   6.246  0.0228  0.0310  0.1026
  983YOPC   GL114279   3.390   4.592   6.552  0.1888 -0.0116 -0.4134
  983YOPC   GL214280   3.197   4.786   6.565 -0.1509  0.0686 -0.0167
  983YOPC   C1A14281   3.588   4.739   6.945  0.0043 -0.0207 -0.1090
  983YOPC   D2A14282   3.841   4.719   7.306 -0.0409  0.1604 -0.3195
  983YOPC   C3A14283   3.902   5.142   7.480  0.0330  0.1005 -0.1641
  983YOPC   C4A14284   4.174   5.542   7.582 -0.2814 -0.3968 -0.0955
  983YOPC   C1B14285   3.070   4.480   6.873 -0.4558 -0.1989 -0.0692
  983YOPC   C2B14286   3.051   4.387   7.339 -0.1295  0.1149  0.0047
  983YOPC   D3B14287   3.376   4.679   7.576  0.1268  0.0697  0.1967
  983YOPC   C4B14288   3.625   4.953   7.808  0.3366  0.1425  0.4475
  984YOPC   NC314289  11.169  11.161   5.725  0.0734 -0.2182 -0.2004
  984YOPC   PO414290  11.328  11.202   6.170  0.2387  0.0960  0.1422
  984YOPC   GL114291  10.880  11.066   6.176  0.2251 -0.1857 -0.0211
  984YOPC   GL214292  10.665  11.281   6.272  0.3903 -0.1529  0.0930
  984YOPC   C1A14293  10.653  10.786   6.463  0.0727 -0.2124  0.1775
  984YOPC   D2A14294  10.598  10.449   6.750  0.0829  0.2342  0.1408
  984YOPC   C3A14295  10.584  10.536   7.174  0.0192  0.3893  0.1720
  984YOPC   C4A14296  10.692  10.555   7.563  0.1014 -0.0522  0.1281
  984YOPC   C1B14297  10.786  11.387   6.715 -0.2224 -0.3380 -0.1246
  984YOPC   C2B14298  10.923  11.650   7.039 -0.1013  0.1701 -0.1004
  984YOPC   D3B14299  10.705  11.839   7.268  0.1373 -0.1725 -0.0152
  984YOPC   C4B14300  10.503  12.002   7.587  0.0445  0.2137  0.0998
  985YOPC   NC314301  11.783  12.362   5.456  0.1860  0.0105  0.3710
  985YOPC   PO414302  11.612  12.550   5.824 -0.0829  0.1660 -0.1488
  985YOPC   GL114303  11.588  12.376   6.173  0.3632 -0.0987  0.0125
  985YOPC   GL214304  11.301  12.558   6.250  0.0762 -0.3358 -0.2751
  985YOPC   C1A14305  11.618  12.331   6.523 -0.4613  0.1071  0.0573
  985YOPC   D2A14306  11.388  12.343   6.936 -0.0302 -0.0340 -0.3468
  985YOPC   C3A14307  11.613  12.333   7.345 -0.0992 -0.1628  0.2877
  985YOPC   C4A14308  11.764  12.287   7.738  0.0465 -0.0845  0.3906
  985YOPC   C1B14309  11.126  12.193   6.503 -0.3492  0.1940  0.3609
  985YOPC   C2B14310  10.967  12.081   6.878 -0.3182 -0.1092  0.2136
  985YOPC   D3B14311  11.164  11.978   7.408  0.2878  0.0297 -0.1565
  985YOPC   C4B14312  11.094  11.628   7.573 -0.0142 -0.3986  0.2872
  986YOPC   NC314313  12.614  10.165   5.435 -0.1128  0.1958 -0.2519
  986YOPC   PO414314  12.869   9.955   5.676 -0.0192 -0.2529 -0.2179
  986YOPC   GL114315  12.749   9.686   6.028  0.1512 -0.0206  0.0323
  986YOPC   GL214316  12.520   9.754   6.306  0.1141 -0.0043 -0.2220
  986YOPC   C1A14317  12.891   9.436   6.345  0.2085 -0.2125  0.0284
  986YOPC   D2A14318  13.063   9.027   6.384 -0.1969 -0.1444 -0.1239
  986YOPC   C3A14319  13.151   8.889   6.673  0.0797  0.0480 -0.6166
  986YOPC   C4A14320  13.220   8.902   7.134  0.1045 -0.1724  0.0135
  986YOPC   C1B14321  12.635   9.668   6.745  0.0795  0.0172 -0.1643
  986YOPC   C2B14322  12.982   9.328   6.854 -0.1860  0.1679  0.0944
  986YOPC   D3B14323  12.930   9.286   7.231 -0.1721  0.1048 -0.0223
  986YOPC   C4B14324  13.079   9.068   7.639  0.0034  0.0347  0.2754
  987YOPC   NC314325  16.310  12.689   6.063  0.1679 -0.1159  0.0919
  987YOPC   PO414326  16.589  12.844   5.911 -0.1956 -0.0716 -0.3303
  987YOPC   GL114327  16.614  13.005   6.347 -0.0097  0.0646  0.1489
  987YOPC   GL214328  16.318  12.797   6.539 -0.0177  0.0033 -0.0295
  987YOPC   C1A14329  16.816  12.796   6.626  0.0602 -0.0417  0.1538
  987YOPC   D2A14330  16.909  12.751   7.089  0.2464 -0.2667 -0.1068
  987YOPC   C3A14331  16.537  12.446   7.272  0.1840  0.0847 -0.0138
  987YOPC   C4A14332  16.190  12.227   7.420 -0.1106 -0.4185  0.0542
  987YOPC   C1B14333  16.134  12.923   6.842 -0.1893  0.0310 -0.0692
  987YOPC   C2B14334  15.944  12.861   7.270 -0.0373  0.1510 -0.1756
  987YOPC   D3B14335  16.218  12.727   7.611 -0.2087 -0.1142 -0.1416
  987YOPC   C4B14336  16.356  12.603   8.044 -0.4078  0.0418 -0.0018
  988YOPC   NC314337   7.250   1.226   6.091 -0.3149 -0.4610  0.0371
  988YOPC   PO414338   7.278   0.708   6.141  0.0333  0.3981  0.1643
  988YOPC   GL114339   7.129   0.852   6.538  0.2872  0.1637 -0.0789
  988YOPC   GL214340   7.338   0.739   6.636  0.2826  0.1457  0.4856
  988YOPC   C1A14341   6.882   0.839   6.932  0.1347  0.2161 -0.2234
  988YOPC   D2A14342   7.099   0.833   7.417  0.2955  0.0926 -0.0009
  988YOPC   C3A14343   6.869   0.635   7.732 -0.1570 -0.5448  0.0779
  988YOPC   C4A14344   6.756   0.705   8.129 -0.1191  0.2117  0.2612
  988YOPC   C1B14345   7.375   0.894   7.021 -0.1436  0.0267 -0.0697
  988YOPC   C2B14346   7.523   1.121   7.448 -0.1154  0.2461  0.0307
  988YOPC   D3B14347   7.418   1.608   7.547  0.0477  0.1958 -0.0055
  988YOPC   C4B14348   7.435   1.813   8.014 -0.0714 -0.3318 -0.0889
  989YOPC   NC314349   0.863  14.660   5.823 -0.0768  0.4184  0.0567
  989YOPC   PO414350   0.636  14.291   5.991  0.0413 -0.1432  0.0386
  989YOPC   GL114351   0.728  14.044   6.342  0.0531 -0.0515 -0.0704
  989YOPC   GL214352   0.790  13.772   6.240  0.2070  0.1849 -0.1362
  989YOPC   C1A14353   0.653  14.041   6.781 -0.1312  0.1050  0.1054
  989YOPC   D2A14354   0.566  14.399   7.066 -0.1241 -0.1931  0.0109
  989YOPC   C3A14355   0.475  14.313   7.417  0.0958  0.4074  0.0295
  989YOPC   C4A14356   0.490  14.262   7.874  0.1352  0.0188  0.2044
  989YOPC   C1B14357   0.945  13.658   6.601 -0.0187 -0.0346  0.1662
  989YOPC   C2B14358   0.738  13.593   6.971 -0.2387  0.0613  0.2893
  989YOPC   D3B14359   0.591  13.812   7.224 -0.3314  0.0017  0.1227
  989YOPC   C4B14360   0.475  13.804   7.644  0.1413 -0.0417 -0.1853
  990YOPC   NC314361   8.036   4.803   5.579  0.0217 -0.1169 -0.3178
  990YOPC   PO414362   8.373   4.604   5.640  0.2015 -0.0813  0.1764
  990YOPC   GL114363   8.250   4.781   6.058  0.0096 -0.0596  0.2428
  990YOPC   GL214364   8.059   4.937   6.163  0.0407  0.2164 -0.0654
  990YOPC   C1A14365   8.414   4.775   6.492 -0.0305 -0.0832 -0.0729
  990YOPC   D2A14366   8.719   4.456   6.648  0.1192  0.0106 -0.1582
  990YOPC   C3A14367   9.037   4.586   7.039 -0.3457 -0.0751 -0.0838
  990YOPC   C4A14368   9.035   4.656   7.514 -0.0763 -0.0663  0.2239
  990YOPC   C1B14369   8.013   4.978   6.673  0.0431 -0.0282  0.1823
  990YOPC   C2B14370   8.195   5.074   7.155 -0.0457  0.0803 -0.1403
  990YOPC   D3B14371   7.891   4.987   7.637 -0.1575  0.1315  0.2004
  990YOPC   C4B14372   7.478   4.924   7.503  0.0545  0.0674  0.0646
  991YOPC   NC314373  17.376  15.646   6.339  0.0709  0.0952  0.2302
  991YOPC   PO414374  17.325  15.203   6.203 -0.0905  0.0291  0.2021
  991YOPC   GL114375  17.393  15.232   6.622 -0.0787  0.1285  0.4113
  991YOPC   GL214376  17.446  14.928   6.629 -0.0311  0.0568  0.1053
  991YOPC   C1A14377  17.518  15.315   7.023  0.1199 -0.2837  0.0310
  991YOPC   D2A14378  17.613  15.240   7.461  0.2705 -0.0858  0.0119
  991YOPC   C3A14379  17.518  15.435   7.866  0.1339  0.4187 -0.3380
  991YOPC   C4A14380  17.259  15.413   8.241  0.1706 -0.1033  0.2318
  991YOPC   C1B14381  17.789  14.912   6.881 -0.2314 -0.1503  0.1754
  991YOPC   C2B14382  17.912  14.854   7.253 -0.3596  0.2215  0.1580
  991YOPC   D3B14383  17.620  14.769   7.592 -0.1413  0.1970 -0.1380
  991YOPC   C4B14384  17.415  14.828   7.979  0.5307 -0.0066 -0.0787
  992YOPC   NC314385  10.624  17.949   5.689 -0.1589 -0.2197  0.1235
  992YOPC   PO414386  10.425  18.193   5.953  0.1413  0.2753 -0.3165
  992YOPC   GL114387  10.570  18.072   6.380 -0.2062 -0.0967 -0.4102
  992YOPC   GL214388  10.569  17.768   6.581  0.2295 -0.1808 -0.1896
  992YOPC   C1A14389  10.672  18.386   6.686  0.0753 -0.2464  0.2679
  992YOPC   D2A14390  10.448  18.671   7.010 -0.1324  0.0760  0.0431
  992YOPC   C3A14391  10.229  18.946   6.812  0.0354  0.3035 -0.1162
  992YOPC   C4A14392  10.161  19.058   6.420 -0.0983 -0.3275  0.0608
  992YOPC   C1B14393  10.620  17.911   6.981  0.1752  0.0299 -0.0726
  992YOPC   C2B14394  10.519  17.971   7.474 -0.3167 -0.1153 -0.0246
  992YOPC   D3B14395  10.295  17.957   7.750  0.1373  0.0695  0.0176
  992YOPC   C4B14396  10.147  17.872   8.133  0.0707  0.0066  0.0256
  993YOPC   NC314397  13.423   9.266   5.323  0.2383  0.1798  0.4415
  993YOPC   PO414398  13.788   9.589   5.339  0.2513  0.0741  0.0137
  993YOPC   GL114399  13.785   9.622   5.776  0.2054 -0.4334 -0.1244
  993YOPC   GL214400  13.536   9.366   5.806 -0.1133  0.0691  0.1242
  993YOPC   C1A14401  13.913   9.721   6.172 -0.1705  0.2344 -0.2623
  993YOPC   D2A14402  14.086   9.867   6.588  0.1225 -0.1579 -0.2270
  993YOPC   C3A14403  14.011   9.877   7.091  0.0914 -0.0165 -0.3362
  993YOPC   C4A14404  13.856   9.554   7.500  0.1879  0.0485 -0.0556
  993YOPC   C1B14405  13.543   9.098   6.243 -0.3847 -0.2743  0.3795
  993YOPC   C2B14406  13.429   8.714   6.313  0.3614 -0.2589  0.1722
  993YOPC   D3B14407  13.036   8.481   6.347 -0.0907 -0.2159  0.2381
  993YOPC   C4B14408  12.918   8.177   6.103  0.0361  0.2626  0.2424
  994YOPC   NC314409   0.065   1.099   6.210  0.1977 -0.0073 -0.0279
  994YOPC   PO414410  -0.015   1.604   6.260 -0.0977 -0.0422 -0.3406
  994YOPC   GL114411  -0.051   1.446   6.680 -0.2279  0.2364 -0.1811
  994YOPC   GL214412  -0.397   1.217   6.706 -0.3038 -0.2706 -0.2524
  994YOPC   C1A14413   0.196   1.721   7.001  0.2088  0.0732 -0.1395
  994YOPC   D2A14414   0.075   2.084   7.196  0.1588  0.0329  0.1925
  994YOPC   C3A14415   0.326   2.246   7.460  0.0215  0.3302  0.3724
  994YOPC   C4A14416   0.456   2.266   7.864 -0.1134 -0.0773  0.1469
  994YOPC   C1B14417  -0.650   1.438   6.953  0.0616  0.1167 -0.2788
  994YOPC   C2B14418  -0.694   1.790   7.296 -0.2996 -0.0785 -0.2388
  994YOPC   D3B14419  -0.660   1.690   7.774  0.1615 -0.2609 -0.2223
  994YOPC   C4B14420  -0.828   1.464   8.014  0.1778  0.0342  0.0086
  995YOPC   NC314421   5.357   1.796   5.994  0.2014 -0.1339  0.0306
  995YOPC   PO414422   5.339   2.224   6.105  0.0282 -0.2599  0.0861
  995YOPC   GL114423   5.322   2.368   6.461 -0.0733  0.1835 -0.1514
  995YOPC   GL214424   5.289   2.577   6.651 -0.2568 -0.0111 -0.3603
  995YOPC   C1A14425   5.336   2.162   6.963  0.2208 -0.1704  0.1072
  995YOPC   D2A14426   5.492   2.158   7.386 -0.2660  0.0390  0.0392
  995YOPC   C3A14427   5.462   1.809   7.623  0.0096  0.2157 -0.6163
  995YOPC   C4A14428   5.431   1.692   8.072  0.0812 -0.0100 -0.0077
  995YOPC   C1B14429   5.573   2.664   7.058  0.2404 -0.2579 -0.0430
  995YOPC   C2B14430   5.870   2.558   7.519  0.1103 -0.0966  0.2180
  995YOPC   D3B14431   6.019   2.970   7.636  0.0046 -0.0752  0.1548
  995YOPC   C4B14432   6.040   3.064   8.112 -0.0874 -0.4029  0.2846
  996YOPC   NC314433  10.238   4.202   5.479  0.0755 -0.0847  0.0254
  996YOPC   PO414434  10.033   4.460   5.655  0.0175  0.1617  0.0235
  996YOPC   GL114435  10.162   4.152   5.954 -0.2452 -0.2048 -0.2138
  996YOPC   GL214436  10.545   4.025   5.830  0.1326 -0.1506  0.0522
  996YOPC   C1A14437  10.304   4.021   6.333  0.1179 -0.0828  0.2529
  996YOPC   D2A14438  10.439   4.188   6.695  0.1903  0.1813 -0.0253
  996YOPC   C3A14439  10.319   4.359   7.080 -0.2990  0.0338 -0.1824
  996YOPC   C4A14440  10.447   4.488   7.473 -0.3244  0.1102 -0.1445
  996YOPC   C1B14441  10.750   3.908   6.080 -0.0425  0.0977  0.2050
  996YOPC   C2B14442  10.921   4.006   6.496  0.0032 -0.2297  0.0244
  996YOPC   D3B14443  10.792   3.727   6.881  0.1368  0.0361 -0.2138
  996YOPC   C4B14444  10.730   3.496   7.257  0.2082 -0.2219 -0.0990
  997YOPC   NC314445  13.946  14.664   5.575  0.0449  0.0598  0.2579
  997YOPC   PO414446  13.869  14.776   6.080  0.1145  0.1714 -0.2409
  997YOPC   GL114447  13.855  15.084   6.359  0.0056  0.0218  0.0949
  997YOPC   GL214448  13.574  15.230   6.508  0.0787  0.2617  0.0754
  997YOPC   C1A14449  14.108  15.353   6.645 -0.3913  0.1233 -0.0671
  997YOPC   D2A14450  14.387  15.751   6.782  0.0889  0.0971  0.1508
  997YOPC   C3A14451  14.312  15.854   7.280  0.1256 -0.0573  0.3885
  997YOPC   C4A14452  14.454  16.191   7.417 -0.0506  0.0909  0.0433
  997YOPC   C1B14453  13.579  15.110   6.906 -0.1041  0.2012  0.2290
  997YOPC   C2B14454  13.437  15.163   7.242 -0.3523  0.1423 -0.0421
  997YOPC   D3B14455  13.466  14.785   7.531 -0.3149 -0.1002  0.0793
  997YOPC   C4B14456  13.607  14.878   7.922 -0.1590  0.3563 -0.0520
  998YOPC   NC314457   1.460   6.361   6.437  0.0943 -0.2024  0.0278
  998YOPC   PO414458   1.390   6.791   6.250 -0.2075 -0.1893  0.1502
  998YOPC   GL114459   1.380   6.814   6.710 -0.0289  0.1587 -0.0010
  998YOPC   GL214460   1.104   6.990   6.778 -0.0494  0.0683  0.2822
  998YOPC   C1A14461   1.661   6.708   6.946 -0.1103 -0.0716 -0.3250
  998YOPC   D2A14462   2.131   6.700   7.017  0.2778 -0.3024  0.5225
  998YOPC   C3A14463   2.350   6.568   7.350 -0.0407  0.2283 -0.0191
  998YOPC   C4A14464   2.400   6.272   7.678 -0.1043 -0.1045  0.0652
  998YOPC   C1B14465   1.017   7.098   7.138 -0.1036 -0.1748  0.0021
  998YOPC   C2B14466   1.211   7.086   7.522 -0.0245  0.1664 -0.0959
  998YOPC   D3B14467   0.995   6.944   7.819 -0.0252  0.3474  0.3217
  998YOPC   C4B14468   0.762   6.861   8.265 -0.6113 -0.2779 -0.0960
  999YOPC   NC314469   8.735   1.051   6.171 -0.0539  0.1390 -0.0143
  999YOPC   PO414470   9.037   1.239   6.164  0.1279  0.1859  0.1598
  999YOPC   GL114471   9.088   1.527   6.457  0.1914 -0.0573  0.3810
  999YOPC   GL214472   9.367   1.724   6.416 -0.0481  0.2142  0.0570
  999YOPC   C1A14473   9.278   1.697   6.888 -0.0688  0.0732 -0.2437
  999YOPC   D2A14474   9.084   1.757   7.306 -0.2110  0.2042 -0.1120
  999YOPC   C3A14475   8.817   1.527   7.670  0.0593  0.0277 -0.0625
  999YOPC   C4A14476   8.772   1.104   7.819 -0.1274  0.0059 -0.1222
  999YOPC   C1B14477   9.741   1.600   6.299 -0.4444  0.0342  0.0668
  999YOPC   C2B14478   9.948   1.261   6.147 -0.0283  0.1103 -0.0449
  999YOPC   D3B14479  10.368   1.300   6.096  0.0033 -0.1540  0.2815
  999YOPC   C4B14480  10.840   1.410   6.246 -0.0275  0.0140  0.4785
 1000YOPC   NC314481  11.826   4.444   5.432  0.0709 -0.0401 -0.1788
 1000YOPC   PO414482  11.479   4.171   5.448  0.0921 -0.1361 -0.3065
 1000YOPC   GL114483  11.666   4.200   5.837  0.0918 -0.0973 -0.2194
 1000YOPC   GL214484  11.805   4.546   5.878 -0.0092 -0.1695 -0.0059
 1000YOPC   C1A14485  11.675   4.091   6.247  0.1230 -0.2416  0.0051
 1000YOPC   D2A14486  11.912   3.967   6.635  0.3528 -0.0567 -0.1594
 1000YOPC   C3A14487  12.213   3.676   6.694 -0.1742 -0.1518  0.1086
 1000YOPC   C4A14488  12.530   3.309   6.783  0.3559  0.0464 -0.0359
 1000YOPC   C1B14489  11.487   4.548   6.145 -0.1896 -0.1417  0.0827
 1000YOPC   C2B14490  11.165   4.569   6.604 -0.0562 -0.0726 -0.2570
 1000YOPC   D3B14491  11.208   4.687   7.005  0.1104  0.1173 -0.0195
 1000YOPC   C4B14492  11.445   4.689   7.380 -0.0560  0.1372  0.2430
 1001YOPC   NC314493   5.496  12.812   6.086  0.1382  0.0601  0.2235
 1001YOPC   PO414494   5.453  12.381   6.025 -0.1838  0.0906  0.0921
 1001YOPC   GL114495   5.716  12.335   6.444  0.2678 -0.1120  0.1396
 1001YOPC   GL214496   5.898  12.646   6.584  0.3300  0.0128  0.0099
 1001YOPC   C1A14497   6.027  12.047   6.604 -0.0040  0.0517 -0.1522
 1001YOPC   D2A14498   6.246  11.639   6.802  0.0791 -0.0524 -0.1725
 1001YOPC   C3A14499   6.298  11.634   7.227 -0.1110 -0.5061  0.0509
 1001YOPC   C4A14500   6.476  11.751   7.518 -0.3953 -0.1817 -0.3881
 1001YOPC   C1B14501   5.882  12.385   6.950  0.5028  0.1082 -0.0539
 1001YOPC   C2B14502   5.953  12.013   7.153 -0.0579  0.1286 -0.0050
 1001YOPC   D3B14503   5.834  11.646   7.083 -0.1557  0.3708  0.0932
 1001YOPC   C4B14504   5.665  11.657   6.577  0.0889 -0.0288 -0.0178
 1002YOPC   NC314505  11.803  13.713   5.731 -0.0231 -0.0232  0.2340
 1002YOPC   PO414506  12.295  13.531   5.595 -0.1372 -0.3036  0.0677
 1002YOPC   GL114507  12.270  13.563   5.975  0.2314  0.3308 -0.0669
 1002YOPC   GL214508  12.292  13.311   6.220  0.1894 -0.0195  0.0220
 1002YOPC   C1A14509  12.256  13.785   6.308 -0.3550  0.3122 -0.0567
 1002YOPC   D2A14510  11.949  14.017   6.573 -0.1558 -0.0020  0.0580
 1002YOPC   C3A14511  12.140  14.291   6.909 -0.1841  0.1671  0.4835
 1002YOPC   C4A14512  12.377  14.055   6.868 -0.0333 -0.1053  0.2041
 1002YOPC   C1B14513  12.298  12.886   6.473 -0.5267 -0.0444 -0.2231
 1002YOPC   C2B14514  12.559  12.606   6.695 -0.0554  0.1819 -0.2702
 1002YOPC   D3B14515  12.690  12.825   7.075  0.0338  0.2164  0.1061
 1002YOPC   C4B14516  12.845  13.169   7.202  0.5288  0.0715  0.1741
 1003YOPC   NC314517   9.062  10.409   6.195  0.2104 -0.2109 -0.1619
 1003YOPC   PO414518   9.567  10.506   6.047 -0.1444 -0.0025  0.1230
 1003YOPC   GL114519   9.537  10.271   6.394  0.1049  0.1302 -0.1437
 1003YOPC   GL214520   9.758  10.067   6.392  0.0160  0.0133 -0.2255
 1003YOPC   C1A14521   9.313  10.315   6.763 -0.1259  0.2044  0.0930
 1003YOPC   D2A14522   9.371  10.105   7.124 -0.1143  0.2120  0.2490
 1003YOPC   C3A14523   9.210  10.225   7.473 -0.2558 -0.3703 -0.0649
 1003YOPC   C4A14524   9.045  10.204   7.925 -0.1843 -0.1812  0.2311
 1003YOPC   C1B14525   9.811  10.231   6.861  0.1835 -0.1668 -0.0129
 1003YOPC   C2B14526   9.790  10.149   7.341 -0.2407  0.0932  0.2436
 1003YOPC   D3B14527   9.473   9.845   7.508 -0.0752  0.1255  0.0983
 1003YOPC   C4B14528   9.164   9.517   7.229  0.1061 -0.2377 -0.0523
 1004YOPC   NC314529   2.013  15.279   6.313 -0.1445  0.2069  0.0117
 1004YOPC   PO414530   2.299  15.587   6.315 -0.0501  0.1439  0.1668
 1004YOPC   GL114531   2.475  15.425   6.670 -0.2381  0.0401  0.3666
 1004YOPC   GL214532   2.638  15.654   6.859 -0.2217 -0.0712  0.3784
 1004YOPC   C1A14533   2.261  15.289   7.038  0.1508 -0.1689  0.2893
 1004YOPC   D2A14534   2.072  15.359   7.450 -0.0983 -0.1002 -0.3180
 1004YOPC   C3A14535   2.180  15.150   7.824 -0.3212  0.2958  0.3649
 1004YOPC   C4A14536   2.044  14.977   8.249  0.0008 -0.2082 -0.2918
 1004YOPC   C1B14537   2.547  15.787   7.344 -0.0536  0.3411 -0.2407
 1004YOPC   C2B14538   2.685  16.001   7.753  0.2714  0.0088 -0.0978
 1004YOPC   D3B14539   2.805  15.778   8.213  0.0918  0.2164  0.0109
 1004YOPC   C4B14540   2.828  15.434   8.432 -0.2331 -0.0487  0.0341
 1005YOPC   NC314541  10.030   2.901   5.378 -0.1254  0.0148 -0.0077
 1005YOPC   PO414542  10.336   3.229   5.415  0.0050 -0.1242  0.1033
 1005YOPC   GL114543  10.194   3.198   5.795 -0.0950  0.0101 -0.0447
 1005YOPC   GL214544   9.916   3.189   5.766  0.0273 -0.0661 -0.2560
 1005YOPC   C1A14545  10.340   3.571   6.094  0.1910 -0.0911  0.0804
 1005YOPC   D2A14546  10.567   3.573   6.449  0.6304  0.0114 -0.1384
 1005YOPC   C3A14547  10.322   3.717   6.785 -0.0424  0.3314  0.1272
 1005YOPC   C4A14548  10.079   3.918   7.083  0.1341  0.1450 -0.2748
 1005YOPC   C1B14549   9.750   3.262   6.218  0.2524 -0.1350  0.1911
 1005YOPC   C2B14550   9.945   3.526   6.456  0.0143  0.1407 -0.1114
 1005YOPC   D3B14551   9.903   3.432   6.839  0.0328  0.0009 -0.1640
 1005YOPC   C4B14552   9.959   3.487   7.322  0.1093  0.0535 -0.2164
 1006YOPC   NC314553   4.423  16.476   6.309 -0.1093  0.0975 -0.0069
 1006YOPC   PO414554   4.732  16.455   6.453 -0.0339 -0.0400 -0.0483
 1006YOPC   GL114555   4.698  16.711   6.791 -0.0849 -0.0768 -0.1482
 1006YOPC   GL214556   4.407  16.803   6.815 -0.1952 -0.0742  0.0625
 1006YOPC   C1A14557   4.864  16.928   7.205 -0.3187 -0.1655 -0.0558
 1006YOPC   D2A14558   4.990  17.156   7.618  0.1449 -0.0119 -0.1077
 1006YOPC   C3A14559   4.881  16.929   7.978  0.2413  0.2817 -0.1740
 1006YOPC   C4A14560   5.011  16.814   8.319  0.0139 -0.1772 -0.1121
 1006YOPC   C1B14561   4.392  16.840   7.237  0.1576  0.0442 -0.1821
 1006YOPC   C2B14562   4.483  16.896   7.662  0.1901 -0.1633 -0.0149
 1006YOPC   D3B14563   4.347  16.958   8.044  0.0247 -0.5029 -0.0106
 1006YOPC   C4B14564   4.037  17.223   8.350 -0.2697  0.2823  0.0820
 1007YOPC   NC314565   7.337  10.351   5.943  0.0097 -0.1103  0.2392
 1007YOPC   PO414566   7.483   9.938   6.038 -0.2147 -0.2166 -0.2956
 1007YOPC   GL114567   7.536   9.777   6.486 -0.2408 -0.2820  0.0861
 1007YOPC   GL214568   7.632   9.890   6.678  0.1470  0.1265 -0.1539
 1007YOPC   C1A14569   7.212   9.728   6.907 -0.2228  0.2156  0.0429
 1007YOPC   D2A14570   7.064   9.342   7.143  0.0643  0.1066 -0.0447
 1007YOPC   C3A14571   7.175   9.384   7.625 -0.1698 -0.1045  0.0698
 1007YOPC   C4A14572   7.485   9.488   8.031  0.0995  0.1756 -0.0432
 1007YOPC   C1B14573   7.520  10.067   7.015 -0.0402 -0.2169 -0.0229
 1007YOPC   C2B14574   7.332   9.877   7.402  0.0654  0.2087  0.1746
 1007YOPC   D3B14575   7.411   9.940   7.833  0.0419  0.2142 -0.0304
 1007YOPC   C4B14576   7.380  10.261   8.029 -0.1155 -0.2524 -0.0313
 1008YOPC   NC314577   1.970  13.237   5.678  0.0621 -0.4175  0.3383
 1008YOPC   PO414578   2.038  13.708   5.779 -0.0301  0.1442 -0.1832
 1008YOPC   GL114579   2.076  13.828   6.187  0.4001  0.2458 -0.0136
 1008YOPC   GL214580   1.997  13.435   6.261 -0.0822 -0.0918  0.0209
 1008YOPC   C1A14581   2.199  13.757   6.605  0.3296 -0.2137 -0.2682
 1008YOPC   D2A14582   2.336  13.493   6.939  0.1717  0.1623 -0.1434
 1008YOPC   C3A14583   2.220  13.759   7.401  0.3205 -0.0690 -0.0834
 1008YOPC   C4A14584   2.056  13.979   7.780  0.2185 -0.2654  0.2136
 1008YOPC   C1B14585   1.751  13.601   6.698 -0.1682 -0.0350  0.0275
 1008YOPC   C2B14586   1.664  13.824   7.066  0.0684 -0.0589 -0.2560
 1008YOPC   D3B14587   1.711  13.756   7.431 -0.1426  0.3070 -0.0571
 1008YOPC   C4B14588   1.510  13.823   7.843 -0.1167  0.3398 -0.2328
 1009YOPC   NC314589   6.706   7.047   5.557 -0.0830  0.2718  0.1788
 1009YOPC   PO414590   6.311   6.927   5.637  0.0141 -0.2295 -0.0233
 1009YOPC   GL114591   6.097   7.152   6.005  0.2165  0.2309  0.3782
 1009YOPC   GL214592   6.064   7.577   5.970  0.1984 -0.3542  0.0526
 1009YOPC   C1A14593   5.913   7.057   6.439  0.0591 -0.0187 -0.4600
 1009YOPC   D2A14594   5.715   6.958   6.863  0.3088  0.1704 -0.0518
 1009YOPC   C3A14595   5.858   6.831   7.226 -0.2834  0.1336 -0.2655
 1009YOPC   C4A14596   6.080   6.587   7.468 -0.0155  0.1567 -0.1802
 1009YOPC   C1B14597   5.963   7.515   6.431  0.1429  0.1515 -0.0298
 1009YOPC   C2B14598   5.655   7.529   6.731 -0.3191 -0.0639 -0.1634
 1009YOPC   D3B14599   5.504   7.765   7.027 -0.0842  0.0357  0.2534
 1009YOPC   C4B14600   5.490   8.095   7.384  0.0205  0.1327 -0.1009
 1010YOPC   NC314601  11.086   1.400   5.193  0.0654  0.1236 -0.1561
 1010YOPC   PO414602  11.293   1.627   5.498 -0.0433  0.2440  0.2010
 1010YOPC   GL114603  11.303   1.583   5.930  0.2557  0.0457  0.0342
 1010YOPC   GL214604  11.262   1.230   5.986  0.0435  0.0678  0.1097
 1010YOPC   C1A14605  11.202   1.701   6.382 -0.2611  0.0167 -0.0672
 1010YOPC   D2A14606  11.006   1.415   6.731 -0.2357 -0.1740  0.2631
 1010YOPC   C3A14607  10.993   1.432   7.175  0.0463  0.0396 -0.3064
 1010YOPC   C4A14608  11.197   1.407   7.534 -0.1161 -0.0740 -0.2464
 1010YOPC   C1B14609  11.365   1.219   6.460  0.0064 -0.2713 -0.0032
 1010YOPC   C2B14610  11.217   1.002   6.754  0.0195  0.0567 -0.1180
 1010YOPC   D3B14611  11.236   1.031   7.134  0.1671  0.1266  0.1776
 1010YOPC   C4B14612  11.290   0.877   7.477 -0.3279 -0.0733 -0.3423
 1011YOPC   NC314613  14.368  13.118   6.110  0.0361 -0.1132  0.0363
 1011YOPC   PO414614  14.451  13.464   6.289  0.2457  0.1416  0.0222
 1011YOPC   GL114615  14.768  13.495   6.454 -0.5639  0.0784  0.2147
 1011YOPC   GL214616  14.614  13.388   6.752  0.0263  0.0182  0.3309
 1011YOPC   C1A14617  14.990  13.734   6.664  0.1315 -0.1383 -0.4011
 1011YOPC   D2A14618  14.876  13.818   7.043 -0.2858 -0.1861  0.0968
 1011YOPC   C3A14619  14.541  13.531   7.259 -0.0556 -0.1005 -0.2765
 1011YOPC   C4A14620  14.253  13.137   7.314  0.0308  0.1540 -0.1181
 1011YOPC   C1B14621  14.521  13.063   6.889  0.0822  0.2453  0.3845
 1011YOPC   C2B14622  14.597  12.769   7.246  0.1280 -0.2203 -0.1871
 1011YOPC   D3B14623  14.942  12.746   7.435  0.1556  0.1491 -0.0736
 1011YOPC   C4B14624  15.319  12.785   7.222 -0.1471 -0.3402 -0.0406
 1012YOPC   NC314625   8.469  15.255   6.546 -0.0631  0.0823 -0.0749
 1012YOPC   PO414626   8.694  15.392   6.124 -0.0708 -0.3628  0.0499
 1012YOPC   GL114627   8.764  15.659   6.508 -0.0122 -0.2274 -0.2675
 1012YOPC   GL214628   8.495  15.826   6.587  0.0686  0.0547 -0.0522
 1012YOPC   C1A14629   9.066  15.617   6.829 -0.0717 -0.1495  0.0399
 1012YOPC   D2A14630   9.253  15.509   7.160  0.1848  0.2860 -0.1706
 1012YOPC   C3A14631   8.952  15.548   7.513  0.2780 -0.2976  0.1475
 1012YOPC   C4A14632   8.540  15.677   7.681  0.0411  0.0932  0.0750
 1012YOPC   C1B14633   8.620  15.744   6.953  0.2344  0.2100  0.0262
 1012YOPC   C2B14634   8.254  15.843   7.259 -0.2955  0.1380  0.0145
 1012YOPC   D3B14635   8.313  16.095   7.747 -0.3582 -0.0311 -0.2497
 1012YOPC   C4B14636   8.204  16.193   8.218  0.4563  0.2989  0.0443
 1013YOPC   NC314637  13.502   5.584   5.051  0.1499  0.2357 -0.1553
 1013YOPC   PO414638  13.741   5.518   5.415  0.2326  0.1321 -0.4061
 1013YOPC   GL114639  13.621   5.427   5.822 -0.2332  0.4015  0.1461
 1013YOPC   GL214640  13.327   5.417   5.901  0.0340 -0.0562 -0.1866
 1013YOPC   C1A14641  13.678   5.392   6.280  0.0050  0.0375  0.2281
 1013YOPC   D2A14642  13.557   5.327   6.640  0.0424  0.1338 -0.0741
 1013YOPC   C3A14643  13.236   5.431   6.685  0.0675  0.2008 -0.1790
 1013YOPC   C4A14644  13.008   5.881   6.659 -0.0743 -0.2827 -0.3634
 1013YOPC   C1B14645  13.475   5.822   6.108 -0.2609 -0.1889 -0.2237
 1013YOPC   C2B14646  13.651   5.846   6.524  0.0677  0.2025  0.0037
 1013YOPC   D3B14647  13.621   5.758   6.974 -0.2534  0.1940  0.2699
 1013YOPC   C4B14648  13.489   5.739   7.474  0.3040 -0.2776 -0.1488
 1014YOPC   NC314649   7.440   5.752   5.582 -0.0212  0.2431  0.0401
 1014YOPC   PO414650   7.054   5.854   5.650 -0.1890  0.1908 -0.0584
 1014YOPC   GL114651   7.076   5.786   6.098  0.1623  0.3510 -0.2700
 1014YOPC   GL214652   7.134   5.428   6.090 -0.0810 -0.2016  0.0945
 1014YOPC   C1A14653   7.141   5.912   6.398 -0.0748  0.0227  0.3160
 1014YOPC   D2A14654   7.010   6.302   6.579  0.0518 -0.2128 -0.0895
 1014YOPC   C3A14655   7.040   6.390   7.025  0.0933 -0.2589  0.1016
 1014YOPC   C4A14656   7.244   6.480   7.423 -0.0321  0.3573  0.1881
 1014YOPC   C1B14657   7.168   5.435   6.486 -0.0720  0.0509  0.0618
 1014YOPC   C2B14658   7.345   5.664   6.788  0.0572 -0.2788 -0.1629
 1014YOPC   D3B14659   7.407   6.095   6.804  0.2389  0.0313  0.2304
 1014YOPC   C4B14660   7.625   6.223   7.251 -0.2221  0.3449 -0.0625
 1015YOPC   NC314661   7.430  13.298   6.095  0.1701  0.0917 -0.2204
 1015YOPC   PO414662   7.900  13.327   6.184 -0.0304  0.0846  0.0357
 1015YOPC   GL114663   8.117  13.288   6.555 -0.0823 -0.1925 -0.1858
 1015YOPC   GL214664   8.467  13.317   6.711 -0.0753  0.1667  0.0909
 1015YOPC   C1A14665   8.010  13.238   6.956  0.2714 -0.1899 -0.1844
 1015YOPC   D2A14666   7.612  13.160   7.231 -0.0293 -0.0293 -0.0520
 1015YOPC   C3A14667   7.440  13.018   7.657 -0.0294 -0.0890 -0.1953
 1015YOPC   C4A14668   7.188  13.033   8.076  0.3796 -0.3673  0.0693
 1015YOPC   C1B14669   8.491  13.391   7.153  0.2983 -0.0117 -0.0504
 1015YOPC   C2B14670   8.030  13.391   7.502 -0.0402  0.0785 -0.0886
 1015YOPC   D3B14671   7.904  13.227   7.907 -0.2027 -0.1405  0.2632
 1015YOPC   C4B14672   7.759  13.119   8.251  0.0550  0.0282  0.0581
 1016YOPC   NC314673   6.515   2.160   5.933  0.1170 -0.2628  0.1356
 1016YOPC   PO414674   6.535   2.486   6.084 -0.0353  0.1531  0.0150
 1016YOPC   GL114675   6.934   2.257   6.242 -0.1318  0.0338 -0.2912
 1016YOPC   GL214676   6.746   2.044   6.430  0.2616  0.0126  0.1847
 1016YOPC   C1A14677   7.239   2.271   6.572 -0.2826  0.0983 -0.1458
 1016YOPC   D2A14678   7.515   2.448   6.987  0.0024  0.0875 -0.0096
 1016YOPC   C3A14679   7.542   2.357   7.355 -0.0649 -0.0214 -0.3382
 1016YOPC   C4A14680   7.723   2.028   7.638  0.0236 -0.2292  0.1095
 1016YOPC   C1B14681   6.727   2.371   6.800 -0.0468 -0.1463  0.3664
 1016YOPC   C2B14682   6.726   2.697   7.170 -0.3069  0.0182  0.3113
 1016YOPC   D3B14683   6.866   2.600   7.622  0.0256 -0.1324 -0.0041
 1016YOPC   C4B14684   6.662   2.632   8.013  0.1380 -0.0500 -0.2108
 1017YOPC   NC314685   3.853  12.035   6.398  0.2650 -0.3128  0.1263
 1017YOPC   PO414686   4.098  12.442   6.411 -0.1292 -0.0625 -0.0659
 1017YOPC   GL114687   4.199  12.639   6.761  0.0440 -0.1251  0.3047
 1017YOPC   GL214688   4.503  12.745   6.729 -0.3607  0.3750  0.1913
 1017YOPC   C1A14689   4.116  12.571   7.192 -0.1478  0.0448 -0.1816
 1017YOPC   D2A14690   4.334  12.415   7.620  0.3714  0.0323  0.3931
 1017YOPC   C3A14691   4.194  12.173   7.957 -0.2484 -0.0691 -0.0583
 1017YOPC   C4A14692   3.841  12.041   8.148 -0.3755 -0.0696  0.1517
 1017YOPC   C1B14693   4.618  12.613   7.149  0.0182 -0.1959 -0.0067
 1017YOPC   C2B14694   4.949  12.317   7.336 -0.0554  0.1289  0.2067
 1017YOPC   D3B14695   5.017  12.424   7.633 -0.0694  0.5412 -0.4518
 1017YOPC   C4B14696   4.819  12.475   8.005 -0.0871 -0.2431  0.2249
 1018YOPC   NC314697   9.127   1.733   5.988 -0.1231 -0.1038 -0.1560
 1018YOPC   PO414698   9.467   1.925   5.796  0.2278 -0.1165  0.4731
 1018YOPC   GL114699   9.477   2.146   6.208  0.2113  0.2703  0.1486
 1018YOPC   GL214700   9.612   2.444   6.252  0.1789 -0.0213 -0.2021
 1018YOPC   C1A14701   9.538   2.096   6.631 -0.0724  0.2676 -0.2110
 1018YOPC   D2A14702   9.685   1.881   7.014 -0.1900  0.5857 -0.0389
 1018YOPC   C3A14703   9.560   1.570   7.298  0.1409  0.1813  0.0834
 1018YOPC   C4A14704   9.542   1.183   7.484  0.3824  0.1544 -0.2213
 1018YOPC   C1B14705   9.601   2.583   6.663  0.3033 -0.0133 -0.2258
 1018YOPC   C2B14706   9.795   2.386   7.048 -0.3717  0.2205  0.0261
 1018YOPC   D3B14707   9.911   2.452   7.435  0.0289 -0.1907  0.2216
 1018YOPC   C4B14708   9.991   2.537   7.754  0.2167 -0.0594  0.0450
 1019YOPC   NC314709   0.606  11.737   5.716 -0.0273  0.1437 -0.0056
 1019YOPC   PO414710   0.587  11.304   5.801  0.1324 -0.0187  0.0667
 1019YOPC   GL114711   0.778  11.439   6.159  0.1411  0.0547 -0.0769
 1019YOPC   GL214712   0.944  11.750   6.326 -0.1833  0.0852 -0.2806
 1019YOPC   C1A14713   0.499  11.498   6.581  0.1407 -0.0585  0.3644
 1019YOPC   D2A14714   0.336  11.242   6.773 -0.0798 -0.1508 -0.2007
 1019YOPC   C3A14715   0.389  11.365   7.219  0.0745 -0.2754 -0.2000
 1019YOPC   C4A14716   0.489  11.222   7.591  0.0491 -0.0544  0.2557
 1019YOPC   C1B14717   0.874  11.754   6.766  0.0072 -0.2551 -0.1812
 1019YOPC   C2B14718   0.676  11.749   7.125  0.1571  0.0762 -0.0953
 1019YOPC   D3B14719   0.956  11.552   7.354 -0.0032  0.2661  0.0691
 1019YOPC   C4B14720   1.243  11.449   7.617 -0.0130  0.0147 -0.0916
 1020YOPC   NC314721   6.155   3.974   5.691 -0.1939  0.0706  0.1709
 1020YOPC   PO414722   6.392   3.838   6.045  0.0346 -0.0105  0.3511
 1020YOPC   GL114723   6.428   3.820   6.378  0.0919 -0.0166  0.4287
 1020YOPC   GL214724   6.753   3.966   6.494 -0.2528  0.2963  0.0785
 1020YOPC   C1A14725   6.226   3.892   6.669 -0.1339 -0.1064 -0.0786
 1020YOPC   D2A14726   5.936   4.003   7.028 -0.1134 -0.1288  0.2286
 1020YOPC   C3A14727   6.001   3.870   7.400 -0.0301  0.1494  0.0618
 1020YOPC   C4A14728   6.141   3.859   7.710  0.0169 -0.1230 -0.0697
 1020YOPC   C1B14729   6.638   4.261   6.668 -0.0777 -0.2541 -0.3184
 1020YOPC   C2B14730   6.524   4.537   7.037 -0.0762 -0.1250 -0.2074
 1020YOPC   D3B14731   6.571   4.612   7.391  0.1085  0.0988 -0.2115
 1020YOPC   C4B14732   6.598   4.752   7.746  0.0972  0.1038 -0.3303
 1021YOPC   NC314733  15.456  12.835   5.567  0.0482 -0.0658 -0.2326
 1021YOPC   PO414734  15.092  12.606   5.683  0.0394  0.1796  0.4323
 1021YOPC   GL114735  14.920  12.625   6.164 -0.2114  0.4854 -0.1546
 1021YOPC   GL214736  14.821  12.925   6.354 -0.1489  0.0405  0.1385
 1021YOPC   C1A14737  15.134  12.327   6.509  0.1246  0.0641  0.0227
 1021YOPC   D2A14738  15.357  12.379   6.821  0.3532  0.3223  0.1528
 1021YOPC   C3A14739  15.614  12.884   6.843 -0.3126  0.1034  0.0380
 1021YOPC   C4A14740  15.688  13.327   6.886 -0.1062  0.3805 -0.3286
 1021YOPC   C1B14741  14.889  12.673   6.757 -0.0863  0.2972 -0.1243
 1021YOPC   C2B14742  14.968  12.342   7.140  0.0521 -0.1211  0.0986
 1021YOPC   D3B14743  15.232  12.269   7.486 -0.0513  0.1267 -0.1417
 1021YOPC   C4B14744  15.356  12.487   7.899  0.0837 -0.1203 -0.2726
 1022YOPC   NC314745   8.314   6.883   6.127  0.0243 -0.0083  0.3221
 1022YOPC   PO414746   7.901   6.954   5.906  0.1621  0.2272  0.2161
 1022YOPC   GL114747   7.761   6.843   6.287  0.3167  0.0163  0.0794
 1022YOPC   GL214748   7.608   7.102   6.538 -0.3411 -0.0687 -0.2179
 1022YOPC   C1A14749   7.743   6.593   6.758  0.3125  0.1456  0.3746
 1022YOPC   D2A14750   7.622   6.706   7.164  0.1655 -0.0552  0.1876
 1022YOPC   C3A14751   7.689   7.219   7.176  0.0077 -0.1571  0.3917
 1022YOPC   C4A14752   7.632   7.728   7.013  0.1405 -0.1056  0.0324
 1022YOPC   C1B14753   7.335   7.385   6.876  0.2800  0.0221 -0.0808
 1022YOPC   C2B14754   7.163   7.358   7.336  0.0127 -0.0093  0.1012
 1022YOPC   D3B14755   7.253   7.564   7.643  0.0775  0.0945  0.0965
 1022YOPC   C4B14756   7.567   7.861   7.868 -0.0048  0.0020  0.1042
 1023YOPC   NC314757   8.547  17.581   6.099 -0.0124  0.1362 -0.0163
 1023YOPC   PO414758   8.624  17.959   6.330 -0.1291 -0.1794 -0.0443
 1023YOPC   GL114759   8.895  18.141   6.687  0.2018 -0.0110 -0.2115
 1023YOPC   GL214760   8.749  18.227   6.916  0.2360  0.2594  0.0765
 1023YOPC   C1A14761   9.098  17.911   7.015 -0.1557 -0.1601  0.1353
 1023YOPC   D2A14762   9.194  17.582   7.333  0.0038 -0.0318 -0.1454
 1023YOPC   C3A14763   9.459  17.586   7.680 -0.0111  0.6387 -0.1898
 1023YOPC   C4A14764   9.711  17.796   7.949  0.1165  0.2862  0.0683
 1023YOPC   C1B14765   8.339  18.179   7.170 -0.1491  0.1089 -0.2249
 1023YOPC   C2B14766   7.927  18.365   7.220 -0.0350 -0.1496 -0.0833
 1023YOPC   D3B14767   7.573  18.181   7.011  0.0489  0.2728 -0.0618
 1023YOPC   C4B14768   7.121  18.084   7.120 -0.1963  0.1677 -0.2189
 1024YOPC   NC314769  13.458  14.162   5.654 -0.1080 -0.1452  0.1621
 1024YOPC   PO414770  13.697  14.345   5.879  0.2126  0.0474  0.3546
 1024YOPC   GL114771  13.656  14.138   6.248  0.3302 -0.0003 -0.2719
 1024YOPC   GL214772  13.599  14.427   6.392  0.5086 -0.1123  0.0656
 1024YOPC   C1A14773  13.455  13.941   6.568 -0.1029 -0.0828  0.0314
 1024YOPC   D2A14774  13.433  13.932   6.981 -0.0132 -0.2645 -0.0646
 1024YOPC   C3A14775  13.375  14.260   7.341  0.0641  0.0080 -0.0295
 1024YOPC   C4A14776  13.415  14.368   7.849  0.0272  0.0939  0.0990
 1024YOPC   C1B14777  13.748  14.305   6.769  0.1827  0.1582  0.1399
 1024YOPC   C2B14778  13.852  14.098   7.213  0.2670 -0.2142  0.2052
 1024YOPC   D3B14779  13.817  14.451   7.568 -0.0788  0.0060  0.4380
 1024YOPC   C4B14780  13.908  14.229   7.930  0.0301 -0.0360 -0.0183
 1025YOPC   NC314781   0.316  17.885   6.072 -0.1360  0.2248  0.0888
 1025YOPC   PO414782   0.021  17.530   6.168  0.3552 -0.2741  0.0617
 1025YOPC   GL114783  -0.164  17.657   6.436 -0.0499 -0.1012 -0.2060
 1025YOPC   GL214784  -0.201  17.379   6.644 -0.1547  0.1379 -0.0803
 1025YOPC   C1A14785  -0.310  18.041   6.672  0.1468  0.2521 -0.0417
 1025YOPC   D2A14786  -0.663  18.292   6.538  0.2253 -0.1097  0.4582
 1025YOPC   C3A14787  -0.914  18.572   6.842  0.2661  0.2581  0.0391
 1025YOPC   C4A14788  -1.226  18.395   7.120  0.1072  0.1737 -0.1609
 1025YOPC   C1B14789  -0.183  17.280   7.094 -0.2137  0.1190  0.0199
 1025YOPC   C2B14790  -0.456  17.310   7.422 -0.2398 -0.1582  0.2493
 1025YOPC   D3B14791  -0.346  17.444   7.865 -0.3263  0.1997  0.2186
 1025YOPC   C4B14792  -0.553  17.444   8.293 -0.2223 -0.2204 -0.3955
 1026YOPC   NC314793   1.544   1.926   6.371 -0.1295  0.1755  0.0718
 1026YOPC   PO414794   1.110   2.069   6.474  0.0211  0.1855  0.1317
 1026YOPC   GL114795   1.227   1.973   6.924 -0.2190 -0.2729  0.2192
 1026YOPC   GL214796   1.220   2.296   7.178 -0.1264 -0.0904  0.0964
 1026YOPC   C1A14797   1.040   1.768   7.324 -0.0854  0.2757 -0.5251
 1026YOPC   D2A14798   0.911   1.488   7.697 -0.1619 -0.1183  0.2905
 1026YOPC   C3A14799   0.526   1.597   8.025  0.0505  0.0553  0.2370
 1026YOPC   C4A14800   0.437   1.613   8.456  0.0331  0.4683 -0.2093
 1026YOPC   C1B14801   1.668   2.246   7.270 -0.1208 -0.0295  0.1740
 1026YOPC   C2B14802   1.954   1.908   7.541 -0.1648  0.0384 -0.2469
 1026YOPC   D3B14803   2.333   2.172   7.593 -0.1453  0.1564  0.0633
 1026YOPC   C4B14804   2.420   2.444   7.917  0.1721 -0.0969  0.0283
 1027YOPC   NC314805   1.582  14.505   5.892 -0.3259 -0.0981  0.0349
 1027YOPC   PO414806   1.305  14.744   6.159  0.0814 -0.0976  0.0602
 1027YOPC   GL114807   1.519  14.373   6.399 -0.1215  0.2465  0.0006
 1027YOPC   GL214808   1.658  14.147   6.187 -0.2382 -0.0791 -0.3280
 1027YOPC   C1A14809   1.669  14.491   6.710  0.1976 -0.1534  0.0671
 1027YOPC   D2A14810   1.620  14.395   7.061  0.1232 -0.0220  0.1649
 1027YOPC   C3A14811   1.916  14.352   7.430  0.0687  0.0842  0.2090
 1027YOPC   C4A14812   2.340  14.281   7.478 -0.1610  0.0375 -0.1380
 1027YOPC   C1B14813   1.857  14.092   6.560 -0.1321  0.0592 -0.3788
 1027YOPC   C2B14814   2.092  14.011   7.011  0.1596  0.0948 -0.1163
 1027YOPC   D3B14815   2.553  13.937   7.083 -0.1311 -0.0825  0.4272
 1027YOPC   C4B14816   3.029  14.079   7.100 -0.3509 -0.0873  0.1884
 1028YOPC   NC314817   2.278   4.926   6.499 -0.1278 -0.0612  0.4000
 1028YOPC   PO414818   2.404   5.333   6.457  0.1881  0.0959  0.2726
 1028YOPC   GL114819   2.424   5.352   6.854  0.0915  0.1621  0.1293
 1028YOPC   GL214820   2.308   5.562   7.043  0.2072  0.0565  0.0263
 1028YOPC   C1A14821   2.353   5.058   7.111 -0.0331 -0.0899 -0.1126
 1028YOPC   D2A14822   2.264   4.998   7.567 -0.2051  0.0572  0.2506
 1028YOPC   C3A14823   2.195   4.728   7.763  0.0839  0.4437 -0.0058
 1028YOPC   C4A14824   2.332   4.372   8.061 -0.1550 -0.0122  0.0335
 1028YOPC   C1B14825   2.508   5.506   7.407 -0.1267 -0.0488 -0.0650
 1028YOPC   C2B14826   2.520   5.314   7.810  0.1040  0.1391 -0.1376
 1028YOPC   D3B14827   2.880   5.177   8.009 -0.0575  0.0777 -0.1328
 1028YOPC   C4B14828   3.144   4.761   7.982 -0.0587 -0.2539 -0.0450
 1029YOPC   NC314829   2.450   1.712   6.423 -0.4311 -0.1973  0.5606
 1029YOPC   PO414830   2.020   1.964   6.342 -0.2589  0.0821  0.2597
 1029YOPC   GL114831   1.954   1.830   6.689 -0.0513  0.1794  0.2947
 1029YOPC   GL214832   1.694   1.774   6.825 -0.0013  0.1391 -0.1099
 1029YOPC   C1A14833   2.156   1.785   7.087  0.0072  0.1353  0.1389
 1029YOPC   D2A14834   2.277   1.544   7.342 -0.0334 -0.4339 -0.1667
 1029YOPC   C3A14835   2.355   1.645   7.718 -0.2083 -0.1985 -0.2146
 1029YOPC   C4A14836   2.353   1.803   8.094  0.0174 -0.3296  0.0449
 1029YOPC   C1B14837   1.550   1.669   7.257  0.0350 -0.0408 -0.1085
 1029YOPC   C2B14838   1.429   1.925   7.572  0.1187  0.0059 -0.0920
 1029YOPC   D3B14839   1.372   1.613   7.804 -0.2683 -0.1798  0.1598
 1029YOPC   C4B14840   1.125   1.656   8.250  0.1164 -0.1550  0.4503
 1030YOPC   NC314841  12.369  13.083   5.758  0.2150 -0.1689  0.0124
 1030YOPC   PO414842  11.908  13.251   5.705  0.1951 -0.0802  0.0367
 1030YOPC   GL114843  11.930  12.939   6.102 -0.0759  0.1172 -0.0426
 1030YOPC   GL214844  11.869  12.710   6.288 -0.0701 -0.3907  0.0920
 1030YOPC   C1A14845  11.555  13.044   6.437  0.0478 -0.0553  0.3167
 1030YOPC   D2A14846  11.430  12.766   6.774 -0.1817 -0.0224  0.0872
 1030YOPC   C3A14847  11.594  12.805   7.188  0.0855  0.1039  0.1720
 1030YOPC   C4A14848  11.521  12.734   7.644  0.3540  0.2457 -0.2927
 1030YOPC   C1B14849  11.894  12.746   6.772  0.0439  0.2133 -0.4736
 1030YOPC   C2B14850  12.225  12.693   7.044 -0.0752 -0.0995 -0.1362
 1030YOPC   D3B14851  12.029  12.743   7.501 -0.0515  0.0720 -0.3412
 1030YOPC   C4B14852  12.214  12.491   7.859  0.1151  0.1944  0.0053
 1031YOPC   NC314853   8.517   0.223   6.516 -0.0459  0.0316 -0.0365
 1031YOPC   PO414854   8.092   0.097   6.447  0.0932 -0.1606 -0.0963
 1031YOPC   GL114855   8.052   0.401   6.771  0.1510 -0.0410 -0.1950
 1031YOPC   GL214856   8.213   0.615   6.904  0.2250  0.1742  0.2740
 1031YOPC   C1A14857   7.628   0.465   6.946 -0.1203 -0.1954 -0.2407
 1031YOPC   D2A14858   7.626   0.588   7.407  0.3027  0.1701  0.1269
 1031YOPC   C3A14859   7.738   0.339   7.691  0.1201  0.0525  0.0478
 1031YOPC   C4A14860   7.831   0.239   8.127 -0.1698 -0.1488 -0.4082
 1031YOPC   C1B14861   8.156   0.619   7.342  0.1666  0.1550 -0.1272
 1031YOPC   C2B14862   8.105   0.613   7.803 -0.0315  0.3035  0.0423
 1031YOPC   D3B14863   8.244   0.986   8.028  0.2351 -0.0598 -0.0010
 1031YOPC   C4B14864   8.438   1.224   8.366  0.0751 -0.3862 -0.2986
 1032YOPC   NC314865   2.946  10.729   6.460 -0.1219  0.0187  0.4665
 1032YOPC   PO414866   3.216  10.672   6.232 -0.2034 -0.1300  0.1523
 1032YOPC   GL114867   3.413  10.892   6.520  0.0139  0.2950  0.0282
 1032YOPC   GL214868   3.280  10.807   6.796  0.2802  0.0410  0.2852
 1032YOPC   C1A14869   3.800  10.895   6.744  0.0259 -0.1520  0.2438
 1032YOPC   D2A14870   4.089  10.984   7.016  0.1846  0.1785 -0.2977
 1032YOPC   C3A14871   4.277  10.938   7.428 -0.1269 -0.1790  0.0596
 1032YOPC   C4A14872   4.526  10.988   7.663 -0.0782 -0.0119  0.0236
 1032YOPC   C1B14873   3.256  10.868   7.347 -0.1052 -0.0187  0.4582
 1032YOPC   C2B14874   3.301  10.963   7.799 -0.1510  0.0019  0.2388
 1032YOPC   D3B14875   3.630  11.043   8.011 -0.0841 -0.2332  0.0622
 1032YOPC   C4B14876   4.144  11.092   7.997 -0.1345  0.0004 -0.0132
 1033YOPC   NC314877   6.668  15.878   5.627 -0.0444 -0.2022  0.0798
 1033YOPC   PO414878   6.958  15.756   5.922  0.1830 -0.2117  0.0886
 1033YOPC   GL114879   7.289  15.675   6.284  0.0540 -0.0981  0.0386
 1033YOPC   GL214880   7.311  15.460   6.520 -0.0835 -0.0546 -0.2620
 1033YOPC   C1A14881   7.561  15.928   6.609  0.1415 -0.0773 -0.0200
 1033YOPC   D2A14882   7.744  16.328   6.805  0.3458  0.1075 -0.0221
 1033YOPC   C3A14883   8.008  16.387   7.242 -0.1447  0.0462  0.0124
 1033YOPC   C4A14884   7.908  16.393   7.692 -0.3523  0.0113 -0.0281
 1033YOPC   C1B14885   7.691  15.522   6.890 -0.1575  0.2927 -0.1838
 1033YOPC   C2B14886   7.712  15.904   7.091  0.1433  0.1596  0.0544
 1033YOPC   D3B14887   7.276  16.106   7.071 -0.0185 -0.2922 -0.0861
 1033YOPC   C4B14888   7.106  16.494   6.934 -0.2007 -0.2384 -0.1683
 1034YOPC   NC314889   8.722   1.452   5.333 -0.2015 -0.1534 -0.0802
 1034YOPC   PO414890   8.688   1.530   5.769 -0.1862 -0.1538 -0.0979
 1034YOPC   GL114891   8.649   1.654   6.279  0.1227 -0.1812 -0.0885
 1034YOPC   GL214892   8.404   1.985   6.363  0.2750  0.0976  0.3902
 1034YOPC   C1A14893   8.647   1.419   6.682 -0.2855  0.1577  0.1113
 1034YOPC   D2A14894   8.849   1.432   6.950 -0.1777  0.1354  0.0030
 1034YOPC   C3A14895   9.016   1.271   7.335 -0.2059 -0.0113 -0.0042
 1034YOPC   C4A14896   9.152   0.919   7.496  0.3660  0.2972  0.0364
 1034YOPC   C1B14897   8.304   1.905   6.714 -0.1334 -0.0039 -0.2724
 1034YOPC   C2B14898   8.161   1.536   6.910  0.0343 -0.0328 -0.1113
 1034YOPC   D3B14899   8.334   1.193   7.026  0.2111  0.1834 -0.1931
 1034YOPC   C4B14900   8.489   1.030   7.414  0.0370 -0.2507 -0.1721
 1035YOPC   NC314901   3.904   8.435   5.940 -0.0466 -0.0294  0.3283
 1035YOPC   PO414902   3.764   8.743   6.151 -0.3022  0.1390  0.0050
 1035YOPC   GL114903   3.840   8.902   6.573 -0.0023  0.0212  0.2692
 1035YOPC   GL214904   3.732   8.700   6.767 -0.1193  0.0598  0.2128
 1035YOPC   C1A14905   3.826   9.084   7.032  0.1748 -0.1923 -0.0332
 1035YOPC   D2A14906   3.616   9.261   7.402 -0.3134  0.0350  0.2063
 1035YOPC   C3A14907   3.559   9.681   7.606 -0.0092  0.4643  0.0066
 1035YOPC   C4A14908   3.404   9.740   7.908 -0.1050 -0.0603 -0.2509
 1035YOPC   C1B14909   3.894   8.654   7.168  0.1517 -0.1383 -0.1523
 1035YOPC   C2B14910   4.056   8.515   7.482  0.0846 -0.2274  0.2821
 1035YOPC   D3B14911   4.152   8.650   7.831  0.2392  0.0470 -0.1963
 1035YOPC   C4B14912   4.037   9.035   8.059 -0.1679  0.2794  0.4438
 1036YOPC   NC314913   8.426   6.048   5.843 -0.0241 -0.0681  0.1625
 1036YOPC   PO414914   8.477   6.381   6.149  0.0372 -0.1664 -0.1138
 1036YOPC   GL114915   8.585   6.097   6.510 -0.1234  0.1527 -0.2463
 1036YOPC   GL214916   8.398   6.115   6.671 -0.2540  0.1013  0.0312
 1036YOPC   C1A14917   8.994   5.990   6.641 -0.0282 -0.0133 -0.0548
 1036YOPC   D2A14918   9.176   5.978   7.020 -0.1673 -0.2755  0.1349
 1036YOPC   C3A14919   9.182   6.099   7.404  0.0910 -0.1228 -0.0466
 1036YOPC   C4A14920   9.269   6.166   7.745 -0.2051 -0.2189 -0.0869
 1036YOPC   C1B14921   8.225   5.767   6.655  0.2408 -0.0079  0.3041
 1036YOPC   C2B14922   8.292   5.433   6.825  0.2524  0.0965 -0.1038
 1036YOPC   D3B14923   8.527   5.137   6.776 -0.1209 -0.1210 -0.1732
 1036YOPC   C4B14924   8.499   4.740   7.023  0.3413  0.1215  0.3519
 1037YOPC   NC314925   8.783   8.451   6.156  0.2013 -0.0491  0.3039
 1037YOPC   PO414926   9.192   8.177   5.940 -0.0578  0.3308 -0.0548
 1037YOPC   GL114927   9.076   8.133   6.416  0.0531 -0.0773 -0.1176
 1037YOPC   GL214928   9.151   8.418   6.586 -0.1319 -0.0437  0.0323
 1037YOPC   C1A14929   8.983   8.003   6.766  0.1494  0.1974 -0.0155
 1037YOPC   D2A14930   8.924   7.882   7.152  0.0101 -0.1250 -0.1300
 1037YOPC   C3A14931   8.616   7.626   7.195  0.0628 -0.1052 -0.2671
 1037YOPC   C4A14932   8.289   7.429   7.089 -0.0412 -0.0839  0.0214
 1037YOPC   C1B14933   9.428   8.717   6.777  0.1542  0.1095 -0.2874
 1037YOPC   C2B14934   9.463   9.141   6.985  0.1274 -0.0526 -0.0475
 1037YOPC   D3B14935   9.609   9.131   7.441 -0.1305 -0.0236  0.1198
 1037YOPC   C4B14936   9.731   8.810   7.835 -0.2363  0.1528  0.1600
 1038YOPC   NC314937  16.091  15.184   6.076 -0.2926  0.0316 -0.1155
 1038YOPC   PO414938  16.464  15.512   6.329  0.0885  0.2070  0.0157
 1038YOPC   GL114939  16.456  15.452   6.740 -0.3950  0.2584  0.0939
 1038YOPC   GL214940  16.595  15.262   6.926  0.4154  0.0853 -0.2189
 1038YOPC   C1A14941  16.191  15.578   7.033 -0.1534  0.1750 -0.0109
 1038YOPC   D2A14942  16.054  15.538   7.421 -0.3783  0.3325 -0.3344
 1038YOPC   C3A14943  15.687  15.823   7.481  0.0296  0.1500  0.2069
 1038YOPC   C4A14944  15.373  15.927   7.459 -0.1732 -0.0108  0.1235
 1038YOPC   C1B14945  16.528  15.237   7.354  0.0628  0.1444  0.0785
 1038YOPC   C2B14946  16.489  14.861   7.589  0.2779  0.0539 -0.2911
 1038YOPC   D3B14947  16.303  14.536   7.799  0.0028 -0.0350  0.4708
 1038YOPC   C4B14948  16.153  14.425   8.259  0.0184  0.2528  0.4210
 1039YOPC   NC314949   8.860  11.378   5.614  0.3490 -0.1440  0.0007
 1039YOPC   PO414950   8.639  11.339   6.061 -0.0170  0.1993 -0.3945
 1039YOPC   GL114951   8.693  11.558   6.437 -0.1413 -0.1711  0.0996
 1039YOPC   GL214952   8.910  11.724   6.502 -0.0243 -0.0174 -0.2297
 1039YOPC   C1A14953   8.437  11.571   6.759 -0.1328 -0.3173 -0.2433
 1039YOPC   D2A14954   8.266  11.635   7.093  0.1757 -0.0925 -0.3306
 1039YOPC   C3A14955   8.239  11.822   7.585  0.1208  0.2653 -0.0688
 1039YOPC   C4A14956   8.383  11.525   7.807 -0.1243 -0.0037 -0.1450
 1039YOPC   C1B14957   9.034  11.677   6.938 -0.0473  0.1266  0.3708
 1039YOPC   C2B14958   9.236  11.619   7.306  0.0698 -0.2075  0.0763
 1039YOPC   D3B14959   9.372  11.193   7.470 -0.4080  0.2686 -0.1901
 1039YOPC   C4B14960   9.222  11.009   7.854 -0.2476  0.3319 -0.0526
 1040YOPC   NC314961  12.737  12.242   5.822  0.2531  0.2477 -0.3474
 1040YOPC   PO414962  12.637  12.659   5.803 -0.1014 -0.1054 -0.0564
 1040YOPC   GL114963  12.750  12.737   6.176 -0.0689  0.0688  0.2526
 1040YOPC   GL214964  12.754  13.021   6.222 -0.1102 -0.1577 -0.4174
 1040YOPC   C1A14965  13.081  12.842   6.557  0.0512  0.3218  0.3814
 1040YOPC   D2A14966  13.179  13.129   6.803  0.0629 -0.0495  0.0949
 1040YOPC   C3A14967  13.282  12.955   7.155  0.1071  0.0234 -0.0208
 1040YOPC   C4A14968  13.345  12.871   7.537  0.0461 -0.1766  0.0342
 1040YOPC   C1B14969  12.711  13.180   6.623 -0.2022  0.1966 -0.1444
 1040YOPC   C2B14970  12.542  13.587   6.890  0.0703  0.0864 -0.0680
 1040YOPC   D3B14971  12.579  13.684   7.353 -0.2266 -0.0204 -0.1933
 1040YOPC   C4B14972  12.204  13.566   7.531  0.1316 -0.1245  0.3152
 1041YOPC   NC314973   0.712  13.874   5.787  0.3722  0.1370  0.2121
 1041YOPC   PO414974   1.114  13.772   5.892 -0.3384  0.0203 -0.1210
 1041YOPC   GL114975   1.148  13.400   6.203 -0.2077 -0.4596  0.0686
 1041YOPC   GL214976   1.420  13.384   6.418  0.0896 -0.1606  0.0584
 1041YOPC   C1A14977   1.047  13.104   6.572 -0.0887 -0.2676 -0.2670
 1041YOPC   D2A14978   0.954  13.175   7.013 -0.0154  0.1759 -0.0022
 1041YOPC   C3A14979   0.546  13.022   7.273  0.3643  0.0092  0.2412
 1041YOPC   C4A14980   0.405  13.023   7.665  0.0306  0.0714 -0.0511
 1041YOPC   C1B14981   1.311  13.536   6.904 -0.0992  0.1145  0.3205
 1041YOPC   C2B14982   1.252  13.550   7.288 -0.0577  0.0056  0.1240
 1041YOPC   D3B14983   0.988  13.579   7.551  0.1328  0.2744  0.3048
 1041YOPC   C4B14984   0.738  13.362   7.799  0.2083  0.0086 -0.1054
 1042YOPC   NC314985  13.170  17.504   5.406  0.0766 -0.0260  0.1096
 1042YOPC   PO414986  13.466  17.552   5.714  0.2853 -0.1226 -0.1054
 1042YOPC   GL114987  13.824  17.563   6.059 -0.0350 -0.0915  0.1242
 1042YOPC   GL214988  14.016  17.206   6.102 -0.1171  0.0902  0.1938
 1042YOPC   C1A14989  13.827  17.590   6.438 -0.2383 -0.1664 -0.1537
 1042YOPC   D2A14990  13.495  17.555   6.773  0.4253  0.3637 -0.0765
 1042YOPC   C3A14991  13.757  17.767   7.101 -0.0188  0.5169 -0.0717
 1042YOPC   C4A14992  13.793  17.658   7.573 -0.2522  0.3358 -0.1097
 1042YOPC   C1B14993  14.341  16.891   6.268 -0.1329 -0.2832  0.2839
 1042YOPC   C2B14994  14.680  16.861   6.574 -0.0448  0.3772 -0.1483
 1042YOPC   D3B14995  14.800  17.194   6.773 -0.0078 -0.3362  0.2557
 1042YOPC   C4B14996  15.152  17.196   6.957 -0.1174 -0.1679  0.3774
 1043YOPC   NC314997   2.967  12.282   5.791 -0.1476 -0.2855 -0.0213
 1043YOPC   PO414998   2.690  12.482   6.067  0.1383 -0.3335 -0.0636
 1043YOPC   GL114999   2.598  12.614   6.472 -0.0242 -0.0170  0.0326
 1043YOPC   GL215000   2.725  12.811   6.521  0.2575 -0.1646  0.0771
 1043YOPC   C1A15001   2.382  12.751   6.820 -0.1334 -0.0305 -0.1029
 1043YOPC   D2A15002   2.292  12.954   7.175  0.0639  0.0168  0.0534
 1043YOPC   C3A15003   2.300  12.833   7.569  0.0018  0.0872  0.0306
 1043YOPC   C4A15004   2.014  12.903   7.879  0.0366  0.0765  0.0426
 1043YOPC   C1B15005   2.826  12.712   6.998  0.4693  0.0315  0.0044
 1043YOPC   C2B15006   2.595  12.548   7.259  0.0098 -0.0394  0.1038
 1043YOPC   D3B15007   2.647  12.467   7.679  0.0612 -0.0066 -0.0388
 1043YOPC   C4B15008   3.056  12.469   7.962  0.2581 -0.0894 -0.0258
 1044YOPC   NC315009  12.790  15.527   5.851 -0.2835 -0.0678  0.0905
 1044YOPC   PO415010  12.457  15.483   5.844  0.2463 -0.0098 -0.0808
 1044YOPC   GL115011  12.400  15.504   6.262 -0.2298  0.2798 -0.1086
 1044YOPC   GL215012  12.212  15.750   6.406 -0.0551  0.1061 -0.0930
 1044YOPC   C1A15013  12.239  15.362   6.673  0.0297  0.0641 -0.0604
 1044YOPC   D2A15014  12.189  15.173   7.097  0.3224 -0.0559  0.0541
 1044YOPC   C3A15015  12.363  15.425   7.433 -0.1109 -0.2726  0.0359
 1044YOPC   C4A15016  12.677  15.602   7.589  0.0525  0.0418  0.4198
 1044YOPC   C1B15017  12.262  15.829   6.885  0.1193  0.0958 -0.1113
 1044YOPC   C2B15018  12.338  15.961   7.301 -0.1111  0.2756 -0.1079
 1044YOPC   D3B15019  12.203  15.849   7.689 -0.0146  0.0790  0.2165
 1044YOPC   C4B15020  12.062  16.018   8.156 -0.2083  0.0693 -0.0391
 1045YOPC   NC315021  10.513   9.862   5.816 -0.4376 -0.2350  0.2398
 1045YOPC   PO415022  10.747   9.597   6.022  0.1126 -0.2071 -0.1754
 1045YOPC   GL115023  10.839   9.939   6.324 -0.3440 -0.2253  0.2320
 1045YOPC   GL215024  11.100   9.847   6.483  0.2165  0.0404  0.0032
 1045YOPC   C1A15025  10.729   9.984   6.856 -0.2593  0.0385  0.1570
 1045YOPC   D2A15026  10.785  10.092   7.272  0.0108  0.0332  0.0972
 1045YOPC   C3A15027  10.882  10.114   7.707 -0.0297 -0.1928 -0.0911
 1045YOPC   C4A15028  11.302  10.221   7.777  0.1287 -0.2033 -0.0424
 1045YOPC   C1B15029  11.176   9.868   6.949  0.2279  0.0845  0.1076
 1045YOPC   C2B15030  11.301  10.054   7.296  0.0648  0.0824  0.0592
 1045YOPC   D3B15031  11.323   9.739   7.632  0.1918  0.1616  0.0294
 1045YOPC   C4B15032  11.253   9.357   7.914  0.1718  0.1890  0.0059
 1046YOPC   NC315033  17.869  11.460   5.905  0.0290  0.0951 -0.1242
 1046YOPC   PO415034  18.334  11.650   5.911  0.4209 -0.1918  0.0938
 1046YOPC   GL115035  18.268  11.820   6.313  0.1165  0.2728  0.1539
 1046YOPC   GL215036  17.978  12.046   6.387  0.0443  0.2298 -0.1336
 1046YOPC   C1A15037  18.185  11.619   6.700  0.0455  0.1693  0.2062
 1046YOPC   D2A15038  18.150  11.533   7.025  0.0496  0.1020 -0.1279
 1046YOPC   C3A15039  18.141  11.726   7.471  0.0364  0.1642  0.3010
 1046YOPC   C4A15040  17.853  11.627   7.813 -0.1029 -0.0998  0.2247
 1046YOPC   C1B15041  17.865  12.017   6.764 -0.5243 -0.1022  0.3309
 1046YOPC   C2B15042  17.935  12.044   7.203  0.0762 -0.2173 -0.2795
 1046YOPC   D3B15043  18.030  12.213   7.566  0.1515 -0.4255 -0.2082
 1046YOPC   C4B15044  18.242  12.662   7.567 -0.1389 -0.1238 -0.0855
 1047YOPC   NC315045   4.908   0.423   6.278  0.0153  0.0718  0.0932
 1047YOPC   PO415046   5.145   0.797   6.199 -0.0338  0.1370 -0.2250
 1047YOPC   GL115047   5.284   0.768   6.570  0.0734 -0.0010 -0.1462
 1047YOPC   GL215048   5.181   0.437   6.818  0.0814  0.1285  0.0417
 1047YOPC   C1A15049   5.405   0.880   6.954  0.4056 -0.0221  0.0076
 1047YOPC   D2A15050   5.311   0.777   7.363  0.1728  0.1048  0.0882
 1047YOPC   C3A15051   5.610   0.829   7.717 -0.2668  0.1075 -0.0014
 1047YOPC   C4A15052   5.800   1.070   7.968 -0.2394  0.3613 -0.0766
 1047YOPC   C1B15053   5.140   0.219   7.099 -0.0071  0.3715 -0.1151
 1047YOPC   C2B15054   5.190   0.206   7.569  0.1078 -0.1946 -0.2428
 1047YOPC   D3B15055   5.501   0.335   7.938  0.0206 -0.2475 -0.2517
 1047YOPC   C4B15056   5.846   0.422   8.064  0.0048  0.2402  0.0083
 1048YOPC   NC315057  10.745   3.759   4.777  0.0810  0.0859  0.2528
 1048YOPC   PO415058  10.909   3.456   5.138  0.0837  0.1203  0.0281
 1048YOPC   GL115059  10.740   3.480   5.618 -0.0010  0.3475 -0.1984
 1048YOPC   GL215060  11.049   3.407   5.800 -0.0524  0.0566  0.3359
 1048YOPC   C1A15061  10.653   3.178   5.936 -0.0221 -0.0199  0.0235
 1048YOPC   D2A15062  10.713   2.782   6.216 -0.1774 -0.0369 -0.0460
 1048YOPC   C3A15063  10.554   2.753   6.594 -0.1222 -0.3348  0.1186
 1048YOPC   C4A15064  10.768   2.542   6.938  0.2593 -0.2399 -0.0751
 1048YOPC   C1B15065  10.967   3.400   6.229  0.0731 -0.4130 -0.1039
 1048YOPC   C2B15066  10.820   3.156   6.548  0.0152  0.3387 -0.0229
 1048YOPC   D3B15067  10.958   3.063   6.934 -0.1508 -0.1568 -0.0283
 1048YOPC   C4B15068  11.184   2.727   7.121  0.2212  0.2879  0.2410
 1049YOPC   NC315069  16.821  13.597   6.333  0.0976 -0.0364  0.0927
 1049YOPC   PO415070  16.392  13.668   6.240 -0.1431 -0.1641 -0.1539
 1049YOPC   GL115071  16.340  13.337   6.595  0.2230  0.0298 -0.0093
 1049YOPC   GL215072  16.108  13.445   6.727  0.4393 -0.1536 -0.1650
 1049YOPC   C1A15073  16.631  13.265   6.987  0.1060  0.2755  0.1940
 1049YOPC   D2A15074  16.466  13.090   7.349 -0.2226 -0.1789  0.1793
 1049YOPC   C3A15075  16.674  12.818   7.546  0.0310 -0.0557  0.0803
 1049YOPC   C4A15076  17.012  12.446   7.422  0.3171 -0.0130 -0.2772
 1049YOPC   C1B15077  16.191  13.433   7.111  0.0509  0.0054  0.1625
 1049YOPC   C2B15078  16.303  13.542   7.522  0.0678  0.0483  0.0011
 1049YOPC   D3B15079  16.714  13.573   7.674  0.2394  0.0347 -0.3315
 1049YOPC   C4B15080  17.059  13.509   7.949  0.2016 -0.1198 -0.2415
 1050YOPC   NC315081  16.521   9.549   5.448  0.3990  0.2327 -0.0315
 1050YOPC   PO415082  16.851   9.635   5.669 -0.0151 -0.0090  0.0241
 1050YOPC   GL115083  16.759   9.383   6.103 -0.2084 -0.0949 -0.0389
 1050YOPC   GL215084  16.984   9.247   6.299  0.3507  0.1494  0.2012
 1050YOPC   C1A15085  16.510   9.418   6.504 -0.3031 -0.0888  0.1125
 1050YOPC   D2A15086  16.582   9.422   6.993  0.0643  0.1345  0.1219
 1050YOPC   C3A15087  16.474   9.190   7.421 -0.0120  0.1197 -0.0548
 1050YOPC   C4A15088  16.302   8.868   7.479  0.3863  0.2902 -0.3095
 1050YOPC   C1B15089  16.993   9.479   6.663  0.1681  0.0801 -0.0262
 1050YOPC   C2B15090  17.171   9.406   7.068  0.0006 -0.0725 -0.2014
 1050YOPC   D3B15091  17.292   9.635   7.270  0.0168  0.2635 -0.0308
 1050YOPC   C4B15092  17.375  10.003   7.621  0.0319  0.0411 -0.1539
 1051YOPC   NC315093   1.035   9.614   6.039  0.0829  0.2051  0.2893
 1051YOPC   PO415094   1.299   9.188   5.968 -0.0997  0.1479  0.2518
 1051YOPC   GL115095   1.128   9.167   6.315 -0.2911  0.0756 -0.0887
 1051YOPC   GL215096   1.138   8.871   6.357  0.2806 -0.5096  0.0847
 1051YOPC   C1A15097   1.207   9.444   6.630 -0.3139  0.1942  0.0722
 1051YOPC   D2A15098   1.376   9.662   7.046 -0.3350  0.0541 -0.4430
 1051YOPC   C3A15099   1.765   9.595   7.174 -0.2072 -0.2580  0.2440
 1051YOPC   C4A15100   1.940   9.771   7.574  0.2658  0.0734  0.0548
 1051YOPC   C1B15101   1.303   8.927   6.732 -0.1576  0.0501  0.0662
 1051YOPC   C2B15102   1.323   8.681   7.231 -0.0195  0.3107  0.4024
 1051YOPC   D3B15103   1.368   8.635   7.697 -0.1588 -0.0034 -0.3130
 1051YOPC   C4B15104   1.510   8.632   8.168 -0.3023  0.1092 -0.1102
 1052YOPC   NC315105   7.202   8.823   5.627  0.2379 -0.0108 -0.1223
 1052YOPC   PO415106   7.613   9.053   5.803 -0.0974 -0.3999  0.1862
 1052YOPC   GL115107   7.839   8.859   6.201 -0.1297 -0.2892 -0.1485
 1052YOPC   GL215108   8.083   8.956   6.472  0.1200  0.2228  0.0234
 1052YOPC   C1A15109   7.721   8.666   6.527  0.0618  0.0995  0.0230
 1052YOPC   D2A15110   7.608   8.718   6.935 -0.1256 -0.0125  0.0743
 1052YOPC   C3A15111   7.306   8.923   6.930 -0.2214 -0.1431  0.0458
 1052YOPC   C4A15112   7.303   9.281   6.681 -0.0449  0.2659  0.1733
 1052YOPC   C1B15113   8.035   9.113   6.916  0.0953 -0.2773 -0.2056
 1052YOPC   C2B15114   8.056   9.103   7.360 -0.0491  0.2910  0.1251
 1052YOPC   D3B15115   8.288   8.819   7.587  0.1660 -0.0511  0.0380
 1052YOPC   C4B15116   8.279   8.436   7.671  0.0481 -0.0493 -0.3103
 1053YOPC   NC315117   0.223   7.236   5.888  0.2436  0.0907  0.0078
 1053YOPC   PO415118   0.204   7.024   6.221  0.0511 -0.0120 -0.2518
 1053YOPC   GL115119   0.471   7.214   6.553 -0.0141 -0.1349  0.1534
 1053YOPC   GL215120   0.663   6.865   6.642  0.1738 -0.2978  0.2766
 1053YOPC   C1A15121   0.549   7.243   6.998  0.0447 -0.1464 -0.1917
 1053YOPC   D2A15122   0.569   7.103   7.415 -0.1302  0.0863  0.1350
 1053YOPC   C3A15123   0.457   7.250   7.868  0.0232  0.0899  0.0222
 1053YOPC   C4A15124   0.380   7.589   8.174  0.2203  0.1261 -0.2792
 1053YOPC   C1B15125   0.792   6.657   7.085 -0.0972 -0.1133 -0.2977
 1053YOPC   C2B15126   0.837   6.551   7.528 -0.2225  0.0464 -0.1216
 1053YOPC   D3B15127   0.538   6.763   7.835  0.2711 -0.0894 -0.0009
 1053YOPC   C4B15128   0.114   6.699   7.963  0.4009 -0.1099  0.0107
 1054YOPC   NC315129  15.600  15.682   6.042  0.0991 -0.3733  0.0082
 1054YOPC   PO415130  15.595  15.252   6.074 -0.3527  0.4943  0.4954
 1054YOPC   GL115131  15.289  15.269   6.334  0.3189  0.2013 -0.4030
 1054YOPC   GL215132  14.946  15.213   6.325 -0.2785  0.2273 -0.0326
 1054YOPC   C1A15133  15.235  15.319   6.697 -0.0058  0.1606  0.3315
 1054YOPC   D2A15134  15.255  15.670   7.010 -0.0648 -0.1387  0.0964
 1054YOPC   C3A15135  15.273  15.429   7.429  0.3116  0.0030 -0.1323
 1054YOPC   C4A15136  15.527  15.383   7.714  0.1757  0.1869 -0.1944
 1054YOPC   C1B15137  14.685  15.154   6.699 -0.2631 -0.2444 -0.0785
 1054YOPC   C2B15138  14.409  14.944   7.044  0.0738  0.0824 -0.3959
 1054YOPC   D3B15139  14.453  15.105   7.494 -0.1275  0.1881 -0.0781
 1054YOPC   C4B15140  14.654  14.962   7.915  0.1035 -0.1115 -0.2485
 1055YOPC   NC315141   8.787  14.556   5.885 -0.0394 -0.0819  0.1994
 1055YOPC   PO415142   8.601  14.257   6.219  0.0687  0.0810 -0.3342
 1055YOPC   GL115143   8.854  14.389   6.541  0.0566  0.0940 -0.2874
 1055YOPC   GL215144   8.622  14.299   6.836 -0.0533  0.0515 -0.0922
 1055YOPC   C1A15145   9.255  14.496   6.827  0.2855 -0.0886 -0.2209
 1055YOPC   D2A15146   9.431  14.700   7.210 -0.2043  0.0162 -0.0288
 1055YOPC   C3A15147   9.593  14.991   7.155 -0.0087  0.1214  0.0644
 1055YOPC   C4A15148   9.889  15.181   6.992 -0.2749 -0.4807  0.1444
 1055YOPC   C1B15149   8.997  14.220   7.079  0.1878  0.1449 -0.2001
 1055YOPC   C2B15150   9.393  14.228   7.324  0.1204  0.2837 -0.0846
 1055YOPC   D3B15151   9.502  13.871   7.608 -0.0032  0.0829  0.3436
 1055YOPC   C4B15152   9.728  13.821   7.936  0.4146 -0.3212  0.0535
 1056YOPC   NC315153  17.748   0.370   6.072  0.3935  0.0607  0.0789
 1056YOPC   PO415154  17.310   0.261   5.985 -0.1867 -0.2921  0.1181
 1056YOPC   GL115155  16.967   0.166   6.276  0.0263  0.0268 -0.6332
 1056YOPC   GL215156  16.599   0.186   6.465  0.2093 -0.2766  0.0956
 1056YOPC   C1A15157  16.983  -0.035   6.660 -0.1946 -0.3322 -0.3163
 1056YOPC   D2A15158  17.037  -0.440   6.506 -0.0549 -0.1363 -0.0267
 1056YOPC   C3A15159  16.924  -0.741   6.790  0.1567  0.3587 -0.0580
 1056YOPC   C4A15160  16.621  -0.727   6.968  0.0179  0.1055  0.5209
 1056YOPC   C1B15161  16.413   0.163   6.878  0.0489  0.2862  0.1701
 1056YOPC   C2B15162  16.146   0.117   7.216 -0.1864  0.0542  0.0116
 1056YOPC   D3B15163  15.956  -0.334   7.459  0.1328  0.0262 -0.2337
 1056YOPC   C4B15164  15.795  -0.304   7.874  0.0755 -0.1672 -0.1473
 1057YOPC   NC315165   7.017   7.893   5.464  0.2924 -0.0389  0.0752
 1057YOPC   PO415166   7.036   8.372   5.705 -0.0623 -0.3802 -0.1241
 1057YOPC   GL115167   7.007   8.253   6.075 -0.1197  0.4427  0.1196
 1057YOPC   GL215168   7.044   7.961   6.092  0.2843  0.2640 -0.0965
 1057YOPC   C1A15169   6.605   8.129   6.345  0.1645 -0.1128 -0.2497
 1057YOPC   D2A15170   6.249   7.921   6.330 -0.0336 -0.4200 -0.2217
 1057YOPC   C3A15171   6.240   7.800   6.735  0.4137 -0.0235 -0.2470
 1057YOPC   C4A15172   6.125   7.328   6.938 -0.3149 -0.2576 -0.2335
 1057YOPC   C1B15173   6.748   7.651   6.252  0.2536  0.1163  0.1186
 1057YOPC   C2B15174   6.431   7.466   6.397 -0.1154  0.0236  0.2227
 1057YOPC   D3B15175   6.410   7.039   6.620  0.1005 -0.0217  0.0705
 1057YOPC   C4B15176   6.185   6.693   6.788  0.0833 -0.2165 -0.3676
 1058YOPC   NC315177   3.479   7.680   6.150 -0.0513  0.1747 -0.2155
 1058YOPC   PO415178   3.531   8.094   5.935 -0.0220 -0.0057  0.0539
 1058YOPC   GL115179   3.293   8.119   6.315 -0.0755 -0.6180 -0.0999
 1058YOPC   GL215180   3.514   8.263   6.426  0.0204  0.0756 -0.1648
 1058YOPC   C1A15181   3.122   7.944   6.754  0.1602  0.3369  0.0180
 1058YOPC   D2A15182   2.858   7.919   7.142  0.0715 -0.2369 -0.0460
 1058YOPC   C3A15183   2.937   8.150   7.593 -0.0943  0.1774  0.1458
 1058YOPC   C4A15184   2.879   8.142   8.065  0.1356 -0.2152 -0.0094
 1058YOPC   C1B15185   3.768   8.188   6.725 -0.3156  0.2422 -0.1311
 1058YOPC   C2B15186   3.923   7.978   7.147  0.1255  0.0688 -0.0666
 1058YOPC   D3B15187   4.088   8.034   7.547 -0.0476 -0.1615  0.0191
 1058YOPC   C4B15188   4.436   8.093   7.678 -0.0628 -0.2509  0.0506
 1059YOPC   NC315189  14.355  11.585   5.666 -0.0800 -0.1125  0.1568
 1059YOPC   PO415190  13.899  11.753   5.688 -0.0403  0.2012 -0.2219
 1059YOPC   GL115191  13.969  11.686   6.112  0.1635  0.1131  0.0948
 1059YOPC   GL215192  14.203  11.476   6.208  0.1451 -0.1561  0.0465
 1059YOPC   C1A15193  13.711  11.718   6.495  0.0354  0.0277 -0.1708
 1059YOPC   D2A15194  13.326  11.735   6.552 -0.0582  0.3181 -0.0020
 1059YOPC   C3A15195  13.111  11.771   6.943  0.0627  0.0815 -0.0118
 1059YOPC   C4A15196  12.807  11.941   7.332 -0.2872 -0.0750  0.1991
 1059YOPC   C1B15197  14.101  11.313   6.611 -0.1973  0.1491  0.0884
 1059YOPC   C2B15198  14.368  10.957   6.887 -0.2931 -0.0815  0.0396
 1059YOPC   D3B15199  14.389  10.988   7.319 -0.1677 -0.1169 -0.2732
 1059YOPC   C4B15200  14.413  11.061   7.763 -0.1559  0.1406  0.0233
 1060YOPC   NC315201   5.407   3.724   6.013  0.0438  0.3241 -0.0481
 1060YOPC   PO415202   5.163   4.106   5.970  0.0687  0.0409 -0.0441
 1060YOPC   GL115203   5.174   4.151   6.382  0.0284 -0.0577 -0.0083
 1060YOPC   GL215204   5.088   4.482   6.471  0.0678  0.1296 -0.1316
 1060YOPC   C1A15205   5.388   4.083   6.775  0.1596 -0.0658 -0.1551
 1060YOPC   D2A15206   5.555   4.238   7.234 -0.3053  0.1847 -0.0293
 1060YOPC   C3A15207   5.669   4.347   7.573 -0.1654  0.1100 -0.3215
 1060YOPC   C4A15208   5.642   4.547   7.990 -0.0234  0.2598 -0.0258
 1060YOPC   C1B15209   5.060   4.537   6.896  0.2996 -0.1679  0.1799
 1060YOPC   C2B15210   5.239   4.645   7.242 -0.0842 -0.1813 -0.1178
 1060YOPC   D3B15211   5.637   4.750   7.167 -0.1602  0.1325 -0.0191
 1060YOPC   C4B15212   6.001   4.546   7.098  0.3547 -0.0778 -0.2496
 1061YOPC   NC315213  10.550   7.672   5.555  0.1079 -0.0354  0.1153
 1061YOPC   PO415214  10.673   7.591   6.013 -0.1715 -0.0188  0.2206
 1061YOPC   GL115215  10.539   7.510   6.492  0.0683  0.0744  0.2629
 1061YOPC   GL215216  10.364   7.284   6.517  0.0480  0.1773  0.0054
 1061YOPC   C1A15217  10.478   7.532   6.982  0.0103 -0.1161  0.0630
 1061YOPC   D2A15218  10.732   7.186   7.234  0.1254 -0.1762  0.3446
 1061YOPC   C3A15219  11.091   7.344   7.489  0.3586  0.2598  0.2313
 1061YOPC   C4A15220  11.387   7.223   7.640  0.4207 -0.1065 -0.0582
 1061YOPC   C1B15221  10.569   7.002   6.675 -0.3832  0.2233 -0.1556
 1061YOPC   C2B15222  10.782   6.716   6.826  0.0282 -0.1022  0.0132
 1061YOPC   D3B15223  10.838   6.647   7.271 -0.1075  0.0637  0.0441
 1061YOPC   C4B15224  10.948   6.800   7.681  0.3291 -0.0353  0.2607
 1062YOPC   NC315225  11.678   1.325   5.712  0.0528  0.0215  0.1917
 1062YOPC   PO415226  12.123   1.265   5.725 -0.1672  0.1331  0.0764
 1062YOPC   GL115227  12.017   1.578   5.977  0.1802  0.0572 -0.0435
 1062YOPC   GL215228  12.094   1.917   6.026 -0.0561  0.0584  0.1150
 1062YOPC   C1A15229  11.670   1.677   6.265 -0.0541  0.0929 -0.4383
 1062YOPC   D2A15230  11.647   1.601   6.683  0.1435 -0.1286 -0.0839
 1062YOPC   C3A15231  11.630   1.282   6.983  0.2192 -0.2706 -0.3991
 1062YOPC   C4A15232  11.755   1.265   7.474  0.1271 -0.2124  0.0373
 1062YOPC   C1B15233  11.893   2.107   6.339  0.1630 -0.1217 -0.2448
 1062YOPC   C2B15234  12.106   2.383   6.486  0.1381 -0.1075 -0.1584
 1062YOPC   D3B15235  12.061   2.425   6.869 -0.1814 -0.0487 -0.2193
 1062YOPC   C4B15236  11.873   2.674   7.170  0.1860  0.1185  0.1830
 1063YOPC   NC315237   1.437  10.992   5.558 -0.2316  0.1053 -0.0677
 1063YOPC   PO415238   1.509  11.004   6.021 -0.1340  0.4076  0.3639
 1063YOPC   GL115239   1.261  11.080   6.328  0.0498  0.0752 -0.1322
 1063YOPC   GL215240   0.974  10.989   6.191 -0.0135  0.0639  0.0494
 1063YOPC   C1A15241   1.089  11.299   6.612 -0.1986  0.2308 -0.2495
 1063YOPC   D2A15242   0.801  11.238   6.981  0.0619  0.0035  0.3021
 1063YOPC   C3A15243   0.862  11.003   7.320 -0.2951  0.1656 -0.0850
 1063YOPC   C4A15244   1.008  10.692   7.776 -0.1147  0.3577 -0.1095
 1063YOPC   C1B15245   0.691  10.954   6.550 -0.0943 -0.0511  0.0131
 1063YOPC   C2B15246   0.606  10.683   6.922 -0.3114  0.2053 -0.3436
 1063YOPC   D3B15247   0.384  10.821   7.296  0.0285 -0.2961 -0.2195
 1063YOPC   C4B15248   0.074  10.639   7.533  0.1415 -0.2468 -0.2119
 1064YOPC   NC315249   4.521  14.090   6.272  0.3342  0.1094 -0.4514
 1064YOPC   PO415250   4.260  13.920   6.568  0.0033  0.3677 -0.2629
 1064YOPC   GL115251   4.201  14.018   7.050  0.3135  0.1214 -0.1758
 1064YOPC   GL215252   4.159  14.373   7.137  0.0471 -0.0803 -0.1325
 1064YOPC   C1A15253   3.949  13.930   7.316  0.1176 -0.2188 -0.2401
 1064YOPC   D2A15254   3.973  14.278   7.719 -0.2116  0.0432 -0.2022
 1064YOPC   C3A15255   4.148  14.714   7.644  0.2358  0.0406 -0.2744
 1064YOPC   C4A15256   4.336  14.781   7.351  0.0662  0.1027 -0.0006
 1064YOPC   C1B15257   3.729  14.476   7.239  0.0833 -0.0320 -0.1461
 1064YOPC   C2B15258   3.603  14.705   7.521  0.0830 -0.0687  0.2229
 1064YOPC   D3B15259   3.622  14.760   7.897 -0.1191  0.0709 -0.1106
 1064YOPC   C4B15260   4.012  14.700   8.138  0.0097 -0.0579  0.2754
 1065YOPC   NC315261  16.824  16.827   5.986  0.0138 -0.2158 -0.4933
 1065YOPC   PO415262  17.178  16.658   6.068  0.1357  0.0483 -0.0448
 1065YOPC   GL115263  17.325  16.748   6.501  0.0388  0.1893 -0.4139
 1065YOPC   GL215264  17.574  16.852   6.445  0.1060 -0.0464  0.1431
 1065YOPC   C1A15265  17.279  16.556   6.910  0.0652  0.3006  0.1304
 1065YOPC   D2A15266  17.086  16.588   7.320  0.0129  0.1628 -0.0175
 1065YOPC   C3A15267  16.793  16.358   7.515 -0.0601 -0.0178 -0.1720
 1065YOPC   C4A15268  16.468  16.504   7.835  0.0676  0.2331  0.0447
 1065YOPC   C1B15269  17.531  17.146   6.788  0.3881  0.1579  0.0355
 1065YOPC   C2B15270  17.289  17.293   7.144  0.0425 -0.1938  0.1506
 1065YOPC   D3B15271  17.201  17.708   7.061  0.0336  0.0979 -0.0028
 1065YOPC   C4B15272  17.460  18.085   6.931 -0.0128  0.3779  0.0367
 1066YOPC   NC315273  12.246  17.184   5.569 -0.0670 -0.1620 -0.0127
 1066YOPC   PO415274  12.407  16.840   5.819 -0.2670 -0.1458 -0.0617
 1066YOPC   GL115275  12.509  17.097   6.137  0.1493  0.1836 -0.0216
 1066YOPC   GL215276  12.443  17.476   5.945 -0.1572  0.2722  0.2412
 1066YOPC   C1A15277  12.316  17.270   6.408 -0.2540 -0.4510 -0.1120
 1066YOPC   D2A15278  12.137  17.218   6.730 -0.3855 -0.0126 -0.0690
 1066YOPC   C3A15279  11.835  17.310   7.051  0.0950  0.0390  0.1642
 1066YOPC   C4A15280  11.643  17.467   7.375  0.3685 -0.3282  0.4078
 1066YOPC   C1B15281  12.573  17.698   6.286 -0.0699  0.1408  0.6636
 1066YOPC   C2B15282  12.497  17.653   6.708  0.1913 -0.3903  0.1340
 1066YOPC   D3B15283  12.275  17.905   7.049 -0.0990  0.3181 -0.1242
 1066YOPC   C4B15284  11.987  17.796   7.419  0.0198  0.2234 -0.0903
 1067YOPC   NC315285  11.230  10.748   5.964 -0.2433 -0.0383  0.0634
 1067YOPC   PO415286  11.548  10.495   6.113  0.1010  0.0126  0.1072
 1067YOPC   GL115287  11.465  10.745   6.407 -0.0154  0.3554  0.1236
 1067YOPC   GL215288  11.188  10.811   6.553 -0.0758 -0.3302 -0.2657
 1067YOPC   C1A15289  11.577  10.872   6.835  0.3366 -0.0746 -0.1594
 1067YOPC   D2A15290  11.649  10.758   7.299  0.2043 -0.3637  0.1927
 1067YOPC   C3A15291  11.427  10.993   7.624 -0.0033  0.2008  0.1287
 1067YOPC   C4A15292  11.312  11.080   8.034 -0.0783 -0.3149 -0.1842
 1067YOPC   C1B15293  10.912  10.933   6.915 -0.0502 -0.3508  0.0400
 1067YOPC   C2B15294  10.801  10.949   7.312  0.1598 -0.1409 -0.0519
 1067YOPC   D3B15295  10.916  11.146   7.696 -0.0123 -0.0250 -0.0371
 1067YOPC   C4B15296  10.977  11.465   8.029 -0.1068 -0.1478 -0.1025
 1068YOPC   NC315297   3.492  18.008   6.148  0.3658 -0.3849  0.3283
 1068YOPC   PO415298   3.870  18.165   6.253 -0.1066 -0.0389 -0.1336
 1068YOPC   GL115299   3.795  18.427   6.641  0.0047 -0.0244  0.3326
 1068YOPC   GL215300   3.573  18.231   6.702 -0.1853  0.0269  0.2394
 1068YOPC   C1A15301   3.599  18.697   6.876  0.1976 -0.0101  0.1870
 1068YOPC   D2A15302   3.329  18.930   7.081 -0.2181  0.0142  0.1993
 1068YOPC   C3A15303   3.355  18.983   7.577  0.1046 -0.1395  0.1134
 1068YOPC   C4A15304   3.270  19.283   7.932  0.0649 -0.3023 -0.0965
 1068YOPC   C1B15305   3.431  18.166   7.102 -0.1094  0.2980  0.0384
 1068YOPC   C2B15306   3.600  18.009   7.562 -0.1394 -0.0997 -0.0807
 1068YOPC   D3B15307   3.228  17.940   7.845 -0.4173 -0.1116  0.0412
 1068YOPC   C4B15308   2.932  17.665   7.961  0.1170  0.0749 -0.1433
 1069YOPC   NC315309   3.761  11.796   5.807  0.0804  0.0912 -0.2766
 1069YOPC   PO415310   3.705  11.588   6.260 -0.1177  0.2508 -0.4992
 1069YOPC   GL115311   3.592  11.398   6.685  0.1560  0.1306  0.0148
 1069YOPC   GL215312   3.852  11.437   6.871 -0.0770  0.0095 -0.1910
 1069YOPC   C1A15313   3.510  11.162   7.038 -0.1724  0.0637 -0.1654
 1069YOPC   D2A15314   3.158  11.368   7.186  0.2320  0.0889 -0.0389
 1069YOPC   C3A15315   3.028  11.758   6.969  0.1035 -0.0100  0.0281
 1069YOPC   C4A15316   2.904  12.244   6.938 -0.2780  0.1143  0.0602
 1069YOPC   C1B15317   3.616  11.667   7.145 -0.1698  0.2296 -0.1755
 1069YOPC   C2B15318   3.425  11.973   7.367  0.2382 -0.1148  0.2568
 1069YOPC   D3B15319   3.502  12.007   7.763  0.3338 -0.0144  0.3298
 1069YOPC   C4B15320   3.398  12.187   8.215  0.0278 -0.2024  0.0269
 1070YOPC   NC315321   8.194  16.168   6.387  0.0888 -0.0236  0.0731
 1070YOPC   PO415322   8.582  16.340   6.384  0.1207  0.0959 -0.0992
 1070YOPC   GL115323   8.594  16.581   6.674 -0.3461  0.1710 -0.1357
 1070YOPC   GL215324   8.337  16.686   6.687  0.1029  0.2631  0.1920
 1070YOPC   C1A15325   8.510  16.586   7.124 -0.0500  0.0394  0.0707
 1070YOPC   D2A15326   8.383  16.493   7.530  0.3120 -0.1952 -0.0884
 1070YOPC   C3A15327   8.750  16.399   7.729 -0.0193 -0.0135  0.3229
 1070YOPC   C4A15328   8.926  16.027   7.756  0.2324 -0.0090 -0.3497
 1070YOPC   C1B15329   8.083  16.843   7.009 -0.2584 -0.2421 -0.0676
 1070YOPC   C2B15330   7.820  16.967   7.301 -0.1548 -0.0676 -0.2159
 1070YOPC   D3B15331   7.681  16.863   7.637 -0.0682  0.1563  0.2693
 1070YOPC   C4B15332   7.793  16.778   8.116 -0.0192 -0.0095  0.0562
 1071YOPC   NC315333  13.754   0.662   5.721 -0.0482  0.3000 -0.0536
 1071YOPC   PO415334  14.057   1.020   5.743 -0.0403  0.2687  0.1634
 1071YOPC   GL115335  14.048   0.972   6.196  0.1572  0.0688 -0.0900
 1071YOPC   GL215336  14.388   1.056   6.135 -0.1713 -0.0570  0.2047
 1071YOPC   C1A15337  14.222   1.161   6.595  0.2073  0.2660  0.1820
 1071YOPC   D2A15338  14.386   1.329   6.878 -0.0232 -0.0611  0.1708
 1071YOPC   C3A15339  14.387   1.386   7.294 -0.4002  0.0570  0.1412
 1071YOPC   C4A15340  14.509   1.304   7.712 -0.2827  0.0587  0.0948
 1071YOPC   C1B15341  14.669   1.294   6.352  0.1281 -0.1321  0.1398
 1071YOPC   C2B15342  14.823   1.731   6.494  0.1473  0.2430 -0.0712
 1071YOPC   D3B15343  14.856   1.735   6.960 -0.0271  0.2222 -0.3553
 1071YOPC   C4B15344  14.865   1.681   7.433 -0.0186  0.0808  0.1866
 1072YOPC   NC315345   7.192   4.895   6.013  0.2029  0.1951  0.0795
 1072YOPC   PO415346   7.588   5.119   6.118 -0.0377  0.0885  0.0087
 1072YOPC   GL115347   7.531   5.019   6.471 -0.0958  0.3737  0.0737
 1072YOPC   GL215348   7.374   4.880   6.514 -0.2376  0.0458  0.3334
 1072YOPC   C1A15349   7.380   5.161   6.870 -0.1292 -0.0816  0.0173
 1072YOPC   D2A15350   7.230   5.370   7.239 -0.2539 -0.0174 -0.3357
 1072YOPC   C3A15351   7.230   5.837   7.297 -0.1857 -0.0276 -0.2439
 1072YOPC   C4A15352   6.869   6.069   7.487 -0.0644  0.0148  0.0293
 1072YOPC   C1B15353   7.058   4.674   6.829  0.0615 -0.0295  0.0116
 1072YOPC   C2B15354   7.037   4.277   6.937 -0.2458 -0.0477  0.0277
 1072YOPC   D3B15355   6.901   4.209   7.368 -0.0324  0.1879 -0.0021
 1072YOPC   C4B15356   6.796   3.954   7.744  0.3956  0.1003 -0.0834
 1073YOPC   NC315357   5.089   6.642   5.621  0.1153 -0.5383  0.1227
 1073YOPC   PO415358   5.024   6.510   6.125 -0.3130  0.0796  0.5254
 1073YOPC   GL115359   4.713   6.410   6.422  0.2737  0.1331 -0.3746
 1073YOPC   GL215360   4.493   6.712   6.424  0.2832 -0.1677  0.0441
 1073YOPC   C1A15361   4.569   6.488   6.858  0.1834 -0.0249  0.2748
 1073YOPC   D2A15362   4.269   6.401   7.147 -0.1630 -0.0709 -0.0342
 1073YOPC   C3A15363   4.326   6.438   7.582 -0.1613 -0.3476  0.2562
 1073YOPC   C4A15364   4.394   6.361   8.061  0.2661  0.4153 -0.2159
 1073YOPC   C1B15365   4.083   6.577   6.684 -0.0215  0.0341  0.0745
 1073YOPC   C2B15366   3.918   6.697   7.029 -0.1031 -0.1477  0.0261
 1073YOPC   D3B15367   3.811   6.530   7.424 -0.0678  0.2691  0.2786
 1073YOPC   C4B15368   3.918   6.347   7.789  0.1255 -0.3045  0.1487
 1074YOPC   NC315369  16.542  15.945   6.132 -0.1406 -0.2705 -0.2366
 1074YOPC   PO415370  16.083  15.694   5.955 -0.0808  0.0006 -0.2806
 1074YOPC   GL115371  16.039  15.978   6.259 -0.0533  0.1421  0.2410
 1074YOPC   GL215372  16.094  15.800   6.508 -0.1310  0.1216 -0.0461
 1074YOPC   C1A15373  15.805  16.228   6.599 -0.0801 -0.2443  0.0640
 1074YOPC   D2A15374  15.530  16.608   6.616 -0.1455  0.1169 -0.2139
 1074YOPC   C3A15375  15.413  16.984   6.553 -0.1440  0.1557  0.2341
 1074YOPC   C4A15376  15.139  17.361   6.416 -0.0010 -0.2283  0.0351
 1074YOPC   C1B15377  16.263  16.130   6.764  0.0243  0.1402 -0.2442
 1074YOPC   C2B15378  16.368  16.079   7.093  0.0048  0.1962 -0.3648
 1074YOPC   D3B15379  16.532  15.792   7.278 -0.1591  0.1436  0.0929
 1074YOPC   C4B15380  16.508  15.611   7.718 -0.1683  0.0277 -0.2038
 1075YOPC   NC315381   6.199  17.983   6.250  0.0003 -0.1012 -0.1876
 1075YOPC   PO415382   5.851  17.774   6.154  0.2438 -0.1028  0.0483
 1075YOPC   GL115383   6.047  17.658   6.613  0.2456 -0.2452  0.0570
 1075YOPC   GL215384   6.403  17.689   6.622 -0.5516 -0.3861  0.1086
 1075YOPC   C1A15385   5.791  17.805   6.928  0.1524  0.1044  0.1149
 1075YOPC   D2A15386   5.720  17.601   7.372  0.0419  0.1590 -0.1998
 1075YOPC   C3A15387   5.946  17.626   7.685  0.1657  0.3093  0.2810
 1075YOPC   C4A15388   5.900  17.675   8.049  0.2396  0.1102 -0.1370
 1075YOPC   C1B15389   6.286  17.665   7.110 -0.1184  0.1904 -0.0117
 1075YOPC   C2B15390   6.458  17.712   7.487 -0.1317 -0.2452  0.1343
 1075YOPC   D3B15391   6.911  17.931   7.573 -0.2711 -0.2027  0.0416
 1075YOPC   C4B15392   7.345  17.975   7.574 -0.0330  0.1671 -0.1192
 1076YOPC   NC315393   7.103  11.976   5.284 -0.1072 -0.3536 -0.0061
 1076YOPC   PO415394   7.096  11.904   5.754  0.1518  0.1976  0.0656
 1076YOPC   GL115395   7.210  11.904   6.158 -0.0105  0.2098 -0.1242
 1076YOPC   GL215396   7.271  11.680   6.214 -0.0167  0.0486 -0.1113
 1076YOPC   C1A15397   7.309  12.004   6.632 -0.2207 -0.2462  0.1284
 1076YOPC   D2A15398   7.549  12.050   6.779  0.0465  0.0814  0.2919
 1076YOPC   C3A15399   7.402  11.787   7.136 -0.1712  0.3182 -0.2411
 1076YOPC   C4A15400   7.384  11.697   7.586 -0.0162 -0.0824 -0.1053
 1076YOPC   C1B15401   7.624  11.570   6.581  0.1442  0.1015  0.0470
 1076YOPC   C2B15402   7.965  11.374   6.818  0.1793  0.1101 -0.2075
 1076YOPC   D3B15403   7.883  11.395   7.385 -0.4281 -0.0288 -0.0753
 1076YOPC   C4B15404   7.950  11.197   7.702  0.0167 -0.3405 -0.0100
 1077YOPC   NC315405   9.278   9.398   6.058 -0.0141 -0.0493 -0.3403
 1077YOPC   PO415406   9.171   9.894   6.093  0.0271 -0.0953 -0.1728
 1077YOPC   GL115407   8.942   9.948   6.438 -0.1787  0.0312  0.0119
 1077YOPC   GL215408   8.632  10.142   6.601  0.0764  0.0711 -0.1961
 1077YOPC   C1A15409   8.998   9.887   6.847  0.1332 -0.0198  0.0763
 1077YOPC   D2A15410   8.853   9.938   7.202  0.0304  0.1174  0.1840
 1077YOPC   C3A15411   8.939   9.841   7.582  0.1503  0.1755 -0.0225
 1077YOPC   C4A15412   9.035   9.706   8.016  0.1002 -0.0999 -0.0887
 1077YOPC   C1B15413   8.521  10.471   6.960  0.5317  0.5236  0.0898
 1077YOPC   C2B15414   8.608  10.750   7.172  0.1559 -0.1378 -0.1864
 1077YOPC   D3B15415   8.442  10.803   7.668  0.0460  0.2650  0.2608
 1077YOPC   C4B15416   8.234  10.757   8.017 -0.0282  0.0926  0.0961
 1078YOPC   NC315417  14.473  14.684   5.917 -0.2862 -0.2309  0.0883
 1078YOPC   PO415418  14.690  15.141   5.815  0.0391 -0.1122  0.2920
 1078YOPC   GL115419  14.444  15.222   6.216 -0.2113 -0.2869 -0.2159
 1078YOPC   GL215420  14.524  15.524   6.361  0.1898  0.0467 -0.2468
 1078YOPC   C1A15421  14.312  14.927   6.536 -0.1992  0.0380  0.2155
 1078YOPC   D2A15422  13.913  14.793   6.744  0.0974 -0.2100 -0.0796
 1078YOPC   C3A15423  14.068  14.539   7.069  0.0119 -0.1047  0.1817
 1078YOPC   C4A15424  14.283  14.640   7.389  0.2652  0.0742  0.2932
 1078YOPC   C1B15425  14.263  15.851   6.229  0.1012 -0.0375  0.0452
 1078YOPC   C2B15426  13.999  16.141   6.414 -0.1522 -0.2741  0.1161
 1078YOPC   D3B15427  14.081  16.177   6.890  0.0915  0.3382 -0.1551
 1078YOPC   C4B15428  13.781  16.165   7.152 -0.3027 -0.0699  0.0531
 1079YOPC   NC315429   8.835   6.283   5.800 -0.0666  0.0517 -0.0020
 1079YOPC   PO415430   9.252   6.159   5.858  0.1591 -0.4041 -0.0529
 1079YOPC   GL115431   9.603   6.259   6.138  0.2425 -0.0520  0.0714
 1079YOPC   GL215432   9.539   6.427   6.347 -0.1517  0.2072 -0.1897
 1079YOPC   C1A15433   9.989   6.247   6.522 -0.1430 -0.1237  0.1271
 1079YOPC   D2A15434  10.209   6.287   7.067  0.0825 -0.0567  0.3599
 1079YOPC   C3A15435  10.255   6.383   7.508 -0.3749 -0.0280 -0.2138
 1079YOPC   C4A15436  10.627   6.398   7.687 -0.0147  0.1037 -0.0039
 1079YOPC   C1B15437   9.546   6.167   6.679 -0.1808 -0.4064  0.3792
 1079YOPC   C2B15438   9.716   6.083   7.069  0.0067  0.0833  0.1730
 1079YOPC   D3B15439   9.767   6.312   7.373  0.0875  0.0829 -0.3249
 1079YOPC   C4B15440   9.424   6.639   7.596  0.2712 -0.2024  0.0409
 1080YOPC   NC315441  18.088   5.303   6.050 -0.1472  0.0523 -0.0277
 1080YOPC   PO415442  17.663   5.431   5.940  0.0284  0.1530  0.0906
 1080YOPC   GL115443  17.528   5.295   6.271  0.0938 -0.0669 -0.2325
 1080YOPC   GL215444  17.305   5.490   6.361 -0.1359 -0.2516 -0.0497
 1080YOPC   C1A15445  17.384   5.097   6.717  0.1135 -0.0768 -0.1042
 1080YOPC   D2A15446  17.398   4.941   7.082 -0.0216 -0.0850 -0.1118
 1080YOPC   C3A15447  17.436   4.992   7.511  0.0332  0.1148  0.0479
 1080YOPC   C4A15448  17.367   5.214   7.806  0.0156 -0.0735  0.0185
 1080YOPC   C1B15449  17.291   5.679   6.712 -0.2908  0.0786  0.0889
 1080YOPC   C2B15450  17.465   5.456   7.055  0.3777 -0.3866 -0.0268
 1080YOPC   D3B15451  17.555   5.560   7.431 -0.1448  0.0360 -0.1108
 1080YOPC   C4B15452  17.968   5.364   7.762  0.1102 -0.3377 -0.1347
 1081YOPC   NC315453  11.407   9.146   5.852  0.4277 -0.2383 -0.3942
 1081YOPC   PO415454  11.705   8.924   5.858  0.0355 -0.2647 -0.1637
 1081YOPC   GL115455  12.119   8.930   6.055 -0.0340  0.2402  0.0793
 1081YOPC   GL215456  12.244   9.267   6.013 -0.2258 -0.0193 -0.0991
 1081YOPC   C1A15457  12.509   9.032   6.355 -0.1872 -0.3504  0.0942
 1081YOPC   D2A15458  12.679   8.729   6.528  0.1247  0.0477  0.0261
 1081YOPC   C3A15459  12.770   8.815   6.986  0.2872 -0.0109  0.1117
 1081YOPC   C4A15460  12.767   8.688   7.361  0.1330 -0.0296 -0.5108
 1081YOPC   C1B15461  12.138   9.285   6.502 -0.1052 -0.1898  0.1299
 1081YOPC   C2B15462  12.002   9.365   6.908  0.2666  0.2210  0.0503
 1081YOPC   D3B15463  11.967   9.119   7.350  0.0625  0.0094  0.0139
 1081YOPC   C4B15464  12.238   9.345   7.782  0.0514 -0.0032 -0.1621
 1082YOPC   NC315465  14.316  18.065   4.901  0.0974  0.0484 -0.1003
 1082YOPC   PO415466  14.248  17.831   5.320  0.4058  0.0256 -0.0370
 1082YOPC   GL115467  14.279  17.884   5.821 -0.1646  0.2343 -0.0574
 1082YOPC   GL215468  14.421  17.621   5.840 -0.1265  0.1244  0.0624
 1082YOPC   C1A15469  14.339  17.798   6.268  0.1639  0.1854  0.1862
 1082YOPC   D2A15470  14.133  17.917   6.672 -0.0318  0.1766 -0.0079
 1082YOPC   C3A15471  14.196  17.611   6.913  0.0305  0.0606 -0.1729
 1082YOPC   C4A15472  14.235  17.431   7.318  0.2402  0.1666 -0.1300
 1082YOPC   C1B15473  14.648  17.332   6.277  0.1700  0.0578  0.2748
 1082YOPC   C2B15474  14.277  17.346   6.521  0.0215 -0.2188  0.3135
 1082YOPC   D3B15475  14.332  17.101   6.822 -0.1531 -0.1524  0.1599
 1082YOPC   C4B15476  14.527  17.051   7.186 -0.1743 -0.0780  0.3666
 1083YOPC   NC315477  10.651  13.309   5.965  0.1322  0.1639 -0.2129
 1083YOPC   PO415478  10.478  13.747   6.032 -0.1366 -0.2932  0.1203
 1083YOPC   GL115479  10.499  13.743   6.409  0.2920  0.2951  0.2063
 1083YOPC   GL215480  10.243  13.713   6.493  0.1191 -0.3248 -0.0227
 1083YOPC   C1A15481  10.548  13.934   6.801  0.0769 -0.1368 -0.3245
 1083YOPC   D2A15482  10.384  13.968   7.205 -0.0822 -0.3239  0.0499
 1083YOPC   C3A15483  10.688  14.001   7.462  0.1700  0.1715 -0.2278
 1083YOPC   C4A15484  10.789  14.440   7.738 -0.2586 -0.1236 -0.1130
 1083YOPC   C1B15485  10.343  13.478   6.820 -0.2443 -0.4994  0.1744
 1083YOPC   C2B15486  10.648  13.345   6.992 -0.1349  0.1246  0.1832
 1083YOPC   D3B15487  10.629  13.441   7.446 -0.2107  0.1781 -0.1396
 1083YOPC   C4B15488  10.844  13.507   7.911  0.0612  0.0245 -0.0396
 1084YOPC   NC315489   5.614  15.370   5.952 -0.1408  0.0737 -0.0520
 1084YOPC   PO415490   5.645  15.552   6.269  0.0097  0.0238 -0.5143
 1084YOPC   GL115491   5.727  15.764   6.691  0.0129 -0.0122 -0.0961
 1084YOPC   GL215492   5.767  16.033   6.802  0.3674  0.0170  0.0670
 1084YOPC   C1A15493   5.771  15.661   7.194  0.0439  0.2488 -0.0242
 1084YOPC   D2A15494   5.866  15.958   7.369 -0.2527  0.0675 -0.0962
 1084YOPC   C3A15495   5.889  15.962   7.752  0.0063  0.1989 -0.1734
 1084YOPC   C4A15496   5.953  16.297   8.021 -0.3319  0.0024  0.3167
 1084YOPC   C1B15497   6.031  16.349   6.978 -0.6137 -0.2104 -0.0195
 1084YOPC   C2B15498   6.259  16.718   7.239  0.1796  0.1446 -0.0604
 1084YOPC   D3B15499   6.058  16.735   7.756 -0.0138 -0.1153 -0.0618
 1084YOPC   C4B15500   6.184  16.794   8.191 -0.1243  0.0376  0.0376
 1085YOPC   NC315501  10.045   5.306   5.693 -0.2288  0.3063  0.0803
 1085YOPC   PO415502   9.750   5.373   6.011 -0.0220  0.3111  0.0661
 1085YOPC   GL115503   9.720   5.211   6.324  0.2599 -0.0030 -0.3286
 1085YOPC   GL215504   9.564   4.939   6.388 -0.0611  0.1193 -0.4518
 1085YOPC   C1A15505   9.899   5.170   6.701  0.1083 -0.1074  0.0645
 1085YOPC   D2A15506   9.833   4.772   6.940  0.0148  0.0262  0.2765
 1085YOPC   C3A15507   9.664   4.458   7.441 -0.1691  0.3803  0.0378
 1085YOPC   C4A15508   9.518   4.223   7.798 -0.1500  0.1201 -0.3149
 1085YOPC   C1B15509   9.424   4.679   6.728  0.3923 -0.1440  0.0657
 1085YOPC   C2B15510   9.428   4.291   6.985 -0.1930  0.2418 -0.0294
 1085YOPC   D3B15511   9.201   4.179   7.351 -0.2443  0.0642 -0.3567
 1085YOPC   C4B15512   8.997   3.910   7.677  0.2065 -0.1730 -0.5598
 1086YOPC   NC315513   5.860  17.257   6.205 -0.1287  0.1276 -0.0719
 1086YOPC   PO415514   5.949  16.775   6.177  0.2498 -0.1716 -0.0294
 1086YOPC   GL115515   5.767  16.798   6.600  0.0853 -0.3364 -0.1153
 1086YOPC   GL215516   5.637  16.519   6.736  0.1913 -0.1200 -0.0272
 1086YOPC   C1A15517   5.687  16.920   7.060 -0.1525 -0.1003  0.0433
 1086YOPC   D2A15518   5.323  16.835   7.384 -0.0324 -0.0543 -0.1566
 1086YOPC   C3A15519   5.346  16.661   7.729  0.0889  0.0417  0.0533
 1086YOPC   C4A15520   5.237  16.429   8.070  0.2357 -0.0512  0.2806
 1086YOPC   C1B15521   5.557  16.446   7.191  0.2654 -0.0931  0.1937
 1086YOPC   C2B15522   5.729  16.439   7.508  0.0433 -0.1143  0.2478
 1086YOPC   D3B15523   6.171  16.271   7.460 -0.2145 -0.0565  0.5380
 1086YOPC   C4B15524   6.384  15.954   7.739  0.1686 -0.0975 -0.0838
 1087YOPC   NC315525  13.206  15.899   5.945 -0.1024 -0.1066  0.0825
 1087YOPC   PO415526  12.980  16.282   5.996  0.2207  0.1557 -0.0834
 1087YOPC   GL115527  13.056  16.314   6.374 -0.0771  0.0209 -0.1245
 1087YOPC   GL215528  12.747  16.211   6.542 -0.1326  0.0295 -0.1381
 1087YOPC   C1A15529  12.989  16.571   6.809 -0.1859  0.1909  0.1406
 1087YOPC   D2A15530  12.936  16.678   7.257 -0.0995  0.0569 -0.0272
 1087YOPC   C3A15531  12.594  16.923   7.448  0.3868 -0.0550  0.0709
 1087YOPC   C4A15532  12.504  17.087   7.894  0.1535  0.1425  0.1431
 1087YOPC   C1B15533  12.695  16.097   6.968 -0.1296 -0.1233 -0.1269
 1087YOPC   C2B15534  12.803  16.153   7.388 -0.0874 -0.1674 -0.0804
 1087YOPC   D3B15535  12.807  16.436   7.679  0.1789  0.1491 -0.2657
 1087YOPC   C4B15536  12.869  16.499   8.024 -0.2393 -0.0190 -0.1491
 1088YOPC   NC315537   5.637   3.373   5.401 -0.2460 -0.1503  0.1509
 1088YOPC   PO415538   5.816   3.609   5.786  0.4188 -0.0042 -0.1013
 1088YOPC   GL115539   5.888   3.793   6.269 -0.2434  0.0559  0.4223
 1088YOPC   GL215540   5.815   3.563   6.527 -0.0842  0.0263 -0.3935
 1088YOPC   C1A15541   5.935   4.234   6.392 -0.1548  0.1017 -0.2630
 1088YOPC   D2A15542   5.650   4.518   6.674 -0.2097  0.2120  0.1061
 1088YOPC   C3A15543   5.355   4.914   6.712 -0.2611 -0.0107 -0.2546
 1088YOPC   C4A15544   5.378   5.305   6.654 -0.0372  0.1126  0.1208
 1088YOPC   C1B15545   5.974   3.507   6.912 -0.1234  0.0480  0.0302
 1088YOPC   C2B15546   6.070   3.383   7.304  0.0481 -0.1587 -0.2374
 1088YOPC   D3B15547   6.424   3.324   7.369 -0.0138  0.0094  0.0053
 1088YOPC   C4B15548   6.773   3.225   7.171  0.0795  0.0770  0.1168
 1089YOPC   NC315549   1.119   4.706   6.029  0.2507  0.0118  0.1505
 1089YOPC   PO415550   0.704   4.850   6.361  0.3218  0.0709  0.1114
 1089YOPC   GL115551   0.989   4.970   6.671 -0.0036  0.1292  0.0015
 1089YOPC   GL215552   0.692   5.067   6.867  0.0053 -0.1332 -0.1987
 1089YOPC   C1A15553   1.178   4.973   7.113 -0.0921  0.1828 -0.3445
 1089YOPC   D2A15554   1.346   4.959   7.495 -0.0102 -0.1225 -0.0534
 1089YOPC   C3A15555   1.290   5.056   7.955  0.2107  0.1043 -0.1667
 1089YOPC   C4A15556   1.045   5.193   8.343  0.0155 -0.3975  0.1176
 1089YOPC   C1B15557   0.801   5.416   7.081 -0.1697 -0.1299 -0.2392
 1089YOPC   C2B15558   0.996   5.454   7.538  0.2266 -0.0132  0.2245
 1089YOPC   D3B15559   0.782   5.247   7.891  0.0444 -0.0611  0.2173
 1089YOPC   C4B15560   0.637   5.450   8.210 -0.2497 -0.2275  0.0994
 1090YOPC   NC315561   0.068  14.389   6.123  0.3471  0.3229 -0.1331
 1090YOPC   PO415562  -0.211  14.054   5.918  0.0823 -0.1231 -0.0360
 1090YOPC   GL115563  -0.171  13.997   6.447 -0.0026  0.0461  0.1956
 1090YOPC   GL215564  -0.459  14.231   6.601  0.3759 -0.1049 -0.2094
 1090YOPC   C1A15565  -0.321  13.859   6.876 -0.0378  0.1781 -0.1273
 1090YOPC   D2A15566  -0.351  13.876   7.306  0.0617 -0.0491 -0.1514
 1090YOPC   C3A15567  -0.311  13.574   7.591  0.0161 -0.0084 -0.2776
 1090YOPC   C4A15568  -0.243  13.465   8.016 -0.1176  0.1231  0.1340
 1090YOPC   C1B15569  -0.441  14.438   6.961 -0.2360 -0.1198 -0.4411
 1090YOPC   C2B15570  -0.811  14.630   7.146 -0.1402  0.2207  0.0403
 1090YOPC   D3B15571  -1.125  14.401   7.334 -0.4386  0.0687 -0.0370
 1090YOPC   C4B15572  -1.488  14.231   7.537 -0.0939  0.0569  0.0697
 1091YOPC   NC315573  10.431  12.380   5.466  0.1571  0.2063  0.1337
 1091YOPC   PO415574  10.755  12.155   5.536 -0.1812 -0.0495  0.1765
 1091YOPC   GL115575  10.945  12.086   5.968  0.2037  0.1553 -0.0039
 1091YOPC   GL215576  10.798  12.379   6.156  0.0352  0.0946  0.0277
 1091YOPC   C1A15577  10.893  11.792   6.411 -0.1686 -0.0487  0.0519
 1091YOPC   D2A15578  11.225  11.607   6.543 -0.1446 -0.1138 -0.1241
 1091YOPC   C3A15579  11.294  11.267   6.819  0.2430  0.1101 -0.1061
 1091YOPC   C4A15580  11.190  11.214   7.208  0.2404 -0.0707  0.1262
 1091YOPC   C1B15581  10.630  12.270   6.520 -0.0435 -0.0103  0.1562
 1091YOPC   C2B15582  10.498  12.295   6.918 -0.0053 -0.0878  0.1716
 1091YOPC   D3B15583  10.687  12.394   7.296 -0.1191 -0.0656 -0.0335
 1091YOPC   C4B15584  10.580  12.507   7.613  0.0482  0.1939 -0.1941
 1092YOPC   NC315585   9.357  14.915   5.904 -0.0333 -0.1773  0.3434
 1092YOPC   PO415586   9.697  15.322   6.002  0.1798  0.2514  0.2423
 1092YOPC   GL115587   9.743  15.578   6.326 -0.0517 -0.3648 -0.1094
 1092YOPC   GL215588   9.847  15.912   6.453 -0.1095  0.0209 -0.0387
 1092YOPC   C1A15589   9.509  15.471   6.729 -0.3505 -0.0530  0.2068
 1092YOPC   D2A15590   9.183  15.108   6.883  0.0612 -0.0535  0.1416
 1092YOPC   C3A15591   8.809  15.206   7.145  0.1739 -0.1822  0.0412
 1092YOPC   C4A15592   8.375  15.285   7.278 -0.2255 -0.3355  0.1720
 1092YOPC   C1B15593   9.942  16.040   6.895  0.0860 -0.1536 -0.0681
 1092YOPC   C2B15594  10.288  15.859   7.217  0.0156  0.1117  0.4691
 1092YOPC   D3B15595  10.385  16.294   7.417 -0.0151  0.2580 -0.1066
 1092YOPC   C4B15596  10.398  16.529   7.779 -0.1879 -0.1340 -0.0459
 1093YOPC   NC315597  12.209   6.963   5.037  0.3455 -0.1336 -0.4718
 1093YOPC   PO415598  12.022   6.694   5.461 -0.2877  0.2514  0.3674
 1093YOPC   GL115599  11.872   6.343   5.753 -0.3670  0.1138  0.1797
 1093YOPC   GL215600  12.021   6.107   5.864 -0.1404  0.1576  0.1060
 1093YOPC   C1A15601  11.763   6.359   6.166 -0.0837  0.2333  0.0744
 1093YOPC   D2A15602  11.790   6.390   6.594  0.0726 -0.1099 -0.1340
 1093YOPC   C3A15603  11.663   6.731   6.875 -0.2089  0.1508 -0.0260
 1093YOPC   C4A15604  11.267   6.884   6.977  0.1186 -0.2335  0.0486
 1093YOPC   C1B15605  12.347   6.167   6.177  0.1017 -0.0624 -0.0772
 1093YOPC   C2B15606  12.533   5.780   6.386  0.1865 -0.2981 -0.1611
 1093YOPC   D3B15607  12.544   5.714   6.852  0.3340  0.3153  0.1019
 1093YOPC   C4B15608  12.757   5.463   7.213 -0.0942 -0.0422  0.0924
 1094YOPC   NC315609  15.769   1.203   5.659 -0.0184  0.1284  0.3072
 1094YOPC   PO415610  15.699   1.100   6.076 -0.4217  0.2201 -0.0594
 1094YOPC   GL115611  15.551   0.903   6.363  0.0746 -0.2291  0.0848
 1094YOPC   GL215612  15.676   0.604   6.502 -0.0326 -0.1915  0.0943
 1094YOPC   C1A15613  15.249   0.745   6.605 -0.1417  0.3263 -0.0498
 1094YOPC   D2A15614  14.918   0.459   6.727  0.1559  0.0840  0.1765
 1094YOPC   C3A15615  14.752   0.396   7.130 -0.1343  0.1510  0.1256
 1094YOPC   C4A15616  14.334   0.395   7.422 -0.1636 -0.1790 -0.1035
 1094YOPC   C1B15617  15.686   0.910   6.933 -0.2249 -0.2611 -0.5124
 1094YOPC   C2B15618  15.921   0.957   7.340 -0.2378  0.1232  0.3136
 1094YOPC   D3B15619  15.560   0.725   7.515 -0.1999 -0.3985 -0.1306
 1094YOPC   C4B15620  15.736   0.493   8.004  0.0470 -0.0056  0.0835
 1095YOPC   NC315621   3.331   3.122   6.306  0.0401  0.0854 -0.0910
 1095YOPC   PO415622   3.111   2.735   6.437 -0.2898 -0.2526  0.0677
 1095YOPC   GL115623   3.064   2.697   6.844  0.1460  0.0048 -0.2024
 1095YOPC   GL215624   3.064   2.462   7.124  0.3377 -0.0654  0.1077
 1095YOPC   C1A15625   3.256   3.047   7.248 -0.3029  0.0458  0.2479
 1095YOPC   D2A15626   3.263   2.995   7.682  0.0416 -0.0563 -0.2811
 1095YOPC   C3A15627   3.414   2.705   8.030 -0.0707  0.2634  0.0928
 1095YOPC   C4A15628   3.632   2.740   8.378 -0.4626 -0.1708  0.0252
 1095YOPC   C1B15629   3.305   2.534   7.500 -0.3298  0.0145 -0.2942
 1095YOPC   C2B15630   3.634   2.307   7.644  0.0736 -0.2008  0.2372
 1095YOPC   D3B15631   3.648   2.263   8.132 -0.2963 -0.2509 -0.0728
 1095YOPC   C4B15632   3.531   1.973   8.400 -0.1109 -0.0722  0.5745
 1096YOPC   NC315633  13.989   7.916   5.381 -0.0015  0.3347  0.3421
 1096YOPC   PO415634  14.336   8.178   5.464  0.1849 -0.1011 -0.3728
 1096YOPC   GL115635  14.550   8.149   5.894 -0.1180  0.0294 -0.0383
 1096YOPC   GL215636  14.532   8.464   5.992  0.4813  0.1743  0.0463
 1096YOPC   C1A15637  14.540   8.057   6.366  0.1063 -0.2728  0.0750
 1096YOPC   D2A15638  14.513   7.834   6.734  0.0476  0.0030 -0.4885
 1096YOPC   C3A15639  14.373   7.976   7.242  0.3510  0.2093  0.0043
 1096YOPC   C4A15640  14.449   7.807   7.629 -0.0551 -0.4471  0.1042
 1096YOPC   C1B15641  14.601   8.549   6.505 -0.0966 -0.0123  0.0545
 1096YOPC   C2B15642  14.559   8.412   6.881  0.0426  0.2686  0.3187
 1096YOPC   D3B15643  14.601   8.384   7.328 -0.0129 -0.2385  0.1887
 1096YOPC   C4B15644  14.664   8.474   7.745 -0.0553  0.0422 -0.3259
 1097YOPC   NC315645  16.903   1.081   6.403 -0.2604 -0.2874  0.4934
 1097YOPC   PO415646  17.359   1.184   6.312  0.2546 -0.0697 -0.2067
 1097YOPC   GL115647  17.281   1.599   6.571 -0.1917 -0.0135  0.0056
 1097YOPC   GL215648  17.462   1.831   6.706  0.1420 -0.1229 -0.1330
 1097YOPC   C1A15649  16.975   1.761   6.874 -0.1381  0.1950 -0.0871
 1097YOPC   D2A15650  16.996   1.846   7.323 -0.1989 -0.1115  0.0531
 1097YOPC   C3A15651  17.039   1.663   7.713 -0.0216 -0.1944 -0.0810
 1097YOPC   C4A15652  16.744   1.509   8.058 -0.2602  0.1705  0.1830
 1097YOPC   C1B15653  17.918   1.720   7.011 -0.1248  0.3200  0.0774
 1097YOPC   C2B15654  18.051   1.707   7.421 -0.2545  0.3424  0.0598
 1097YOPC   D3B15655  17.946   1.974   7.649 -0.1501  0.1495  0.0843
 1097YOPC   C4B15656  18.121   2.399   7.726  0.0535  0.1483 -0.1961
 1098YOPC   NC315657   3.218  10.100   6.261 -0.3153 -0.0490  0.1244
 1098YOPC   PO415658   2.895   9.980   5.999  0.3457 -0.1145 -0.1979
 1098YOPC   GL115659   2.795   9.792   6.438  0.1054 -0.0927 -0.2459
 1098YOPC   GL215660   3.137   9.825   6.647  0.0809  0.0258 -0.2275
 1098YOPC   C1A15661   2.575   9.589   6.718  0.1252  0.0374  0.2896
 1098YOPC   D2A15662   2.291   9.389   6.886 -0.2131  0.0699  0.2612
 1098YOPC   C3A15663   2.268   9.488   7.384 -0.0786 -0.3559  0.0107
 1098YOPC   C4A15664   2.341   9.338   7.780  0.0552  0.1491 -0.2554
 1098YOPC   C1B15665   3.061   9.518   6.824  0.1748  0.0603  0.3582
 1098YOPC   C2B15666   2.770   9.288   7.089  0.0715  0.2612  0.2079
 1098YOPC   D3B15667   2.788   9.133   7.548 -0.1526 -0.2405 -0.0206
 1098YOPC   C4B15668   2.758   9.202   8.005 -0.3284 -0.0378  0.3603
 1099YOPC   NC315669  17.253  14.155   5.830  0.3157  0.1291  0.4547
 1099YOPC   PO415670  17.076  14.323   6.203 -0.2196 -0.0469  0.0624
 1099YOPC   GL115671  17.209  14.224   6.603  0.3542  0.0289  0.1207
 1099YOPC   GL215672  17.126  14.451   6.713  0.0148  0.2197 -0.2203
 1099YOPC   C1A15673  17.405  14.140   7.056  0.2487  0.0686 -0.3247
 1099YOPC   D2A15674  17.525  14.293   7.464 -0.0149  0.1329  0.2150
 1099YOPC   C3A15675  17.349  14.318   7.792 -0.2306  0.2404  0.0054
 1099YOPC   C4A15676  16.992  14.429   7.991 -0.0279  0.2960  0.2278
 1099YOPC   C1B15677  16.736  14.374   6.954  0.0681 -0.1010  0.1087
 1099YOPC   C2B15678  16.464  14.537   7.211 -0.4161 -0.0311  0.0201
 1099YOPC   D3B15679  16.332  14.872   7.086 -0.1055  0.0432  0.1585
 1099YOPC   C4B15680  16.070  15.077   6.976  0.2074  0.1709  0.4062
 1100YOPC   NC315681   7.918   8.227   6.111  0.1640  0.3047 -0.0708
 1100YOPC   PO415682   7.746   7.748   6.005 -0.0340 -0.1643 -0.1616
 1100YOPC   GL115683   7.461   7.827   6.216  0.2615  0.1838  0.2257
 1100YOPC   GL215684   7.554   7.658   6.439  0.0153  0.0997  0.0746
 1100YOPC   C1A15685   7.069   7.803   6.565 -0.2814 -0.1352  0.0879
 1100YOPC   D2A15686   6.694   8.009   6.830 -0.0617  0.0962  0.0506
 1100YOPC   C3A15687   6.845   8.311   7.132  0.0749  0.0433  0.0547
 1100YOPC   C4A15688   7.277   8.478   7.344 -0.1992  0.1081  0.0049
 1100YOPC   C1B15689   7.631   8.072   6.682 -0.1072  0.0622  0.2779
 1100YOPC   C2B15690   7.691   8.269   7.109  0.1241  0.4458  0.0735
 1100YOPC   D3B15691   7.628   8.107   7.464  0.0197  0.0486  0.0476
 1100YOPC   C4B15692   7.174   8.126   7.647 -0.2523  0.4222  0.1630
 1101YOPC   NC315693   4.245   2.973   5.984 -0.0474  0.0864  0.2180
 1101YOPC   PO415694   3.767   3.005   5.978  0.0346 -0.0297 -0.2715
 1101YOPC   GL115695   3.842   3.203   6.444 -0.0433  0.3779 -0.3317
 1101YOPC   GL215696   4.190   3.283   6.458 -0.3685  0.4248 -0.1351
 1101YOPC   C1A15697   4.064   2.886   6.813 -0.3371 -0.0872 -0.0288
 1101YOPC   D2A15698   4.136   2.833   7.227  0.0480 -0.1930  0.2712
 1101YOPC   C3A15699   4.124   2.586   7.570 -0.2528  0.0244  0.1400
 1101YOPC   C4A15700   4.199   2.493   8.003  0.0371  0.0990  0.1871
 1101YOPC   C1B15701   3.935   3.443   6.860 -0.0888 -0.0756 -0.0659
 1101YOPC   C2B15702   3.787   3.231   7.182 -0.1861 -0.0010  0.1615
 1101YOPC   D3B15703   3.928   3.314   7.558  0.1777 -0.0842  0.0561
 1101YOPC   C4B15704   4.278   3.095   7.649 -0.0030  0.0221  0.0715
 1102YOPC   NC315705   1.027  17.407   5.755  0.0585 -0.1600 -0.2268
 1102YOPC   PO415706   0.937  17.095   6.074 -0.0077 -0.0996 -0.2272
 1102YOPC   GL115707   0.871  17.205   6.415 -0.1283  0.0139  0.0131
 1102YOPC   GL215708   0.894  17.388   6.687  0.0711  0.0660  0.0901
 1102YOPC   C1A15709   0.577  16.997   6.706 -0.3116  0.1837 -0.3968
 1102YOPC   D2A15710   0.225  17.107   6.935 -0.0426 -0.1242 -0.0484
 1102YOPC   C3A15711   0.248  17.036   7.285  0.0313 -0.4305  0.0956
 1102YOPC   C4A15712   0.056  17.261   7.624 -0.4092  0.1397  0.1085
 1102YOPC   C1B15713   0.706  17.265   7.090 -0.2112 -0.1026 -0.1150
 1102YOPC   C2B15714   0.545  17.375   7.480  0.0234 -0.0709  0.0257
 1102YOPC   D3B15715   0.690  17.245   7.858  0.1693 -0.0449 -0.2093
 1102YOPC   C4B15716   0.501  17.139   8.141  0.0425  0.1403 -0.1195
 1103YOPC   NC315717   3.922   2.203   6.209  0.0371 -0.2177  0.0157
 1103YOPC   PO415718   4.349   2.522   6.105  0.2712  0.0780 -0.2423
 1103YOPC   GL115719   4.329   2.432   6.562 -0.3456  0.0723 -0.2120
 1103YOPC   GL215720   4.755   2.483   6.586 -0.0169 -0.3013  0.0479
 1103YOPC   C1A15721   4.189   2.394   6.997  0.0479 -0.0774  0.2347
 1103YOPC   D2A15722   4.456   2.307   7.288 -0.1671 -0.0751 -0.1869
 1103YOPC   C3A15723   4.486   2.246   7.699 -0.2642  0.1534 -0.2112
 1103YOPC   C4A15724   4.622   2.278   8.129 -0.2442  0.1732  0.3213
 1103YOPC   C1B15725   4.579   2.674   6.881  0.1851 -0.1383 -0.2115
 1103YOPC   C2B15726   4.602   2.788   7.315  0.0225 -0.3835 -0.0744
 1103YOPC   D3B15727   4.590   2.713   7.777 -0.0822 -0.1431  0.1813
 1103YOPC   C4B15728   5.051   2.607   8.022  0.0442 -0.0949  0.0051
 1104YOPC   NC315729   0.558  16.835   6.060  0.1710 -0.0038 -0.1326
 1104YOPC   PO415730   0.045  16.559   6.079 -0.3367  0.0341  0.1294
 1104YOPC   GL115731  -0.159  16.615   6.436 -0.1425 -0.2787  0.2524
 1104YOPC   GL215732  -0.445  16.420   6.508 -0.0163  0.0444  0.1555
 1104YOPC   C1A15733  -0.184  16.869   6.758 -0.1431 -0.1403  0.1366
 1104YOPC   D2A15734  -0.261  16.782   7.130  0.0508  0.1621 -0.1777
 1104YOPC   C3A15735  -0.672  16.911   7.257  0.0127  0.1466  0.2640
 1104YOPC   C4A15736  -0.997  17.047   7.533  0.0764  0.0172  0.4625
 1104YOPC   C1B15737  -0.308  16.151   6.850  0.1298  0.3952 -0.0713
 1104YOPC   C2B15738  -0.269  16.312   7.267 -0.0255 -0.1010 -0.0560
 1104YOPC   D3B15739  -0.618  16.418   7.491  0.0188  0.2227  0.1807
 1104YOPC   C4B15740  -0.825  16.686   7.797  0.0993  0.1690  0.0631
 1105YOPC   NC315741  13.560  10.508   5.352 -0.0318 -0.2228 -0.0538
 1105YOPC   PO415742  13.795  10.365   5.725  0.1126 -0.3825  0.4436
 1105YOPC   GL115743  13.635  10.112   6.084 -0.2155  0.1005  0.1896
 1105YOPC   GL215744  14.050  10.202   6.118  0.1006  0.3597  0.0694
 1105YOPC   C1A15745  13.361  10.211   6.363 -0.0617 -0.1900 -0.0755
 1105YOPC   D2A15746  13.077  10.348   6.722  0.0604 -0.0600  0.0599
 1105YOPC   C3A15747  13.087  10.275   7.223  0.3674  0.0954 -0.2232
 1105YOPC   C4A15748  13.252  10.512   7.556  0.0431 -0.1805 -0.0520
 1105YOPC   C1B15749  13.835  10.326   6.494  0.1271  0.0581 -0.0338
 1105YOPC   C2B15750  13.605  10.187   6.809 -0.1065 -0.2039  0.0287
 1105YOPC   D3B15751  13.812  10.360   7.158 -0.3466  0.1855 -0.2132
 1105YOPC   C4B15752  13.933  10.359   7.571  0.0847  0.0675 -0.1786
 1106YOPC   NC315753  10.908   8.430   5.792 -0.0929 -0.1260  0.1972
 1106YOPC   PO415754  10.729   8.139   6.033 -0.0434  0.1752  0.1462
 1106YOPC   GL115755  10.572   7.955   6.353 -0.1549 -0.3931  0.1449
 1106YOPC   GL215756  10.424   8.260   6.526  0.2645 -0.1628  0.0449
 1106YOPC   C1A15757  10.728   7.909   6.690 -0.3840 -0.2374  0.2537
 1106YOPC   D2A15758  11.093   7.981   7.036  0.0117  0.0401  0.1834
 1106YOPC   C3A15759  11.174   8.049   7.358 -0.0920 -0.0045  0.2914
 1106YOPC   C4A15760  11.225   7.762   7.701  0.4247  0.0661 -0.2615
 1106YOPC   C1B15761  10.241   7.893   6.770  0.0021 -0.0660  0.1117
 1106YOPC   C2B15762  10.145   7.792   7.204 -0.1719 -0.1756 -0.0085
 1106YOPC   D3B15763   9.897   8.006   7.466 -0.1604  0.0144 -0.0726
 1106YOPC   C4B15764   9.684   8.262   7.692  0.4719  0.1310  0.1037
 1107YOPC   NC315765   0.372   5.790   6.029 -0.1293 -0.1993 -0.6317
 1107YOPC   PO415766   0.015   5.734   5.813  0.0970  0.1463  0.1350
 1107YOPC   GL115767  -0.088   5.754   6.324  0.0826 -0.4244 -0.1652
 1107YOPC   GL215768  -0.403   5.737   6.277  0.2785 -0.0118 -0.1481
 1107YOPC   C1A15769  -0.313   5.648   6.788  0.0589  0.0401 -0.2103
 1107YOPC   D2A15770  -0.162   5.555   7.228 -0.4046  0.0392 -0.2021
 1107YOPC   C3A15771   0.165   5.671   7.526  0.0136 -0.2148  0.1149
 1107YOPC   C4A15772   0.519   5.601   7.686 -0.0691 -0.0392  0.2177
 1107YOPC   C1B15773  -0.693   5.994   6.382  0.1775  0.0570 -0.1077
 1107YOPC   C2B15774  -0.948   6.279   6.603 -0.0670  0.1309 -0.1303
 1107YOPC   D3B15775  -1.271   6.045   6.878 -0.2730 -0.1272  0.1539
 1107YOPC   C4B15776  -1.310   5.697   6.972 -0.0918  0.1797  0.2873
 1108YOPC   NC315777   8.064  17.443   5.696 -0.2365 -0.0763 -0.1148
 1108YOPC   PO415778   8.111  17.247   6.090 -0.0737  0.1293  0.1879
 1108YOPC   GL115779   8.098  17.395   6.489  0.1506  0.1100 -0.1367
 1108YOPC   GL215780   8.344  17.186   6.618 -0.1049 -0.0520  0.1679
 1108YOPC   C1A15781   7.883  17.795   6.790 -0.0939  0.0061 -0.0243
 1108YOPC   D2A15782   8.012  17.809   7.187 -0.2922 -0.0288 -0.0762
 1108YOPC   C3A15783   7.869  18.064   7.592  0.2572  0.0734 -0.0223
 1108YOPC   C4A15784   7.596  17.836   7.987 -0.1571  0.2862 -0.0073
 1108YOPC   C1B15785   8.655  17.044   6.879 -0.1820  0.0855  0.2761
 1108YOPC   C2B15786   8.537  17.143   7.308  0.0811  0.0459  0.3489
 1108YOPC   D3B15787   8.709  16.914   7.558  0.0730 -0.0998 -0.1883
 1108YOPC   C4B15788   9.147  16.761   7.796 -0.0264 -0.0717 -0.0383
 1109YOPC   NC315789  17.417  14.744   6.159  0.2976 -0.0700  0.2028
 1109YOPC   PO415790  17.779  14.574   6.260  0.0312 -0.0006 -0.0583
 1109YOPC   GL115791  18.168  14.648   6.604  0.0376  0.1018  0.1157
 1109YOPC   GL215792  18.215  14.439   6.761 -0.0087  0.0528 -0.0885
 1109YOPC   C1A15793  18.317  14.908   6.956  0.1606  0.1909  0.1282
 1109YOPC   D2A15794  18.368  15.050   7.341 -0.2038  0.0478  0.0111
 1109YOPC   C3A15795  18.148  15.422   7.500 -0.0746  0.1727  0.2558
 1109YOPC   C4A15796  18.075  15.552   7.921  0.1518 -0.1389 -0.1929
 1109YOPC   C1B15797  18.200  14.474   7.206 -0.1030 -0.0884  0.1398
 1109YOPC   C2B15798  18.391  14.655   7.630 -0.0618 -0.2750  0.1223
 1109YOPC   D3B15799  18.467  15.113   7.812 -0.3182 -0.0067 -0.0489
 1109YOPC   C4B15800  18.697  15.401   8.065  0.1323 -0.4012  0.0000
 1110YOPC   NC315801   2.142   2.985   6.419 -0.0467  0.0992 -0.0057
 1110YOPC   PO415802   1.944   3.403   6.247 -0.1911  0.0985  0.2830
 1110YOPC   GL115803   2.006   3.558   6.638  0.1525 -0.2446 -0.0450
 1110YOPC   GL215804   1.946   3.145   6.928 -0.0930 -0.2479 -0.0641
 1110YOPC   C1A15805   2.216   3.679   7.007  0.0126 -0.2906  0.0149
 1110YOPC   D2A15806   2.503   3.800   7.466  0.5089  0.2863 -0.0880
 1110YOPC   C3A15807   2.704   4.131   7.650 -0.2260 -0.0494 -0.1099
 1110YOPC   C4A15808   2.817   4.283   8.060 -0.0776  0.0157  0.1143
 1110YOPC   C1B15809   2.238   3.110   7.243  0.2625 -0.3747  0.0848
 1110YOPC   C2B15810   2.395   3.308   7.652  0.3890  0.0360 -0.1728
 1110YOPC   D3B15811   2.503   2.944   8.078 -0.1701 -0.1157  0.1743
 1110YOPC   C4B15812   2.611   2.609   8.432 -0.0440 -0.0969 -0.3092
 1111YOPC   NC315813  17.200  10.350   5.211  0.0208  0.0659 -0.0568
 1111YOPC   PO415814  17.174  10.525   5.613  0.0393  0.2020  0.0522
 1111YOPC   GL115815  17.156  10.350   5.942  0.0388 -0.2203 -0.0053
 1111YOPC   GL215816  17.288  10.444   6.225 -0.0899 -0.0368  0.2180
 1111YOPC   C1A15817  16.823  10.350   6.322  0.0983 -0.3158  0.1582
 1111YOPC   D2A15818  16.692  10.416   6.642 -0.0232 -0.0854 -0.1211
 1111YOPC   C3A15819  16.674  10.114   6.923 -0.0755 -0.4813 -0.3811
 1111YOPC   C4A15820  16.694   9.809   7.275 -0.0742 -0.3022  0.4459
 1111YOPC   C1B15821  17.203  10.528   6.531 -0.1625  0.2466  0.0141
 1111YOPC   C2B15822  17.151  10.324   6.972  0.1366  0.0760  0.1156
 1111YOPC   D3B15823  17.549  10.039   7.139 -0.0690 -0.2602  0.0402
 1111YOPC   C4B15824  17.898  10.082   7.492  0.0447  0.4809 -0.1412
 1112YOPC   NC315825   7.314   9.464   5.991 -0.1129  0.1748  0.0042
 1112YOPC   PO415826   7.062   9.237   5.821 -0.0061  0.2429  0.0742
 1112YOPC   GL115827   6.944   9.368   6.328  0.3581 -0.0689  0.0999
 1112YOPC   GL215828   7.010   9.644   6.409 -0.0826  0.2031 -0.2267
 1112YOPC   C1A15829   6.733   9.318   6.752 -0.2196 -0.0499 -0.0602
 1112YOPC   D2A15830   6.474   9.235   7.101 -0.1722 -0.0907 -0.0623
 1112YOPC   C3A15831   6.350   8.841   7.356  0.2217  0.3882  0.1034
 1112YOPC   C4A15832   6.433   8.436   7.509 -0.0621  0.0558 -0.0072
 1112YOPC   C1B15833   6.763   9.846   6.741  0.1754  0.2950  0.2748
 1112YOPC   C2B15834   6.633   9.695   7.080  0.1289  0.0598 -0.1060
 1112YOPC   D3B15835   6.869   9.840   7.457  0.0752  0.0400 -0.2205
 1112YOPC   C4B15836   6.804   9.707   7.984 -0.2639 -0.0140 -0.1067
 1113YOPC   NC315837   0.932   6.992   6.249 -0.0948 -0.2003  0.0866
 1113YOPC   PO415838   1.204   7.275   6.352  0.3304  0.1115 -0.0175
 1113YOPC   GL115839   1.316   7.630   6.495 -0.1908 -0.0890  0.2196
 1113YOPC   GL215840   1.548   7.821   6.379  0.1158  0.1555 -0.0979
 1113YOPC   C1A15841   1.581   7.808   6.912  0.0809 -0.0844 -0.2638
 1113YOPC   D2A15842   1.414   7.802   7.452  0.0637 -0.1827  0.1882
 1113YOPC   C3A15843   1.478   8.011   7.882 -0.0861  0.2382  0.1913
 1113YOPC   C4A15844   1.648   8.100   8.233  0.0067  0.0588  0.0003
 1113YOPC   C1B15845   1.926   7.636   6.657 -0.1769 -0.0570 -0.0962
 1113YOPC   C2B15846   2.010   7.525   7.087  0.0116 -0.4684 -0.0798
 1113YOPC   D3B15847   2.160   7.181   7.139  0.1296 -0.3455 -0.2304
 1113YOPC   C4B15848   1.858   6.890   7.353  0.0207 -0.0590 -0.1640
 1114YOPC   NC315849   3.015   2.279   6.639  0.2276 -0.0441  0.0549
 1114YOPC   PO415850   2.553   2.225   6.537  0.1347  0.1268 -0.1167
 1114YOPC   GL115851   2.621   1.870   6.880 -0.0122 -0.2407  0.0739
 1114YOPC   GL215852   3.013   1.860   6.886  0.2165  0.1094 -0.1337
 1114YOPC   C1A15853   2.715   1.485   7.105 -0.3329 -0.1548  0.2091
 1114YOPC   D2A15854   2.781   1.228   7.557 -0.1062 -0.0662  0.3285
 1114YOPC   C3A15855   2.695   1.412   7.987 -0.3584 -0.1217 -0.0778
 1114YOPC   C4A15856   2.635   1.476   8.418 -0.1036 -0.1917  0.0033
 1114YOPC   C1B15857   3.204   1.746   7.153  0.0422 -0.2317  0.2859
 1114YOPC   C2B15858   3.411   1.847   7.459 -0.1851 -0.0879 -0.0332
 1114YOPC   D3B15859   3.143   2.074   7.800  0.0234 -0.0582  0.1010
 1114YOPC   C4B15860   2.784   2.063   7.907  0.1447 -0.0630 -0.2521
 1115YOPC   NC315861  11.958   7.805   5.343 -0.0646  0.0403 -0.0152
 1115YOPC   PO415862  11.455   7.858   5.534 -0.0289  0.3737  0.1430
 1115YOPC   GL115863  11.389   7.739   6.023  0.0779 -0.0540 -0.1475
 1115YOPC   GL215864  11.082   7.751   6.236  0.0175  0.1077 -0.3202
 1115YOPC   C1A15865  11.691   7.873   6.303  0.1308 -0.1911  0.1633
 1115YOPC   D2A15866  12.097   8.010   6.451  0.4692  0.2074  0.0322
 1115YOPC   C3A15867  12.176   7.933   6.822  0.0538 -0.0047 -0.3121
 1115YOPC   C4A15868  12.008   7.571   7.056 -0.0161 -0.1441 -0.0247
 1115YOPC   C1B15869  11.293   7.670   6.603 -0.0842 -0.0361 -0.0230
 1115YOPC   C2B15870  11.665   7.863   6.768 -0.1218  0.2737 -0.0244
 1115YOPC   D3B15871  11.792   8.065   7.165  0.1588 -0.2104  0.2643
 1115YOPC   C4B15872  11.608   8.025   7.645 -0.1206 -0.1100  0.1271
 1116YOPC   NC315873   1.719   5.295   5.897 -0.1218 -0.0800 -0.1913
 1116YOPC   PO415874   1.447   5.112   6.218  0.0596  0.0836  0.0476
 1116YOPC   GL115875   1.400   5.256   6.707 -0.4446  0.3144  0.1526
 1116YOPC   GL215876   1.221   5.515   6.767 -0.0293 -0.1260  0.3263
 1116YOPC   C1A15877   1.753   5.294   6.885  0.3018 -0.4578 -0.0208
 1116YOPC   D2A15878   1.904   5.328   7.235 -0.2117 -0.5430  0.0439
 1116YOPC   C3A15879   1.841   5.745   7.263  0.2032  0.0292  0.0522
 1116YOPC   C4A15880   1.503   5.928   7.307  0.1196 -0.1732 -0.2034
 1116YOPC   C1B15881   1.354   5.397   7.222 -0.2484  0.0298 -0.1686
 1116YOPC   C2B15882   1.488   5.425   7.641  0.1564 -0.0411  0.0036
 1116YOPC   D3B15883   1.895   5.325   7.784  0.1066 -0.0041 -0.3460
 1116YOPC   C4B15884   2.137   5.119   8.065  0.2576  0.3334 -0.1105
 1117YOPC   NC315885  12.592   9.002   5.556  0.2111  0.0926 -0.0493
 1117YOPC   PO415886  12.640   8.652   5.672  0.1352  0.2145 -0.2059
 1117YOPC   GL115887  12.400   8.522   6.030 -0.0288 -0.0165 -0.2131
 1117YOPC   GL215888  12.325   8.204   6.043  0.1057  0.1268  0.0152
 1117YOPC   C1A15889  12.146   8.551   6.486 -0.3549  0.3266  0.1006
 1117YOPC   D2A15890  11.870   8.910   6.570 -0.0122  0.2643  0.0606
 1117YOPC   C3A15891  11.688   8.885   7.052  0.1149  0.0885 -0.0489
 1117YOPC   C4A15892  11.460   8.497   7.114  0.1344  0.0670 -0.2765
 1117YOPC   C1B15893  12.622   8.208   6.493 -0.1411  0.1932 -0.3297
 1117YOPC   C2B15894  12.702   8.333   6.872 -0.1128  0.2068 -0.1549
 1117YOPC   D3B15895  12.473   8.267   7.147 -0.0375  0.1694 -0.1101
 1117YOPC   C4B15896  12.346   7.883   7.285  0.0256  0.1942  0.1095
 1118YOPC   NC315897   5.069  14.726   6.493 -0.3190  0.0145 -0.2801
 1118YOPC   PO415898   5.519  14.500   6.469 -0.2828  0.1012 -0.0527
 1118YOPC   GL115899   5.223  14.425   6.830  0.1034 -0.1685  0.2966
 1118YOPC   GL215900   5.386  14.166   6.807 -0.0236  0.1456 -0.1765
 1118YOPC   C1A15901   5.154  14.276   7.271  0.2252  0.1271  0.1030
 1118YOPC   D2A15902   4.915  14.335   7.614 -0.3319  0.1065 -0.0420
 1118YOPC   C3A15903   5.114  14.250   7.981  0.3260 -0.3804  0.2289
 1118YOPC   C4A15904   5.073  14.083   8.464 -0.1534 -0.2439 -0.1195
 1118YOPC   C1B15905   5.698  14.257   7.141 -0.1500  0.0230  0.0877
 1118YOPC   C2B15906   5.949  14.224   7.492 -0.2727  0.3957  0.2142
 1118YOPC   D3B15907   5.905  14.445   7.847  0.1723 -0.2471  0.1163
 1118YOPC   C4B15908   5.795  14.719   8.244  0.0121 -0.2796  0.0360
 1119YOPC   NC315909   8.190   1.570   6.006  0.0034 -0.1629  0.2750
 1119YOPC   PO415910   7.764   1.333   6.132  0.0040  0.0671 -0.1800
 1119YOPC   GL115911   7.929   1.236   6.557  0.2653 -0.1024 -0.0752
 1119YOPC   GL215912   7.855   0.947   6.633  0.1521  0.2010  0.1788
 1119YOPC   C1A15913   7.706   1.342   7.010 -0.0747 -0.1166  0.4384
 1119YOPC   D2A15914   7.854   1.582   7.364  0.0868 -0.4138  0.7446
 1119YOPC   C3A15915   7.837   1.568   7.869 -0.0051  0.2428  0.0932
 1119YOPC   C4A15916   7.858   1.809   8.272  0.1310  0.1056 -0.2459
 1119YOPC   C1B15917   7.862   0.928   7.084  0.2127 -0.0486 -0.0373
 1119YOPC   C2B15918   8.014   1.107   7.422  0.1942  0.0121 -0.2298
 1119YOPC   D3B15919   7.798   1.061   7.850  0.0893 -0.1308 -0.2009
 1119YOPC   C4B15920   7.412   0.770   7.846  0.2719  0.1205 -0.2334
 1120YOPC   NC315921  12.187   0.793   5.942  0.0751 -0.0165 -0.2464
 1120YOPC   PO415922  12.562   1.170   6.006 -0.1703  0.0096 -0.1433
 1120YOPC   GL115923  12.229   1.183   6.221  0.0007 -0.3745  0.0243
 1120YOPC   GL215924  11.810   1.149   6.254 -0.1243 -0.0800  0.0498
 1120YOPC   C1A15925  12.128   1.549   6.447  0.0723  0.5125 -0.1284
 1120YOPC   D2A15926  12.255   1.456   6.871 -0.0355  0.1138  0.2525
 1120YOPC   C3A15927  12.448   1.725   7.128  0.3781 -0.2638 -0.2022
 1120YOPC   C4A15928  12.646   1.947   7.465  0.0580  0.0845  0.1528
 1120YOPC   C1B15929  11.897   1.177   6.612  0.1820  0.2452  0.0807
 1120YOPC   C2B15930  12.061   1.035   7.043  0.0284 -0.0729  0.0072
 1120YOPC   D3B15931  11.749   0.768   7.251 -0.1212 -0.1202 -0.0538
 1120YOPC   C4B15932  11.590   0.438   7.615 -0.1367 -0.0849  0.0604
 1121YOPC   NC315933  11.462  17.527   5.669 -0.3321  0.2219 -0.0998
 1121YOPC   PO415934  11.138  17.536   5.937  0.0699 -0.0387 -0.2271
 1121YOPC   GL115935  11.031  17.602   6.320  0.1456  0.2120  0.1746
 1121YOPC   GL215936  10.940  17.420   6.592 -0.3822  0.0895 -0.2055
 1121YOPC   C1A15937  11.141  17.929   6.612 -0.3733 -0.1857  0.0243
 1121YOPC   D2A15938  11.052  18.144   6.952  0.3246 -0.3079 -0.0209
 1121YOPC   C3A15939  10.768  18.341   7.228 -0.1885  0.1911 -0.0176
 1121YOPC   C4A15940  10.496  18.483   7.499 -0.3276  0.0072 -0.0694
 1121YOPC   C1B15941  10.985  17.096   6.826  0.4767 -0.0136  0.1783
 1121YOPC   C2B15942  10.964  16.980   7.217  0.0316  0.2737  0.1925
 1121YOPC   D3B15943  11.216  17.174   7.540  0.0527  0.0987  0.0686
 1121YOPC   C4B15944  11.483  17.229   7.851  0.1955 -0.1387 -0.1184
 1122YOPC   NC315945   9.718   0.355   5.687 -0.0349  0.4413  0.1347
 1122YOPC   PO415946   9.852  -0.048   5.846 -0.0417  0.0541 -0.1242
 1122YOPC   GL115947   9.979   0.094   6.369 -0.0059 -0.2938 -0.1923
 1122YOPC   GL215948  10.197   0.261   6.568  0.4158 -0.0691 -0.0626
 1122YOPC   C1A15949   9.872  -0.162   6.789 -0.4265 -0.1470 -0.0199
 1122YOPC   D2A15950  10.130  -0.494   6.947  0.2594 -0.3206 -0.2187
 1122YOPC   C3A15951   9.936  -0.414   7.343 -0.0272 -0.2164 -0.0950
 1122YOPC   C4A15952   9.835  -0.024   7.591  0.1212  0.0497  0.2036
 1122YOPC   C1B15953   9.849   0.486   6.599  0.1492  0.2192 -0.0740
 1122YOPC   C2B15954   9.739   0.925   6.783  0.0110 -0.2213  0.1558
 1122YOPC   D3B15955   9.979   1.105   7.112  0.2181 -0.1226 -0.4229
 1122YOPC   C4B15956  10.185   0.930   7.435  0.2695  0.3038  0.1780
 1123YOPC   NC315957  17.972  11.988   5.879  0.1623  0.3082 -0.0800
 1123YOPC   PO415958  17.561  11.926   6.114 -0.1566  0.2365 -0.1839
 1123YOPC   GL115959  17.612  11.561   6.504  0.0158  0.1162 -0.0772
 1123YOPC   GL215960  17.938  11.335   6.349  0.0362 -0.0710  0.1895
 1123YOPC   C1A15961  17.563  11.432   6.963 -0.0809 -0.4385 -0.0150
 1123YOPC   D2A15962  17.716  11.243   7.277 -0.0402 -0.0204  0.2279
 1123YOPC   C3A15963  17.429  11.237   7.606  0.1443 -0.0387 -0.1947
 1123YOPC   C4A15964  17.128  10.997   7.606  0.1479 -0.0662  0.2049
 1123YOPC   C1B15965  17.919  11.059   6.786 -0.0231  0.0433  0.0434
 1123YOPC   C2B15966  18.098  10.970   7.159  0.1212 -0.2370 -0.2642
 1123YOPC   D3B15967  18.194  11.167   7.533  0.0191 -0.2227 -0.0363
 1123YOPC   C4B15968  18.310  11.455   7.874  0.0854  0.2126  0.0394
 1124YOPC   NC315969   9.336   3.419   5.206 -0.0663  0.1377  0.2629
 1124YOPC   PO415970   9.475   3.077   5.553  0.0091 -0.3415  0.0364
 1124YOPC   GL115971   9.399   3.019   5.991  0.0554 -0.1062 -0.0008
 1124YOPC   GL215972   8.997   2.894   6.161 -0.1619  0.0717 -0.0201
 1124YOPC   C1A15973   9.417   2.942   6.387  0.1400  0.2071 -0.2227
 1124YOPC   D2A15974   9.626   3.093   6.679 -0.0806  0.1960  0.1688
 1124YOPC   C3A15975   9.633   2.893   7.044 -0.0191 -0.0316  0.0592
 1124YOPC   C4A15976   9.453   2.633   7.357 -0.0539  0.1902 -0.1142
 1124YOPC   C1B15977   8.894   2.816   6.599 -0.4036 -0.1234  0.0540
 1124YOPC   C2B15978   9.166   2.847   6.888  0.1213 -0.0466  0.3405
 1124YOPC   D3B15979   8.977   2.705   7.253  0.0996  0.1889  0.0077
 1124YOPC   C4B15980   9.104   2.911   7.654 -0.1438  0.0068  0.2912
 1125YOPC   NC315981   0.669  12.488   5.348 -0.0129 -0.0887  0.2289
 1125YOPC   PO415982   0.845  12.162   5.768  0.2419 -0.1351 -0.0934
 1125YOPC   GL115983   0.632  12.030   6.138 -0.2591 -0.3763 -0.2606
 1125YOPC   GL215984   0.662  12.330   6.235  0.1026 -0.0195 -0.2776
 1125YOPC   C1A15985   0.476  11.996   6.550 -0.0174 -0.1478 -0.0624
 1125YOPC   D2A15986   0.671  12.201   6.945  0.0246 -0.4019 -0.1195
 1125YOPC   C3A15987   0.448  12.567   7.135  0.0454  0.1118 -0.0520
 1125YOPC   C4A15988   0.097  12.937   7.027  0.1599 -0.0202  0.0072
 1125YOPC   C1B15989   0.459  12.578   6.530 -0.0137 -0.0658 -0.0201
 1125YOPC   C2B15990   0.153  12.364   6.716  0.1203 -0.1969  0.2604
 1125YOPC   D3B15991   0.193  11.991   7.033 -0.1839  0.0686 -0.0567
 1125YOPC   C4B15992   0.307  12.121   7.440  0.5569  0.0803 -0.0846
 1126YOPC   NC315993   7.158  17.673   5.910  0.1223  0.0636 -0.0134
 1126YOPC   PO415994   7.091  17.781   6.309 -0.1725 -0.1368 -0.0475
 1126YOPC   GL115995   6.857  17.799   6.765 -0.2598 -0.4742 -0.1815
 1126YOPC   GL215996   6.692  18.049   6.900 -0.0494 -0.0669 -0.2882
 1126YOPC   C1A15997   6.849  17.633   7.075  0.0671 -0.0520 -0.2443
 1126YOPC   D2A15998   6.845  17.310   7.364  0.1122 -0.1732  0.2383
 1126YOPC   C3A15999   7.114  17.096   7.749  0.2197  0.1834  0.1262
 1126YOPC   C4A16000   7.170  16.825   8.096 -0.5002  0.3319  0.1379
 1126YOPC   C1B16001   6.521  18.163   7.383 -0.2684 -0.1415 -0.0642
 1126YOPC   C2B16002   6.591  18.429   7.674 -0.2476  0.2548  0.1450
 1126YOPC   D3B16003   6.390  18.526   7.977 -0.0088 -0.1508  0.1489
 1126YOPC   C4B16004   6.194  18.554   8.382 -0.1611 -0.0227  0.1054
 1127YOPC   NC316005  12.986  11.524   5.566 -0.0711  0.0328 -0.1147
 1127YOPC   PO416006  13.009  11.857   5.840 -0.1582  0.2263 -0.0907
 1127YOPC   GL116007  12.734  11.931   6.295 -0.0268 -0.2025 -0.2337
 1127YOPC   GL216008  12.539  12.218   6.344  0.2523  0.0731 -0.1481
 1127YOPC   C1A16009  12.620  12.046   6.752 -0.1546  0.0581  0.0316
 1127YOPC   D2A16010  12.376  12.067   7.038  0.0383  0.1283  0.0615
 1127YOPC   C3A16011  12.581  12.386   7.340 -0.1891  0.4967  0.1181
 1127YOPC   C4A16012  12.588  12.798   7.637  0.1320  0.0909  0.0544
 1127YOPC   C1B16013  12.212  12.297   6.537 -0.3238  0.1986 -0.4092
 1127YOPC   C2B16014  11.954  12.286   6.945  0.1870  0.1520 -0.0878
 1127YOPC   D3B16015  12.100  12.185   7.409 -0.1418  0.1587 -0.0508
 1127YOPC   C4B16016  12.526  12.106   7.754 -0.1290  0.1238 -0.0447
 1128ERGO   ROH16017   2.470  12.728  10.441  0.1215 -0.1274  0.1030
 1128ERGO    R116018   2.593  12.623  10.209  0.0728  0.0133  0.0135
 1128ERGO    R216019   2.461  12.457  10.032  0.0797  0.0100  0.0163
 1128ERGO    R316020   2.539  12.642   9.849 -0.0907  0.1090  0.0415
 1128ERGO    R416021   2.471  12.405   9.691  0.1619  0.0481  0.0123
 1128ERGO    R516022   2.658  12.517   9.684  0.0541  0.2413  0.0402
 1128ERGO    C116023   2.550  12.550   9.320  0.0499  0.1633  0.0335
 1128ERGO    C216024   2.657  12.450   8.925  0.0506  0.0238 -0.1245
 1129ERGO   ROH16025   7.926   5.384   6.452  0.0113 -0.0087  0.1919
 1129ERGO    R116026   7.769   5.455   6.677  0.0064 -0.0575  0.2063
 1129ERGO    R216027   7.807   5.343   6.928  0.1351  0.0294  0.2373
 1129ERGO    R316028   7.829   5.603   7.004 -0.0210  0.0666  0.1525
 1129ERGO    R416029   7.748   5.463   7.246  0.2234  0.0922  0.2289
 1129ERGO    R516030   7.650   5.636   7.159  0.0488 -0.0147  0.2375
 1129ERGO    C116031   7.734   5.776   7.503  0.1283  0.1638  0.1445
 1129ERGO    C216032   7.622   5.977   7.741 -0.0336 -0.2485  0.0589
 1130ERGO   ROH16033   4.665  13.888   6.915 -0.2261  0.0758  0.0396
 1130ERGO    R116034   4.808  13.932   7.155 -0.0542  0.0141 -0.0480
 1130ERGO    R216035   4.702  13.875   7.404 -0.0344  0.3147  0.0407
 1130ERGO    R316036   4.930  13.729   7.431 -0.2315 -0.0044  0.0160
 1130ERGO    R416037   4.889  13.853   7.693  0.1881  0.3813 -0.0973
 1130ERGO    R516038   5.070  13.863   7.572  0.1010 -0.0452 -0.2690
 1130ERGO    C116039   5.212  13.704   7.887  0.1326  0.1205 -0.2008
 1130ERGO    C216040   5.150  13.745   8.127 -0.2964 -0.0705 -0.3455
 1131ERGO   ROH16041   4.390  16.286   6.786 -0.4431 -0.4996 -0.0084
 1131ERGO    R116042   4.266  16.223   7.032 -0.3317 -0.2983  0.1063
 1131ERGO    R216043   4.373  16.294   7.276 -0.1511 -0.1992  0.0186
 1131ERGO    R316044   4.129  16.407   7.314 -0.0758 -0.0593  0.0722
 1131ERGO    R416045   4.240  16.375   7.584 -0.0948 -0.1749  0.0345
 1131ERGO    R516046   4.046  16.303   7.514 -0.1307 -0.0344  0.0459
 1131ERGO    C116047   3.932  16.528   7.800  0.0087 -0.0291  0.0940
 1131ERGO    C216048   3.766  16.789   8.082  0.2007  0.1805  0.2095
 1132ERGO   ROH16049  17.926   6.213   6.462 -0.2922  0.0351 -0.1965
 1132ERGO    R116050  17.859   6.161   6.732 -0.1086  0.1023 -0.1365
 1132ERGO    R216051  17.665   6.304   6.867  0.0535  0.2045 -0.0066
 1132ERGO    R316052  17.563   6.056   6.916 -0.0152  0.2542  0.1052
 1132ERGO    R416053  17.433   6.230   7.112 -0.0188  0.3918 -0.0177
 1132ERGO    R516054  17.542   6.046   7.154 -0.0710  0.3883  0.1064
 1132ERGO    C116055  17.202   5.956   7.301 -0.1251  0.5475  0.0808
 1132ERGO    C216056  16.972   5.890   7.483  0.1447  0.0583 -0.0528
 1133ERGO   ROH16057   6.751   5.830   6.637 -0.1738  0.1184 -0.0447
 1133ERGO    R116058   6.821   5.732   6.893 -0.0182 -0.0160 -0.1369
 1133ERGO    R216059   6.671   5.784   7.118  0.1969 -0.0089  0.0084
 1133ERGO    R316060   6.672   5.513   7.142  0.0592 -0.0196 -0.0935
 1133ERGO    R416061   6.550   5.608   7.390  0.3245 -0.0374  0.0475
 1133ERGO    R516062   6.720   5.474   7.373  0.2330 -0.1319 -0.1466
 1133ERGO    C116063   6.481   5.252   7.571  0.2695 -0.0640 -0.0253
 1133ERGO    C216064   6.178   5.302   7.710  0.2166 -0.0956  0.0077
 1134ERGO   ROH16065  13.058  16.714  10.175  0.0869  0.2490 -0.0505
 1134ERGO    R116066  12.992  16.574   9.938 -0.0173  0.1462  0.0389
 1134ERGO    R216067  12.793  16.659   9.765  0.0348  0.1740 -0.0057
 1134ERGO    R316068  12.993  16.642   9.581  0.0175 -0.0767 -0.0055
 1134ERGO    R416069  12.746  16.619   9.425 -0.0131  0.1316  0.0058
 1134ERGO    R516070  12.914  16.481   9.423 -0.1503 -0.0420  0.0389
 1134ERGO    C116071  12.905  16.580   9.055 -0.0573 -0.1286  0.0125
 1134ERGO    C216072  12.834  16.638   8.698  0.2797 -0.1454 -0.4325
 1135ERGO   ROH16073  10.945   4.612   7.497  0.1358 -0.0780 -0.1149
 1135ERGO    R116074  11.015   4.389   7.339  0.1095 -0.1496 -0.0255
 1135ERGO    R216075  11.250   4.248   7.375  0.0811 -0.1752  0.0451
 1135ERGO    R316076  11.082   4.035   7.395  0.0444 -0.1412  0.1112
 1135ERGO    R416077  11.330   3.925   7.284 -0.0444 -0.1786 -0.0572
 1135ERGO    R516078  11.130   3.904   7.200 -0.1012 -0.1202  0.0590
 1135ERGO    C116079  11.219   3.537   7.248 -0.1521 -0.1487 -0.0547
 1135ERGO    C216080  11.287   3.218   7.318  0.1850 -0.0487  0.2725
 1136ERGO   ROH16081  16.497   4.437  10.177 -0.0966  0.0156  0.1325
 1136ERGO    R116082  16.582   4.340   9.924 -0.0794 -0.0239  0.1533
 1136ERGO    R216083  16.406   4.285   9.719 -0.0633 -0.0347  0.1424
 1136ERGO    R316084  16.567   4.453   9.579 -0.0347 -0.0667  0.1371
 1136ERGO    R416085  16.419   4.305   9.374 -0.0045 -0.1038  0.1407
 1136ERGO    R516086  16.636   4.325   9.389 -0.0058 -0.1069  0.1740
 1136ERGO    C116087  16.579   4.473   9.042  0.0566 -0.1742  0.1348
 1136ERGO    C216088  16.670   4.410   8.681  0.1951  0.1426  0.1879
 1137ERGO   ROH16089   9.216   5.412   6.222  0.0314 -0.3091 -0.0663
 1137ERGO    R116090   9.213   5.392   6.504 -0.0034 -0.3230 -0.0672
 1137ERGO    R216091   9.437   5.324   6.651  0.0306 -0.1401 -0.0281
 1137ERGO    R316092   9.381   5.555   6.783 -0.1905 -0.1898 -0.0311
 1137ERGO    R416093   9.552   5.404   6.967 -0.1102 -0.0536  0.0020
 1137ERGO    R516094   9.356   5.488   7.011 -0.1897 -0.2167 -0.0406
 1137ERGO    C116095   9.566   5.667   7.275 -0.3997 -0.0500  0.0166
 1137ERGO    C216096   9.755   5.620   7.542  0.0471 -0.2383  0.0492
 1138ERGO   ROH16097  13.963   1.472   6.251  0.0729 -0.3567  0.0906
 1138ERGO    R116098  13.987   1.587   6.509  0.0565 -0.1871  0.0188
 1138ERGO    R216099  13.767   1.646   6.666  0.0363  0.0438 -0.0839
 1138ERGO    R316100  13.898   1.493   6.849 -0.0986  0.0971  0.0576
 1138ERGO    R416101  13.774   1.707   7.007 -0.2155  0.1295 -0.0923
 1138ERGO    R516102  13.984   1.650   7.008 -0.2199  0.1343  0.0818
 1138ERGO    C116103  13.901   1.598   7.376 -0.4887  0.2293  0.0356
 1138ERGO    C216104  13.926   1.783   7.681 -0.0596 -0.0073  0.0274
 1139ERGO   ROH16105  12.356   6.568   5.857  0.0518  0.1661 -0.1082
 1139ERGO    R116106  12.346   6.701   6.107  0.0528 -0.0478  0.0093
 1139ERGO    R216107  12.211   6.599   6.325  0.0435 -0.2327 -0.0764
 1139ERGO    R316108  12.451   6.631   6.448  0.0447 -0.3500 -0.0487
 1139ERGO    R416109  12.253   6.641   6.665 -0.0110  0.2164 -0.1201
 1139ERGO    R516110  12.407   6.790   6.622  0.1875 -0.0364 -0.2933
 1139ERGO    C116111  12.503   6.696   6.979 -0.0418  0.3678 -0.1195
 1139ERGO    C216112  12.617   6.551   7.191 -0.1634  0.0518  0.2851
 1140ERGO   ROH16113   0.335   1.957  10.553  0.1418 -0.1592  0.0314
 1140ERGO    R116114   0.233   2.074  10.317 -0.0167 -0.2100  0.0735
 1140ERGO    R216115   0.395   2.151  10.106 -0.1148  0.0780  0.0969
 1140ERGO    R316116   0.227   1.993   9.962  0.0887 -0.0977  0.0455
 1140ERGO    R416117   0.332   2.185   9.768  0.0161 -0.0496  0.0578
 1140ERGO    R516118   0.122   2.143   9.808  0.0329 -0.2212 -0.0365
 1140ERGO    C116119   0.137   2.058   9.436  0.2835 -0.2889 -0.0133
 1140ERGO    C216120   0.201   2.067   9.084  0.1431 -0.1474  0.1033
 1141ERGO   ROH16121  18.055  10.338  10.421  0.2049  0.1333  0.0454
 1141ERGO    R116122  17.941  10.381  10.165  0.1544  0.0115  0.0471
 1141ERGO    R216123  17.928  10.631  10.047  0.0554 -0.0330 -0.0333
 1141ERGO    R316124  18.055  10.504   9.843  0.0667 -0.0568 -0.0117
 1141ERGO    R416125  17.916  10.728   9.716  0.1168 -0.0309 -0.0350
 1141ERGO    R516126  17.902  10.519   9.659  0.0920 -0.0332 -0.0344
 1141ERGO    C116127  18.028  10.667   9.331  0.1631 -0.0522 -0.0159
 1141ERGO    C216128  18.108  10.697   8.949  0.0994  0.1351 -0.2375
 1142ERGO   ROH16129  16.299  11.573   6.216  0.1665 -0.2398 -0.2456
 1142ERGO    R116130  16.416  11.467   6.451  0.1616  0.0667 -0.0997
 1142ERGO    R216131  16.426  11.608   6.688 -0.2299  0.2187 -0.1630
 1142ERGO    R316132  16.304  11.387   6.788  0.0353  0.0807 -0.1378
 1142ERGO    R416133  16.414  11.523   7.023 -0.2552  0.3224 -0.1377
 1142ERGO    R516134  16.447  11.315   6.966  0.0607  0.3444 -0.0494
 1142ERGO    C116135  16.292  11.266   7.311 -0.0210  0.2532 -0.0993
 1142ERGO    C216136  16.304  11.252   7.662  0.4976  0.0699 -0.2111
 1143ERGO   ROH16137   9.370   9.713   6.569 -0.2469 -0.0545  0.1824
 1143ERGO    R116138   9.509   9.603   6.790 -0.0998 -0.0007  0.1186
 1143ERGO    R216139   9.784   9.617   6.814 -0.0818  0.0254 -0.0555
 1143ERGO    R316140   9.725   9.727   7.056  0.0581  0.0697 -0.0409
 1143ERGO    R416141  10.000   9.630   7.084 -0.0414 -0.2193 -0.0744
 1143ERGO    R516142   9.831   9.583   7.215 -0.0764 -0.0532 -0.0625
 1143ERGO    C116143  10.070   9.741   7.468  0.1135 -0.3203 -0.0717
 1143ERGO    C216144  10.369   9.822   7.554 -0.2999  0.0613  0.2808
 1144ERGO   ROH16145   7.827  10.812  10.033 -0.0661 -0.2114 -0.0716
 1144ERGO    R116146   7.788  10.739   9.763 -0.1896 -0.0635 -0.0954
 1144ERGO    R216147   7.662  10.905   9.580  0.0987  0.2159 -0.0499
 1144ERGO    R316148   7.890  10.866   9.437  0.0406 -0.1392 -0.0537
 1144ERGO    R416149   7.676  10.863   9.237  0.0397  0.3504 -0.0695
 1144ERGO    R516150   7.828  10.709   9.267 -0.2409  0.0514 -0.1318
 1144ERGO    C116151   7.898  10.801   8.904 -0.0492  0.0955 -0.0845
 1144ERGO    C216152   7.815  10.857   8.588  0.0708  0.1568 -0.0474
 1145ERGO   ROH16153   9.797  14.683   6.657 -0.0372  0.0260 -0.0206
 1145ERGO    R116154   9.851  14.636   6.930  0.0711  0.0428 -0.0390
 1145ERGO    R216155   9.775  14.403   7.059 -0.0025  0.1117  0.0382
 1145ERGO    R316156  10.039  14.392   7.125  0.0242 -0.0339 -0.0881
 1145ERGO    R416157   9.899  14.287   7.360  0.0722  0.0541 -0.0141
 1145ERGO    R516158  10.045  14.449   7.357  0.1648 -0.0256 -0.0906
 1145ERGO    C116159  10.218  14.209   7.597  0.1409 -0.1162 -0.1629
 1145ERGO    C216160  10.395  14.267   7.937 -0.1126 -0.2836 -0.1338
 1146ERGO   ROH16161  16.114   7.264  10.063  0.0719 -0.0324  0.0656
 1146ERGO    R116162  16.280   7.285   9.835  0.0596 -0.2254  0.0380
 1146ERGO    R216163  16.301   7.083   9.647 -0.3694 -0.1719 -0.0739
 1146ERGO    R316164  16.235   7.281   9.474 -0.0372  0.0520  0.0438
 1146ERGO    R416165  16.377   7.085   9.310 -0.3585 -0.1033 -0.0714
 1146ERGO    R516166  16.422   7.298   9.326  0.0010 -0.1777  0.0580
 1146ERGO    C116167  16.359   7.273   8.951 -0.0402  0.1469  0.0406
 1146ERGO    C216168  16.362   7.265   8.604 -0.1332 -0.1040  0.0983
 1147ERGO   ROH16169  15.247  14.715   6.484 -0.1838 -0.1718  0.0471
 1147ERGO    R116170  15.092  14.877   6.657 -0.1900 -0.1366  0.0071
 1147ERGO    R216171  14.953  14.775   6.872 -0.0641 -0.0687  0.1155
 1147ERGO    R316172  15.093  14.963   7.010 -0.0987  0.0763 -0.0418
 1147ERGO    R416173  14.887  14.869   7.198  0.0034  0.0830  0.0873
 1147ERGO    R516174  14.926  15.076   7.141 -0.1106  0.0741 -0.0477
 1147ERGO    C116175  14.980  15.100   7.518  0.0101  0.3076 -0.0767
 1147ERGO    C216176  15.034  15.263   7.815 -0.0618 -0.2874  0.1003
 1148ERGO   ROH16177   0.840   8.621   6.707  0.1740 -0.1097 -0.1174
 1148ERGO    R116178   0.925   8.633   6.977  0.1783  0.0184 -0.1252
 1148ERGO    R216179   0.821   8.812   7.159  0.0227 -0.0492 -0.1589
 1148ERGO    R316180   0.774   8.587   7.304  0.2407 -0.0646 -0.1049
 1148ERGO    R416181   0.770   8.805   7.500 -0.3640  0.0507 -0.2088
 1148ERGO    R516182   0.891   8.624   7.510 -0.0513  0.2520  0.0206
 1148ERGO    C116183   0.695   8.591   7.836 -0.3845  0.0946 -0.1872
 1148ERGO    C216184   0.684   8.538   8.194 -0.2442  0.4413  0.2378
 1149ERGO   ROH16185   6.868   8.802   6.169  0.2916  0.0188 -0.0303
 1149ERGO    R116186   6.790   8.851   6.436  0.1263 -0.0199 -0.0700
 1149ERGO    R216187   6.669   8.659   6.594  0.2435 -0.1188 -0.0961
 1149ERGO    R316188   6.872   8.718   6.765  0.1157  0.1042 -0.0174
 1149ERGO    R416189   6.636   8.695   6.936  0.0797 -0.1626 -0.1064
 1149ERGO    R516190   6.774   8.864   6.927 -0.1049 -0.0094 -0.0488
 1149ERGO    C116191   6.808   8.772   7.295 -0.1356  0.0212 -0.0384
 1149ERGO    C216192   6.998   8.904   7.543 -0.1710  0.0168  0.2221
 1150ERGO   ROH16193   9.699  10.817   6.543 -0.2410 -0.1395  0.0636
 1150ERGO    R116194   9.638  10.880   6.812 -0.1410 -0.0768  0.0707
 1150ERGO    R216195   9.460  10.732   6.962 -0.0738 -0.0444  0.1702
 1150ERGO    R316196   9.669  10.717   7.135 -0.0124  0.0066  0.1036
 1150ERGO    R416197   9.443  10.604   7.283  0.0702 -0.1443  0.1399
 1150ERGO    R516198   9.574  10.765   7.349  0.0188 -0.0947  0.1472
 1150ERGO    C116199   9.630  10.514   7.632  0.2116 -0.1546  0.0597
 1150ERGO    C216200   9.533  10.584   7.945  0.1262  0.0094 -0.1820
 1151ERGO   ROH16201   5.270   3.676   6.514  0.0108  0.0131  0.0602
 1151ERGO    R116202   5.284   3.582   6.780  0.0007  0.0422  0.0710
 1151ERGO    R216203   5.513   3.601   6.934 -0.0152  0.0868  0.0876
 1151ERGO    R316204   5.346   3.725   7.109 -0.0448  0.0832  0.0624
 1151ERGO    R416205   5.586   3.659   7.266  0.0165  0.2626  0.0510
 1151ERGO    R516206   5.380   3.607   7.315  0.0477  0.1848  0.1080
 1151ERGO    C116207   5.472   3.809   7.625  0.0072  0.3616  0.0061
 1151ERGO    C216208   5.701   3.939   7.955 -0.0537  0.1363  0.0547
 1152ERGO   ROH16209   9.021   1.045   6.652 -0.0447 -0.0443 -0.0006
 1152ERGO    R116210   8.904   0.961   6.896  0.2810  0.0410  0.1910
 1152ERGO    R216211   8.721   0.755   6.910 -0.0693  0.3590  0.4322
 1152ERGO    R316212   8.895   0.656   7.094  0.1269 -0.0532  0.0451
 1152ERGO    R416213   8.655   0.487   7.118 -0.1369  0.3236  0.3648
 1152ERGO    R516214   8.756   0.595   7.280  0.3554  0.0595  0.2669
 1152ERGO    C116215   8.781   0.238   7.412  0.0079 -0.0839 -0.0378
 1152ERGO    C216216   8.824  -0.064   7.371 -0.2106  0.1214  0.1058
 1153ERGO   ROH16217   5.992  10.345   6.249  0.0731 -0.2052  0.0377
 1153ERGO    R116218   5.835  10.270   6.472  0.0544 -0.1334  0.0494
 1153ERGO    R216219   5.902  10.059   6.637  0.0392 -0.0820  0.1225
 1153ERGO    R316220   5.880  10.248   6.832  0.0253 -0.0194  0.0603
 1153ERGO    R416221   5.872   9.991   6.975  0.1882  0.0282  0.1589
 1153ERGO    R516222   5.726  10.152   6.989  0.1220 -0.0305  0.1499
 1153ERGO    C116223   5.833  10.128   7.354  0.2619  0.1511  0.1217
 1153ERGO    C216224   5.872   9.915   7.581  0.1211 -0.0285  0.0839
 1154ERGO   ROH16225  12.787  13.631   7.787 -0.0212  0.0386  0.1830
 1154ERGO    R116226  12.633  13.394   7.764  0.0436  0.0050  0.0931
 1154ERGO    R216227  12.584  13.227   7.978 -0.0163 -0.0248  0.0543
 1154ERGO    R316228  12.325  13.265   7.907  0.0089 -0.0813 -0.0591
 1154ERGO    R416229  12.328  13.006   8.046 -0.0394  0.0337  0.1582
 1154ERGO    R516230  12.247  13.046   7.847  0.0256 -0.1311  0.1001
 1154ERGO    C116231  11.934  12.912   8.019 -0.0293  0.0147  0.1122
 1154ERGO    C216232  11.810  12.621   8.089 -0.1390  0.4678 -0.0516
 1155ERGO   ROH16233   6.553  16.496   6.925  0.0312  0.0047  0.2508
 1155ERGO    R116234   6.589  16.340   7.158  0.1441  0.0178  0.2431
 1155ERGO    R216235   6.752  16.117   7.165  0.0853 -0.0303  0.1551
 1155ERGO    R316236   6.867  16.247   7.374  0.2650 -0.0401  0.0640
 1155ERGO    R416237   6.955  15.969   7.402 -0.0117 -0.1172  0.1841
 1155ERGO    R516238   6.857  16.090   7.555  0.1449  0.0606  0.1456
 1155ERGO    C116239   7.181  16.004   7.736  0.1004 -0.1771  0.1154
 1155ERGO    C216240   7.418  15.790   8.070  0.0082  0.0771 -0.0894
 1156ERGO   ROH16241  15.962   3.811   6.309 -0.1272  0.3246  0.0345
 1156ERGO    R116242  15.885   3.837   6.580  0.1072  0.2400  0.1113
 1156ERGO    R216243  15.688   3.681   6.695  0.0305  0.3759  0.1603
 1156ERGO    R316244  15.883   3.626   6.876  0.1134  0.0584 -0.0156
 1156ERGO    R416245  15.640   3.508   6.990 -0.0048  0.5019  0.2296
 1156ERGO    R516246  15.775   3.648   7.088  0.3447  0.2864  0.0869
 1156ERGO    C116247  15.795   3.356   7.332  0.0524  0.2772  0.1047
 1156ERGO    C216248  15.726   3.201   7.572  0.2057  0.2555  0.1165
 1157ERGO   ROH16249   8.497   9.720   6.863 -0.1097 -0.1617  0.0388
 1157ERGO    R116250   8.498   9.491   7.030  0.1156 -0.0995  0.1278
 1157ERGO    R216251   8.701   9.441   7.212  0.1106  0.2310  0.2404
 1157ERGO    R316252   8.494   9.425   7.388  0.0484  0.0384  0.1515
 1157ERGO    R416253   8.724   9.315   7.533  0.0628  0.1828  0.2239
 1157ERGO    R516254   8.530   9.219   7.504  0.1503  0.0449  0.1240
 1157ERGO    C116255   8.543   9.227   7.885 -0.0234 -0.0261  0.1309
 1157ERGO    C216256   8.426   9.067   8.001  0.2529  0.4055  0.0293
 1158ERGO   ROH16257  18.078  13.507   6.596  0.2844 -0.1846 -0.0351
 1158ERGO    R116258  18.151  13.381   6.839  0.4769 -0.1106 -0.0525
 1158ERGO    R216259  18.370  13.460   6.988  0.2655  0.3192  0.0463
 1158ERGO    R316260  18.187  13.479   7.188  0.1467 -0.1400 -0.0065
 1158ERGO    R416261  18.445  13.443   7.324  0.1911  0.3453  0.0640
 1158ERGO    R516262  18.264  13.323   7.353  0.4210 -0.0507 -0.0438
 1158ERGO    C116263  18.318  13.451   7.709  0.0363 -0.0706  0.0248
 1158ERGO    C216264  18.454  13.445   8.052  0.2246 -0.1094 -0.2912
 1159ERGO   ROH16265  12.677   1.729   9.734  0.0646  0.2542  0.0405
 1159ERGO    R116266  12.755   1.726   9.462  0.1045  0.3159  0.0514
 1159ERGO    R216267  12.600   1.611   9.264  0.2719  0.0950  0.0463
 1159ERGO    R316268  12.624   1.856   9.148 -0.0187  0.1133  0.0167
 1159ERGO    R416269  12.588   1.671   8.924  0.3902  0.0097  0.0263
 1159ERGO    R516270  12.749   1.815   8.948  0.1671  0.2565  0.0998
 1159ERGO    C116271  12.604   1.936   8.617  0.1864 -0.0228 -0.0134
 1159ERGO    C216272  12.646   1.921   8.290 -0.1407  0.2374  0.0783
 1160ERGO   ROH16273   7.894   1.750   6.432 -0.1435  0.1110  0.0247
 1160ERGO    R116274   7.732   1.675   6.652 -0.1228  0.0886  0.0336
 1160ERGO    R216275   7.753   1.795   6.900 -0.1327  0.0998  0.0361
 1160ERGO    R316276   7.487   1.835   6.867 -0.1384  0.0559  0.0368
 1160ERGO    R416277   7.542   1.920   7.143 -0.1705  0.0301  0.0382
 1160ERGO    R516278   7.391   1.775   7.078 -0.1380  0.0162  0.0195
 1160ERGO    C116279   7.168   2.030   7.253 -0.1979 -0.0517  0.0401
 1160ERGO    C216280   7.019   2.267   7.232 -0.0430  0.0029  0.0448
 1161ERGO   ROH16281  13.974   8.248   5.873  0.1611  0.1384 -0.1508
 1161ERGO    R116282  14.112   8.181   6.112  0.0143 -0.0062 -0.1057
 1161ERGO    R216283  14.177   8.369   6.304  0.1894 -0.0653 -0.1094
 1161ERGO    R316284  14.045   8.198   6.469 -0.0651  0.1102 -0.1248
 1161ERGO    R416285  14.129   8.418   6.642  0.3389 -0.0591 -0.0880
 1161ERGO    R516286  14.167   8.206   6.674 -0.0044 -0.1391 -0.1452
 1161ERGO    C116287  13.977   8.287   6.994  0.1871  0.1093 -0.0899
 1161ERGO    C216288  14.030   8.273   7.408  0.3882  0.0799 -0.3045
 1162ERGO   ROH16289  14.255   1.489  10.137  0.0049  0.1047 -0.1266
 1162ERGO    R116290  14.350   1.614   9.902 -0.1108  0.2379 -0.1035
 1162ERGO    R216291  14.535   1.495   9.734  0.0942  0.4915 -0.0599
 1162ERGO    R316292  14.346   1.543   9.545  0.0706  0.2327 -0.1059
 1162ERGO    R416293  14.565   1.411   9.400  0.1532  0.2386  0.0063
 1162ERGO    R516294  14.472   1.601   9.349  0.0451  0.1483 -0.1500
 1162ERGO    C116295  14.405   1.407   9.028  0.1654 -0.1516  0.0018
 1162ERGO    C216296  14.414   1.336   8.739 -0.0443  0.1720 -0.0485
 1163ERGO   ROH16297   0.925   0.565   6.921 -0.2260  0.1022 -0.0696
 1163ERGO    R116298   1.033   0.453   7.158 -0.0734  0.0648 -0.1549
 1163ERGO    R216299   1.130   0.609   7.364 -0.0992  0.0358 -0.1213
 1163ERGO    R316300   0.955   0.463   7.513  0.0431 -0.1397 -0.1223
 1163ERGO    R416301   1.049   0.674   7.694 -0.1983 -0.0185 -0.1343
 1163ERGO    R516302   1.052   0.459   7.732  0.0298 -0.0139 -0.1135
 1163ERGO    C116303   0.837   0.575   8.025 -0.1225 -0.2148 -0.1430
 1163ERGO    C216304   0.582   0.561   8.267 -0.1037  0.2873 -0.0532
 1164ERGO   ROH16305  12.465   0.820  10.105  0.0590 -0.0958 -0.0431
 1164ERGO    R116306  12.506   0.652   9.881 -0.0193 -0.0463 -0.0951
 1164ERGO    R216307  12.331   0.643   9.668 -0.0490  0.0642 -0.0755
 1164ERGO    R316308  12.554   0.696   9.523 -0.0526  0.0376 -0.0900
 1164ERGO    R416309  12.345   0.647   9.323 -0.0446 -0.0731 -0.0772
 1164ERGO    R516310  12.539   0.548   9.335 -0.0292 -0.0418 -0.0316
 1164ERGO    C116311  12.563   0.699   8.986 -0.0454 -0.1779 -0.0918
 1164ERGO    C216312  12.541   0.784   8.655 -0.1280 -0.4106  0.1774
 1165ERGO   ROH16313   7.228  10.602   6.435 -0.1848  0.1036  0.0062
 1165ERGO    R116314   7.397  10.591   6.662 -0.1099 -0.0693 -0.0559
 1165ERGO    R216315   7.382  10.775   6.868  0.1216 -0.0801 -0.0234
 1165ERGO    R316316   7.355  10.552   7.021 -0.0142 -0.0793 -0.0463
 1165ERGO    R416317   7.446  10.759   7.207  0.0779 -0.1511 -0.0188
 1165ERGO    R516318   7.536  10.563   7.176 -0.0259 -0.1951 -0.0268
 1165ERGO    C116319   7.457  10.540   7.549 -0.0750 -0.1918 -0.0376
 1165ERGO    C216320   7.598  10.598   7.738 -0.0725 -0.0213  0.0672
 1166ERGO   ROH16321  17.286   7.808   6.521 -0.1879 -0.0389 -0.0547
 1166ERGO    R116322  17.350   7.804   6.797 -0.2029  0.0754 -0.0499
 1166ERGO    R216323  17.159   7.770   6.993 -0.1858 -0.0405 -0.0590
 1166ERGO    R316324  17.322   7.567   7.071 -0.0215  0.1124  0.0037
 1166ERGO    R416325  17.126   7.594   7.289 -0.0093  0.0769  0.0324
 1166ERGO    R516326  17.344   7.597   7.308 -0.0001  0.2442 -0.0098
 1166ERGO    C116327  17.260   7.301   7.535  0.2478  0.2888  0.1445
 1166ERGO    C216328  17.127   7.125   7.665 -0.1036  0.1005 -0.1557
 1167ERGO   ROH16329  14.298   3.880   9.800 -0.2578 -0.0637 -0.1532
 1167ERGO    R116330  14.433   3.941   9.559 -0.0860 -0.0485 -0.0546
 1167ERGO    R216331  14.588   3.756   9.424 -0.0865 -0.0757 -0.0189
 1167ERGO    R316332  14.427   3.822   9.215  0.0661  0.0602 -0.0956
 1167ERGO    R416333  14.667   3.710   9.091 -0.0200 -0.2560  0.0206
 1167ERGO    R516334  14.578   3.903   9.047  0.2232 -0.1600 -0.0641
 1167ERGO    C116335  14.562   3.745   8.701  0.1618 -0.2334 -0.0283
 1167ERGO    C216336  14.771   3.719   8.404 -0.3397  0.0388  0.0280
 1168ERGO   ROH16337  16.174  14.389   6.561  0.2112  0.1091  0.0439
 1168ERGO    R116338  16.167  14.490   6.826  0.0862  0.1967  0.0088
 1168ERGO    R216339  15.942  14.605   6.935 -0.0345  0.0359 -0.0620
 1168ERGO    R316340  15.981  14.420   7.130  0.1055  0.1360  0.0063
 1168ERGO    R416341  15.819  14.629   7.257 -0.1971 -0.0212 -0.1191
 1168ERGO    R516342  16.008  14.549   7.330 -0.1314  0.2247 -0.0173
 1168ERGO    C116343  15.784  14.468   7.628 -0.1604  0.0396 -0.0883
 1168ERGO    C216344  15.670  14.336   8.006 -0.2977  0.3868  0.0068
 1169ERGO   ROH16345   7.418  12.350   6.286 -0.2470 -0.0761  0.1117
 1169ERGO    R116346   7.508  12.502   6.507 -0.0294 -0.1485  0.0767
 1169ERGO    R216347   7.371  12.724   6.601  0.2430  0.0301  0.0731
 1169ERGO    R316348   7.381  12.589   6.837  0.1255  0.0452  0.0861
 1169ERGO    R416349   7.277  12.853   6.907  0.2702  0.1122  0.0457
 1169ERGO    R516350   7.448  12.754   6.997  0.1961  0.0192  0.0816
 1169ERGO    C116351   7.232  12.803   7.307  0.1757  0.1743  0.0420
 1169ERGO    C216352   7.065  12.660   7.611  0.1870  0.2493  0.2755
 1170ERGO   ROH16353   4.410  11.636   6.588 -0.0707  0.1735  0.1274
 1170ERGO    R116354   4.461  11.428   6.772  0.0766  0.0519 -0.0473
 1170ERGO    R216355   4.715  11.331   6.821  0.1375  0.1335 -0.1878
 1170ERGO    R316356   4.652  11.386   7.079  0.1749 -0.0965 -0.1277
 1170ERGO    R416357   4.918  11.263   7.092  0.2874  0.1271 -0.3007
 1170ERGO    R516358   4.741  11.201   7.203  0.3787 -0.1033 -0.2814
 1170ERGO    C116359   4.978  11.276   7.493  0.4098 -0.0927 -0.3101
 1170ERGO    C216360   5.220  11.326   7.760 -0.1007  0.0847 -0.1505
 1171ERGO   ROH16361  17.418  10.976   6.375  0.2370  0.0735  0.0650
 1171ERGO    R116362  17.445  11.009   6.655 -0.0394  0.1102  0.0899
 1171ERGO    R216363  17.232  10.980   6.829 -0.1481 -0.1862 -0.0853
 1171ERGO    R316364  17.398  10.802   6.951  0.0016  0.0408  0.0486
 1171ERGO    R416365  17.170  10.826   7.132 -0.1031 -0.1414 -0.0533
 1171ERGO    R516366  17.380  10.853   7.184 -0.1499  0.1102  0.0234
 1171ERGO    C116367  17.290  10.570   7.423  0.0637  0.0979  0.0911
 1171ERGO    C216368  17.295  10.589   7.844  0.0285 -0.0966 -0.3029
 1172ERGO   ROH16369  14.827   2.178   6.077 -0.0875  0.0480  0.0086
 1172ERGO    R116370  14.669   2.150   6.310 -0.1066  0.0765 -0.0005
 1172ERGO    R216371  14.755   2.233   6.559 -0.0442 -0.0755  0.0308
 1172ERGO    R316372  14.522   2.372   6.557  0.0549  0.0939  0.0815
 1172ERGO    R416373  14.587   2.340   6.841 -0.0463 -0.1999  0.0768
 1172ERGO    R516374  14.400   2.285   6.745 -0.0597  0.0167 -0.0268
 1172ERGO    C116375  14.270   2.533   7.004  0.0455 -0.1133  0.1513
 1172ERGO    C216376  14.003   2.705   7.049  0.1658  0.1208 -0.0824
 1173ERGO   ROH16377   8.088  14.142  10.375  0.3796 -0.0022  0.0346
 1173ERGO    R116378   7.989  14.138  10.110  0.1370 -0.0975  0.1242
 1173ERGO    R216379   8.047  14.336   9.926 -0.0697 -0.1398  0.0137
 1173ERGO    R316380   8.131  14.126   9.775 -0.1677 -0.1650 -0.0064
 1173ERGO    R416381   8.029  14.322   9.581  0.0481 -0.0328  0.0021
 1173ERGO    R516382   7.970  14.113   9.598 -0.1155  0.0027 -0.0722
 1173ERGO    C116383   8.097  14.116   9.238  0.0245  0.0059 -0.0234
 1173ERGO    C216384   8.047  14.331   8.837  0.1494 -0.0303 -0.3703
 1174ERGO   ROH16385  15.006   6.266   6.271 -0.2633 -0.0828 -0.1562
 1174ERGO    R116386  14.836   6.457   6.392 -0.2378 -0.2369  0.1313
 1174ERGO    R216387  14.807   6.477   6.667  0.3777 -0.1269  0.2040
 1174ERGO    R316388  14.875   6.736   6.622 -0.0572 -0.0559 -0.1143
 1174ERGO    R416389  14.802   6.728   6.905  0.4713  0.0359  0.0363
 1174ERGO    R516390  14.722   6.863   6.755  0.0051 -0.1762  0.0768
 1174ERGO    C116391  14.865   7.117   7.001  0.1175  0.1974 -0.3602
 1174ERGO    C216392  14.976   7.166   7.254  0.0193  0.0886  0.1227
 1175ERGO   ROH16393   5.357  14.882   6.934  0.1308  0.2323  0.0359
 1175ERGO    R116394   5.287  14.768   7.183 -0.0207  0.2406 -0.0028
 1175ERGO    R216395   5.469  14.632   7.341 -0.1992 -0.0533 -0.0499
 1175ERGO    R316396   5.387  14.809   7.530  0.0356 -0.0088  0.0139
 1175ERGO    R416397   5.441  14.561   7.678 -0.3390 -0.1631 -0.0828
 1175ERGO    R516398   5.256  14.678   7.682 -0.1776  0.1094 -0.0580
 1175ERGO    C116399   5.348  14.687   8.052 -0.2000 -0.1851 -0.0422
 1175ERGO    C216400   5.316  14.776   8.401  0.3766  0.1781 -0.2720
 1176ERGO   ROH16401  11.927  17.618   5.876  0.0927  0.2284 -0.0334
 1176ERGO    R116402  12.014  17.530   6.130 -0.0609 -0.0696 -0.0797
 1176ERGO    R216403  12.109  17.703   6.323  0.2584 -0.3407  0.0143
 1176ERGO    R316404  11.917  17.587   6.477  0.0434 -0.0802 -0.0480
 1176ERGO    R416405  11.976  17.841   6.611  0.2489 -0.0920 -0.1059
 1176ERGO    R516406  11.979  17.642   6.701 -0.0173 -0.0690 -0.0324
 1176ERGO    C116407  11.719  17.811   6.923  0.0414  0.2970 -0.2344
 1176ERGO    C216408  11.517  18.021   7.101 -0.1435 -0.2428 -0.0304
 1177ERGO   ROH16409   9.650   3.602   9.850 -0.0970  0.0294  0.1575
 1177ERGO    R116410   9.494   3.511   9.631 -0.2208  0.1613  0.1884
 1177ERGO    R216411   9.349   3.683   9.471  0.1158  0.3248  0.0431
 1177ERGO    R316412   9.489   3.563   9.271 -0.0519 -0.0657  0.1513
 1177ERGO    R416413   9.227   3.622   9.153  0.0101  0.1437  0.1175
 1177ERGO    R516414   9.327   3.428   9.157 -0.2344  0.0173  0.3095
 1177ERGO    C116415   9.287   3.474   8.781 -0.2088 -0.3285  0.2625
 1177ERGO    C216416   9.170   3.564   8.457 -0.2999 -0.0839  0.1669
 1178ERGO   ROH16417  16.332   5.429   6.732  0.1693  0.0223  0.0238
 1178ERGO    R116418  16.470   5.372   6.973  0.1001  0.1591  0.0966
 1178ERGO    R216419  16.480   5.550   7.184 -0.2286  0.1535  0.1218
 1178ERGO    R316420  16.384   5.339   7.325 -0.0636  0.0242  0.0452
 1178ERGO    R416421  16.466   5.532   7.529 -0.0735 -0.0488  0.1199
 1178ERGO    R516422  16.527   5.323   7.516  0.0257 -0.0128 -0.0238
 1178ERGO    C116423  16.367   5.323   7.862  0.1713 -0.2879  0.0468
 1178ERGO    C216424  16.242   5.169   8.187  0.1597 -0.1234 -0.2422
 1179ERGO   ROH16425   6.347   3.366   6.603 -0.1194  0.0349  0.1274
 1179ERGO    R116426   6.456   3.455   6.849 -0.0836  0.0895  0.0925
 1179ERGO    R216427   6.574   3.703   6.878 -0.0209  0.0732  0.0046
 1179ERGO    R316428   6.396   3.728   7.082 -0.0052  0.1814  0.0051
 1179ERGO    R416429   6.533   3.987   7.072  0.0529  0.1425 -0.0813
 1179ERGO    R516430   6.511   3.858   7.247  0.0303  0.2052 -0.0413
 1179ERGO    C116431   6.342   4.175   7.375  0.1106  0.2845 -0.1309
 1179ERGO    C216432   6.247   4.357   7.670 -0.3100 -0.1544  0.1740
 1180ERGO   ROH16433   1.797  18.189   6.692  0.0025 -0.0423  0.1426
 1180ERGO    R116434   1.689  18.100   6.938  0.1069  0.0629  0.2293
 1180ERGO    R216435   1.661  17.832   6.999 -0.2728  0.0785  0.1760
 1180ERGO    R316436   1.805  17.900   7.219  0.0803 -0.2136  0.0462
 1180ERGO    R416437   1.613  17.700   7.315 -0.3187  0.2527  0.2409
 1180ERGO    R516438   1.645  17.900   7.397  0.2223  0.2011  0.1819
 1180ERGO    C116439   1.720  17.688   7.706 -0.0140  0.0802  0.1568
 1180ERGO    C216440   1.644  17.515   7.902 -0.1374 -0.0382  0.0814
 1181ERGO   ROH16441   8.820  17.565   6.593  0.0825  0.1325  0.0697
 1181ERGO    R116442   8.670  17.541   6.832 -0.0973  0.1651 -0.0377
 1181ERGO    R216443   8.788  17.534   7.082 -0.2553 -0.1502  0.0360
 1181ERGO    R316444   8.617  17.740   7.132 -0.0257  0.0385  0.0588
 1181ERGO    R416445   8.677  17.627   7.396 -0.0855  0.0016  0.0523
 1181ERGO    R516446   8.479  17.660   7.311 -0.0702  0.2049  0.0978
 1181ERGO    C116447   8.453  17.874   7.626  0.2286  0.2676  0.0832
 1181ERGO    C216448   8.555  18.023   7.990 -0.1002  0.4988 -0.0737
 1182ERGO   ROH16449   4.176  17.313   6.681  0.0146  0.2440 -0.0623
 1182ERGO    R116450   4.278  17.233   6.933 -0.0046  0.0541 -0.1128
 1182ERGO    R216451   4.528  17.310   7.022 -0.0420  0.0528 -0.0022
 1182ERGO    R316452   4.388  17.398   7.238 -0.1079 -0.1782  0.0522
 1182ERGO    R416453   4.670  17.425   7.316 -0.1272  0.0889  0.0251
 1182ERGO    R516454   4.514  17.320   7.426 -0.0021 -0.1190  0.0050
 1182ERGO    C116455   4.621  17.576   7.689 -0.2388 -0.1071  0.0920
 1182ERGO    C216456   4.876  17.507   7.955 -0.1363  0.2124 -0.2531
 1183ERGO   ROH16457   9.386   1.319  10.075  0.0151 -0.1984  0.0105
 1183ERGO    R116458   9.290   1.137   9.882 -0.1040 -0.1087 -0.0156
 1183ERGO    R216459   9.112   1.210   9.684 -0.0709  0.0314  0.0073
 1183ERGO    R316460   9.301   1.106   9.519 -0.1422 -0.0547 -0.0218
 1183ERGO    R416461   9.083   1.186   9.340 -0.0378  0.2648 -0.0133
 1183ERGO    R516462   9.176   0.989   9.351 -0.2289  0.1649 -0.1139
 1183ERGO    C116463   9.244   1.075   8.986 -0.0854  0.3199 -0.0527
 1183ERGO    C216464   9.192   1.048   8.658  0.1010 -0.1767 -0.0552
 1184ERGO   ROH16465  17.927   5.006   6.509  0.0015  0.0859  0.1568
 1184ERGO    R116466  18.020   5.034   6.775 -0.0149  0.2501  0.1462
 1184ERGO    R216467  17.870   5.156   6.973 -0.1150  0.1822  0.1168
 1184ERGO    R316468  17.914   4.923   7.105  0.0917  0.2623  0.1823
 1184ERGO    R416469  17.861   5.119   7.316 -0.1063  0.2588  0.1251
 1184ERGO    R516470  18.034   4.988   7.302  0.0120  0.4210  0.1745
 1184ERGO    C116471  17.898   4.879   7.641  0.0927  0.3785  0.1915
 1184ERGO    C216472  17.775   4.959   7.929 -0.1647  0.0814 -0.0192
 1185ERGO   ROH16473  15.053  16.556   6.409 -0.2331  0.0479  0.0613
 1185ERGO    R116474  15.033  16.484   6.682 -0.1612 -0.0346  0.0448
 1185ERGO    R216475  15.078  16.664   6.887 -0.1344 -0.0910  0.0856
 1185ERGO    R316476  14.831  16.584   6.968 -0.1061 -0.1429  0.1230
 1185ERGO    R416477  14.956  16.695   7.209 -0.1291 -0.0137  0.0807
 1185ERGO    R516478  14.865  16.498   7.188 -0.0667 -0.0530  0.1544
 1185ERGO    C116479  14.653  16.638   7.472 -0.0995 -0.0175  0.1130
 1185ERGO    C216480  14.687  16.776   7.834  0.0006  0.2497  0.0623
 1186ERGO   ROH16481  12.554   5.358   9.767  0.1012  0.1773  0.0925
 1186ERGO    R116482  12.490   5.492   9.527  0.0798  0.1840  0.1015
 1186ERGO    R216483  12.683   5.598   9.360  0.0750  0.0454  0.0028
 1186ERGO    R316484  12.558   5.447   9.172 -0.0986  0.0935  0.0785
 1186ERGO    R416485  12.731   5.627   9.019 -0.1113  0.0114 -0.0270
 1186ERGO    R516486  12.517   5.598   8.991 -0.1384  0.1029  0.0974
 1186ERGO    C116487  12.641   5.502   8.644 -0.3828  0.0369  0.0266
 1186ERGO    C216488  12.610   5.425   8.237  0.1740  0.2509 -0.4115
 1187ERGO   ROH16489  11.593   9.250   6.335  0.0447 -0.1698  0.2063
 1187ERGO    R116490  11.582   9.407   6.571 -0.3328 -0.0534  0.1172
 1187ERGO    R216491  11.353   9.425   6.726 -0.3897 -0.5149  0.1011
 1187ERGO    R316492  11.522   9.347   6.925 -0.1902  0.0014  0.1514
 1187ERGO    R416493  11.261   9.375   7.055 -0.2500 -0.4594  0.1497
 1187ERGO    R516494  11.448   9.469   7.117 -0.4368 -0.0011  0.0625
 1187ERGO    C116495  11.366   9.272   7.433  0.0187  0.0575  0.2252
 1187ERGO    C216496  11.405   8.992   7.575  0.1866 -0.4291 -0.0424
 1188ERGO   ROH16497  16.974  14.825   6.386 -0.0348  0.0599  0.0236
 1188ERGO    R116498  16.934  14.970   6.626 -0.1530 -0.0658  0.0812
 1188ERGO    R216499  16.827  14.855   6.853 -0.0207 -0.2556  0.0514
 1188ERGO    R316500  17.053  14.950   6.970 -0.0994 -0.0780  0.0618
 1188ERGO    R416501  16.894  14.842   7.192  0.0360 -0.3263  0.0375
 1188ERGO    R516502  16.978  15.043   7.177 -0.1655 -0.2368  0.1092
 1188ERGO    C116503  17.146  14.924   7.498 -0.0051 -0.2007  0.0392
 1188ERGO    C216504  16.986  14.806   7.686 -0.0848 -0.1112  0.0566
 1189ERGO   ROH16505  11.488   5.067   9.746  0.1776  0.0069  0.0394
 1189ERGO    R116506  11.459   5.196   9.495  0.2292  0.0520  0.0564
 1189ERGO    R216507  11.663   5.209   9.310  0.1847 -0.1508 -0.0097
 1189ERGO    R316508  11.477   5.099   9.145  0.0148  0.0505  0.0443
 1189ERGO    R416509  11.662   5.237   8.965  0.0171 -0.0100  0.0010
 1189ERGO    R516510  11.446   5.262   8.973  0.0378  0.1435  0.1278
 1189ERGO    C116511  11.487   5.151   8.610 -0.2399  0.2607  0.0581
 1189ERGO    C216512  11.513   5.231   8.270  0.1408 -0.0467 -0.0661
 1190ERGO   ROH16513  15.342  17.578  10.241  0.0695  0.0408 -0.1039
 1190ERGO    R116514  15.446  17.510   9.986  0.0864 -0.0757 -0.0672
 1190ERGO    R216515  15.316  17.336   9.814 -0.0329  0.0376 -0.1015
 1190ERGO    R316516  15.338  17.543   9.640  0.2269  0.0126 -0.1012
 1190ERGO    R416517  15.304  17.308   9.470 -0.0856  0.0685 -0.1022
 1190ERGO    R516518  15.464  17.454   9.457  0.1013 -0.1407 -0.1087
 1190ERGO    C116519  15.318  17.486   9.106  0.1275  0.0631 -0.1024
 1190ERGO    C216520  15.137  17.447   8.849 -0.2029 -0.2568  0.0681
 1191ERGO   ROH16521   5.908  13.164   6.517  0.0079  0.1515  0.1707
 1191ERGO    R116522   6.051  13.218   6.756  0.1641  0.2481  0.0573
 1191ERGO    R216523   6.126  13.019   6.932 -0.0304  0.3506  0.2636
 1191ERGO    R316524   6.373  13.126   6.897  0.1000 -0.0062  0.0419
 1191ERGO    R416525   6.385  13.003   7.162  0.0071  0.3691  0.2226
 1191ERGO    R516526   6.435  13.209   7.112  0.2544  0.2392 -0.0932
 1191ERGO    C116527   6.767  13.095   7.261  0.1514  0.0449 -0.0094
 1191ERGO    C216528   6.881  13.116   7.550  0.2230  0.2206 -0.1344
 1192ERGO   ROH16529  11.464   2.868   5.677 -0.0729  0.1289 -0.1047
 1192ERGO    R116530  11.403   3.026   5.904 -0.2174 -0.0394 -0.0228
 1192ERGO    R216531  11.258   2.929   6.118  0.0135 -0.3394  0.0123
 1192ERGO    R316532  11.473   3.013   6.261 -0.0443 -0.0653 -0.0589
 1192ERGO    R416533  11.259   2.989   6.459  0.0073 -0.1147 -0.0268
 1192ERGO    R516534  11.383   3.164   6.422 -0.1471 -0.0381 -0.1487
 1192ERGO    C116535  11.463   3.104   6.790 -0.0506  0.2736 -0.1163
 1192ERGO    C216536  11.702   3.194   7.112  0.1408 -0.0148 -0.0585
 1193ERGO   ROH16537  13.921   5.743   9.845 -0.0301 -0.0560  0.1486
 1193ERGO    R116538  14.043   5.715   9.591 -0.1195 -0.2634  0.1264
 1193ERGO    R216539  13.973   5.515   9.413 -0.5080 -0.1365  0.1298
 1193ERGO    R316540  13.936   5.724   9.244 -0.1658 -0.0564  0.1443
 1193ERGO    R416541  14.016   5.502   9.071 -0.3068 -0.1186  0.1524
 1193ERGO    R516542  14.108   5.699   9.079 -0.0862 -0.2197  0.2474
 1193ERGO    C116543  14.005   5.691   8.712  0.1315 -0.0330  0.1793
 1193ERGO    C216544  13.949   5.551   8.381 -0.2229  0.0749 -0.1753
 1194ERGO   ROH16545  15.381   1.850   9.975 -0.4345 -0.4252  0.0565
 1194ERGO    R116546  15.491   1.844   9.714 -0.4360 -0.0338  0.0413
 1194ERGO    R216547  15.509   1.612   9.565  0.0839  0.0771 -0.0863
 1194ERGO    R316548  15.374   1.758   9.380 -0.2707 -0.1233  0.0054
 1194ERGO    R416549  15.494   1.538   9.228  0.1921  0.1923 -0.1167
 1194ERGO    R516550  15.513   1.751   9.185 -0.2769  0.2674 -0.0233
 1194ERGO    C116551  15.358   1.632   8.858 -0.0778  0.0714 -0.0486
 1194ERGO    C216552  15.411   1.622   8.445  0.0582 -0.0050  0.3342
 1195ERGO   ROH16553  14.504  10.540   6.168 -0.2981 -0.1997  0.1960
 1195ERGO    R116554  14.352  10.542   6.408 -0.1805 -0.5318  0.2776
 1195ERGO    R216555  14.340  10.324   6.578  0.6035 -0.4877  0.4259
 1195ERGO    R316556  14.420  10.506   6.763  0.1445 -0.1036  0.2673
 1195ERGO    R416557  14.286  10.295   6.918  0.5179 -0.2233  0.4372
 1195ERGO    R516558  14.242  10.508   6.924  0.0627 -0.2982  0.1832
 1195ERGO    C116559  14.330  10.449   7.290  0.0371  0.2913  0.2948
 1195ERGO    C216560  14.514  10.358   7.644  0.3722 -0.0788  0.4822
 1196ERGO   ROH16561  15.511   9.160   6.295  0.1929 -0.0483 -0.0544
 1196ERGO    R116562  15.413   9.106   6.555  0.2108 -0.1367 -0.0662
 1196ERGO    R216563  15.547   9.182   6.784  0.0397  0.1292 -0.0534
 1196ERGO    R316564  15.310   9.301   6.845 -0.1641 -0.2186 -0.1369
 1196ERGO    R416565  15.388   9.160   7.090  0.2838  0.3800  0.0960
 1196ERGO    R516566  15.198   9.142   6.985  0.2384 -0.1964  0.2366
 1196ERGO    C116567  15.074   9.259   7.326  0.2346  0.1997  0.1046
 1196ERGO    C216568  15.043   9.488   7.566  0.1403  0.1387 -0.1231
 1197ERGO   ROH16569   6.593  14.693   6.535  0.1065 -0.0840 -0.0779
 1197ERGO    R116570   6.669  14.603   6.793  0.1330 -0.0896 -0.0879
 1197ERGO    R216571   6.915  14.490   6.844  0.1567 -0.0417 -0.1053
 1197ERGO    R316572   6.928  14.684   7.035  0.1235 -0.0563 -0.0878
 1197ERGO    R416573   7.047  14.447   7.161  0.0872 -0.0749 -0.0804
 1197ERGO    R516574   6.884  14.568   7.240  0.0734 -0.0728 -0.1059
 1197ERGO    C116575   7.137  14.603   7.524  0.0155 -0.1077 -0.0495
 1197ERGO    C216576   7.230  14.562   7.879  0.1244 -0.1335 -0.3908
 1198ERGO   ROH16577  17.945   8.619   6.476 -0.1916  0.3426 -0.1240
 1198ERGO    R116578  17.865   8.512   6.725  0.1230  0.0778 -0.1281
 1198ERGO    R216579  18.010   8.549   6.957  0.2308  0.1469 -0.1966
 1198ERGO    R316580  17.774   8.642   7.052  0.1538 -0.2380  0.0075
 1198ERGO    R416581  17.949   8.628   7.287  0.4557  0.2865 -0.1867
 1198ERGO    R516582  17.751   8.538   7.267  0.6027 -0.1147  0.1178
 1198ERGO    C116583  17.691   8.762   7.570  0.5146  0.0066  0.0106
 1198ERGO    C216584  17.718   8.784   7.863  0.2257  0.0124 -0.2264
 1199ERGO   ROH16585  16.782  13.707   6.824 -0.0912 -0.1341  0.1025
 1199ERGO    R116586  16.992  13.772   7.002 -0.0356 -0.0942  0.0252
 1199ERGO    R216587  16.951  13.915   7.235  0.0275 -0.0857  0.0385
 1199ERGO    R316588  17.076  13.702   7.349  0.0949 -0.0653 -0.0015
 1199ERGO    R416589  17.173  13.934   7.499  0.0732 -0.0632 -0.0033
 1199ERGO    R516590  17.295  13.783   7.401  0.0849 -0.0261 -0.0355
 1199ERGO    C116591  17.420  13.746   7.760  0.1631 -0.0309 -0.0652
 1199ERGO    C216592  17.515  13.691   8.029 -0.0121  0.0635 -0.1919
 1200ERGO   ROH16593  11.633  10.416   6.834  0.0181  0.1283 -0.0980
 1200ERGO    R116594  11.612  10.322   7.100  0.0080  0.1164 -0.1020
 1200ERGO    R216595  11.793  10.144   7.211  0.0107  0.1165 -0.0976
 1200ERGO    R316596  11.814  10.336   7.402 -0.0066  0.1119 -0.0928
 1200ERGO    R416597  11.870  10.085   7.542 -0.0648  0.1067 -0.0829
 1200ERGO    R516598  11.721  10.234   7.598 -0.0576  0.1226 -0.1131
 1200ERGO    C116599  11.933  10.230   7.915 -0.1251  0.0968 -0.0699
 1200ERGO    C216600  11.982  10.456   8.160  0.1305  0.0795  0.0005
 1201ERGO   ROH16601  16.010  12.429   6.438  0.2054  0.1155  0.0724
 1201ERGO    R116602  15.841  12.425   6.665  0.1515  0.2348  0.0367
 1201ERGO    R216603  15.845  12.219   6.850 -0.2030  0.1086 -0.0823
 1201ERGO    R316604  15.886  12.421   7.027  0.0796 -0.0560  0.0434
 1201ERGO    R416605  15.734  12.220   7.177 -0.3325  0.1260 -0.1273
 1201ERGO    R516606  15.683  12.431   7.153  0.0447  0.2296 -0.0349
 1201ERGO    C116607  15.707  12.411   7.533 -0.1427 -0.0184 -0.0355
 1201ERGO    C216608  15.863  12.452   7.902  0.1048  0.1098 -0.1003
 1202ERGO   ROH16609  12.272   8.628  10.089  0.1897  0.2620  0.2352
 1202ERGO    R116610  12.327   8.814   9.884 -0.0284  0.1895  0.1091
 1202ERGO    R216611  12.543   8.789   9.714 -0.0043  0.3220  0.1267
 1202ERGO    R316612  12.353   8.808   9.521 -0.0301 -0.0217  0.1103
 1202ERGO    R416613  12.607   8.827   9.376 -0.0446 -0.0105  0.0774
 1202ERGO    R516614  12.441   8.968   9.366 -0.1433 -0.1300 -0.0728
 1202ERGO    C116615  12.465   8.867   8.999 -0.0922 -0.5267  0.0334
 1202ERGO    C216616  12.516   8.975   8.583  0.4346  0.0310  0.1223
 1203ERGO   ROH16617   9.084   7.555   6.544 -0.1027 -0.0800 -0.1182
 1203ERGO    R116618   8.966   7.441   6.775 -0.0738 -0.1535 -0.1389
 1203ERGO    R216619   9.032   7.189   6.867  0.1187 -0.0877 -0.0867
 1203ERGO    R316620   9.080   7.322   7.099 -0.0645 -0.0121 -0.0902
 1203ERGO    R416621   9.055   7.040   7.178  0.2442 -0.0333 -0.0696
 1203ERGO    R516622   8.945   7.209   7.261  0.0406 -0.1513 -0.1000
 1203ERGO    C116623   9.114   7.078   7.577  0.1451  0.0694 -0.0628
 1203ERGO    C216624   9.057   6.919   7.867 -0.1109 -0.2718 -0.0200
 1204ERGO   ROH16625  12.915   3.691   9.781  0.0711  0.3262 -0.0676
 1204ERGO    R116626  13.061   3.523   9.606  0.0705  0.1966  0.0555
 1204ERGO    R216627  12.938   3.345   9.433  0.0647  0.1892  0.0698
 1204ERGO    R316628  13.087   3.475   9.246  0.2026  0.0529  0.0830
 1204ERGO    R416629  12.937   3.273   9.095 -0.0757  0.2768  0.0500
 1204ERGO    R516630  13.153   3.303   9.094 -0.0346  0.0063  0.0279
 1204ERGO    C116631  13.077   3.352   8.723 -0.0279  0.1999  0.0508
 1204ERGO    C216632  12.979   3.348   8.365 -0.1379  0.4441  0.0910
 1205ERGO   ROH16633  12.505  10.803  10.184 -0.1373 -0.2012  0.0811
 1205ERGO    R116634  12.396  10.742   9.930 -0.1414 -0.0205  0.0382
 1205ERGO    R216635  12.379  10.928   9.726  0.1798  0.0316  0.0554
 1205ERGO    R316636  12.514  10.739   9.586 -0.0329 -0.1386  0.0753
 1205ERGO    R416637  12.391  10.909   9.381  0.2656  0.0638  0.0563
 1205ERGO    R516638  12.373  10.693   9.398 -0.0389  0.0813  0.0223
 1205ERGO    C116639  12.525  10.720   9.049  0.1158 -0.0773  0.0756
 1205ERGO    C216640  12.559  10.827   8.672  0.1078 -0.1474 -0.0131
 1206ERGO   ROH16641  17.086  17.439   7.991 -0.1534  0.1406  0.1568
 1206ERGO    R116642  17.329  17.529   7.877 -0.1062 -0.0861  0.0755
 1206ERGO    R216643  17.358  17.574   7.605 -0.2080  0.0434  0.0879
 1206ERGO    R316644  17.441  17.819   7.689  0.1433 -0.1032  0.1920
 1206ERGO    R416645  17.593  17.770   7.443 -0.4541  0.0740 -0.2436
 1206ERGO    R516646  17.675  17.824   7.638  0.0424 -0.2034 -0.3537
 1206ERGO    C116647  17.807  18.113   7.427 -0.2680 -0.0455 -0.3388
 1206ERGO    C216648  17.906  18.290   7.173  0.1436  0.0215 -0.0161
 1207ERGO   ROH16649  13.535   4.825   6.055  0.0752 -0.0096  0.0410
 1207ERGO    R116650  13.495   4.920   6.318 -0.0124 -0.0046  0.0265
 1207ERGO    R216651  13.244   4.949   6.430 -0.0532  0.0505 -0.0764
 1207ERGO    R316652  13.349   4.793   6.627 -0.1690  0.0233 -0.0356
 1207ERGO    R416653  13.109   4.911   6.746 -0.0115  0.3405 -0.0210
 1207ERGO    R516654  13.311   4.917   6.828  0.0196  0.1582 -0.0798
 1207ERGO    C116655  13.129   4.743   7.114 -0.0960  0.4839  0.0496
 1207ERGO    C216656  12.872   4.606   7.298 -0.0868  0.2489 -0.0121
 1208ERGO   ROH16657  10.008   2.245   9.750  0.0290  0.1200  0.0108
 1208ERGO    R116658   9.902   2.304   9.494  0.1114  0.2459  0.0064
 1208ERGO    R216659  10.045   2.443   9.302  0.3588 -0.0767 -0.0431
 1208ERGO    R316660   9.988   2.226   9.149 -0.0680 -0.0180  0.0159
 1208ERGO    R416661   9.987   2.452   8.962  0.6948 -0.0750 -0.1050
 1208ERGO    R516662   9.827   2.306   8.990  0.2711  0.3401 -0.1722
 1208ERGO    C116663   9.900   2.253   8.619  0.4897 -0.0190 -0.0858
 1208ERGO    C216664   9.816   2.186   8.231 -0.3444 -0.1788 -0.1489
 1209ERGO   ROH16665   9.066   3.364   6.003 -0.0306 -0.2000  0.2213
 1209ERGO    R116666   9.186   3.386   6.259 -0.0192  0.0866  0.1945
 1209ERGO    R216667   9.374   3.579   6.319 -0.1259  0.2457  0.0131
 1209ERGO    R316668   9.203   3.635   6.523 -0.1364  0.3230 -0.0156
 1209ERGO    R416669   9.469   3.640   6.646 -0.1477  0.1912  0.0303
 1209ERGO    R516670   9.297   3.523   6.712 -0.2192  0.2695 -0.0017
 1209ERGO    C116671   9.364   3.728   7.027 -0.1702  0.2320  0.0132
 1209ERGO    C216672   9.610   3.850   7.266  0.0717 -0.3103  0.0033
 1210ERGO   ROH16673  14.547   5.040   6.065  0.0985  0.1881  0.1519
 1210ERGO    R116674  14.557   4.891   6.305 -0.0228  0.0493  0.0713
 1210ERGO    R216675  14.623   5.005   6.548  0.1157 -0.1446  0.1221
 1210ERGO    R316676  14.386   4.896   6.627  0.0158  0.0450  0.0934
 1210ERGO    R416677  14.521   4.970   6.877  0.0016  0.0457  0.1093
 1210ERGO    R516678  14.440   4.773   6.826 -0.1201  0.0773  0.1558
 1210ERGO    C116679  14.240   4.847   7.142 -0.1587  0.3345  0.0749
 1210ERGO    C216680  14.384   4.946   7.440  0.0670 -0.0413 -0.0643
 1211ERGO   ROH16681   3.887   9.829   7.281 -0.3476 -0.1311 -0.2010
 1211ERGO    R116682   3.848  10.035   7.471 -0.1329 -0.1710 -0.1101
 1211ERGO    R216683   3.700  10.262   7.415  0.0685 -0.0094  0.0019
 1211ERGO    R316684   3.564  10.189   7.639  0.0280  0.0234 -0.0114
 1211ERGO    R416685   3.444  10.444   7.561  0.0195 -0.0037 -0.0903
 1211ERGO    R516686   3.526  10.394   7.756 -0.0169  0.0445 -0.0618
 1211ERGO    C116687   3.168  10.481   7.855 -0.0470  0.0304 -0.1566
 1211ERGO    C216688   2.922  10.637   8.004 -0.0843 -0.0546  0.1097
 1212ERGO   ROH16689   6.516   3.565  10.400 -0.1135 -0.0754  0.0651
 1212ERGO    R116690   6.435   3.455  10.152  0.0547 -0.0117 -0.0199
 1212ERGO    R216691   6.170   3.402  10.092  0.1219 -0.2802 -0.0959
 1212ERGO    R316692   6.222   3.556   9.874 -0.0182 -0.0768  0.0119
 1212ERGO    R416693   6.052   3.341   9.773  0.0415 -0.0663 -0.1087
 1212ERGO    R516694   6.247   3.400   9.695 -0.0106  0.0818 -0.1267
 1212ERGO    C116695   6.033   3.450   9.383 -0.1368  0.2491 -0.0152
 1212ERGO    C216696   6.086   3.475   9.020 -0.0081  0.0600  0.0738
 1213ERGO   ROH16697  10.475  17.269   6.484  0.0348  0.1089  0.0365
 1213ERGO    R116698  10.449  17.351   6.753  0.0557  0.1104  0.0372
 1213ERGO    R216699  10.508  17.186   6.966  0.1430  0.1368  0.0307
 1213ERGO    R316700  10.669  17.391   7.040  0.0924  0.1893 -0.0012
 1213ERGO    R416701  10.563  17.285   7.292 -0.0073  0.3057  0.0071
 1213ERGO    R516702  10.555  17.493   7.225  0.0021  0.2724 -0.1002
 1213ERGO    C116703  10.747  17.537   7.552 -0.1423  0.4532 -0.0367
 1213ERGO    C216704  10.773  17.711   7.797 -0.1941  0.2319 -0.0161
 1214ERGO   ROH16705   3.192   6.550   6.943 -0.1589 -0.1474 -0.0378
 1214ERGO    R116706   3.330   6.488   7.182 -0.0362  0.0013 -0.0690
 1214ERGO    R216707   3.379   6.676   7.378 -0.0957  0.0807 -0.1322
 1214ERGO    R316708   3.257   6.494   7.538  0.0810  0.0362 -0.0446
 1214ERGO    R416709   3.347   6.707   7.720 -0.2958  0.3159 -0.1694
 1214ERGO    R516710   3.389   6.494   7.738 -0.0054  0.3828  0.0219
 1214ERGO    C116711   3.212   6.554   8.071 -0.2465  0.4112 -0.1088
 1214ERGO    C216712   2.970   6.715   8.242  0.1362  0.1720  0.0641
 1215ERGO   ROH16713   0.910   7.526   6.770  0.0175  0.0710  0.1264
 1215ERGO    R116714   0.928   7.627   7.034  0.0246  0.0199  0.1443
 1215ERGO    R216715   0.722   7.603   7.217  0.0455 -0.0442  0.1518
 1215ERGO    R316716   0.914   7.489   7.370  0.0702 -0.0468  0.1209
 1215ERGO    R416717   0.717   7.589   7.562  0.1221  0.0159  0.1563
 1215ERGO    R516718   0.930   7.631   7.562  0.1341 -0.0117  0.0952
 1215ERGO    C116719   0.895   7.474   7.907  0.1900  0.0484  0.1299
 1215ERGO    C216720   0.864   7.483   8.203 -0.0663  0.1900  0.0868
 1216ERGO   ROH16721  13.111   0.069   6.243  0.1642 -0.1393 -0.1598
 1216ERGO    R116722  13.279   0.119   6.465  0.0692 -0.0674 -0.1028
 1216ERGO    R216723  13.386   0.368   6.518 -0.0981 -0.0073 -0.0346
 1216ERGO    R316724  13.271   0.330   6.761 -0.1483 -0.1138 -0.0745
 1216ERGO    R416725  13.472   0.538   6.806 -0.0256 -0.2704  0.1021
 1216ERGO    R516726  13.451   0.352   6.917 -0.1529 -0.3388 -0.0362
 1216ERGO    C116727  13.414   0.602   7.202 -0.0303 -0.5236  0.1441
 1216ERGO    C216728  13.503   0.880   7.307  0.2366 -0.0997 -0.0563
 1217ERGO   ROH16729   3.945   2.035   6.733 -0.0663  0.0253 -0.1210
 1217ERGO    R116730   3.919   1.934   6.996 -0.0259  0.0303 -0.1153
 1217ERGO    R216731   4.133   1.915   7.170 -0.0044  0.0529 -0.1419
 1217ERGO    R316732   3.972   2.060   7.334  0.0042  0.0428 -0.1241
 1217ERGO    R416733   4.155   1.918   7.515  0.0082  0.0180 -0.1422
 1217ERGO    R516734   3.936   1.918   7.523  0.0064  0.0237 -0.1362
 1217ERGO    C116735   4.016   2.057   7.869  0.0237 -0.0118 -0.1256
 1217ERGO    C216736   4.172   2.016   8.114  0.1521  0.0741 -0.0497
 1218ERGO   ROH16737  16.317   4.574   6.583  0.1226  0.2300 -0.0882
 1218ERGO    R116738  16.244   4.511   6.848  0.0602 -0.0849 -0.1750
 1218ERGO    R216739  16.158   4.701   7.029  0.2947 -0.2435  0.1229
 1218ERGO    R316740  15.944   4.536   7.053  0.0970 -0.0313 -0.1299
 1218ERGO    R416741  15.933   4.706   7.291  0.2078 -0.2768  0.0478
 1218ERGO    R516742  15.931   4.488   7.287 -0.0382 -0.2718 -0.1858
 1218ERGO    C116743  15.601   4.554   7.466 -0.0283 -0.0970 -0.2333
 1218ERGO    C216744  15.234   4.515   7.531  0.2519 -0.0129  0.1479
 1219ERGO   ROH16745   2.404  12.113   6.418 -0.0047  0.1505 -0.0484
 1219ERGO    R116746   2.282  12.270   6.619  0.1337  0.1348  0.0472
 1219ERGO    R216747   2.112  12.163   6.808  0.1186  0.1543  0.0318
 1219ERGO    R316748   2.284  12.282   6.982  0.2196 -0.0190  0.0557
 1219ERGO    R416749   2.041  12.232   7.140  0.0740  0.3378 -0.0138
 1219ERGO    R516750   2.144  12.423   7.117  0.3410  0.2085 -0.0370
 1219ERGO    C116751   2.161  12.384   7.496  0.1429  0.2818 -0.0178
 1219ERGO    C216752   2.199  12.378   7.818  0.0787 -0.1758  0.0426
 1220ERGO   ROH16753   0.906   2.745   7.193  0.0978 -0.1860 -0.3196
 1220ERGO    R116754   1.084   2.772   7.411  0.1899  0.0397 -0.4211
 1220ERGO    R216755   1.130   2.569   7.592 -0.0239  0.3432 -0.0153
 1220ERGO    R316756   1.390   2.612   7.525  0.0215 -0.1195 -0.1782
 1220ERGO    R416757   1.400   2.410   7.738 -0.1932  0.2976  0.2584
 1220ERGO    R516758   1.508   2.600   7.733  0.0490  0.1704 -0.1687
 1220ERGO    C116759   1.802   2.359   7.760 -0.2490 -0.1634  0.2650
 1220ERGO    C216760   1.988   2.136   7.993  0.1602 -0.0131  0.0814
 1221ERGO   ROH16761  12.075  17.022  10.244  0.4768 -0.0577 -0.0098
 1221ERGO    R116762  12.086  16.874  10.003  0.2231 -0.0391 -0.0355
 1221ERGO    R216763  11.859  16.805   9.861  0.0881  0.2006  0.0556
 1221ERGO    R316764  11.991  16.927   9.656  0.1172  0.0996  0.0142
 1221ERGO    R416765  11.799  16.750   9.525  0.1117  0.0648  0.0737
 1221ERGO    R516766  12.014  16.757   9.490  0.1139  0.0276  0.0883
 1221ERGO    C116767  11.888  16.831   9.138  0.1530 -0.1091  0.0451
 1221ERGO    C216768  11.838  16.765   8.736  0.1307 -0.1677 -0.1086
 1222ERGO   ROH16769   2.768   5.022   6.715  0.0403  0.1221  0.1055
 1222ERGO    R116770   2.888   4.951   6.961 -0.0267 -0.0987  0.0765
 1222ERGO    R216771   2.842   5.091   7.195  0.2186 -0.0635  0.1053
 1222ERGO    R316772   2.774   4.845   7.290 -0.1374  0.0194  0.0773
 1222ERGO    R416773   2.790   5.016   7.528  0.3317 -0.0672  0.1225
 1222ERGO    R516774   2.893   4.827   7.497 -0.0129 -0.2450 -0.0120
 1222ERGO    C116775   2.695   4.743   7.812  0.0635  0.0085  0.1063
 1222ERGO    C216776   2.567   4.814   8.168 -0.0196 -0.0800 -0.2944
 1223ERGO   ROH16777   1.158  10.622   6.604 -0.2077 -0.1619  0.2887
 1223ERGO    R116778   1.129  10.858   6.757 -0.0911 -0.0678  0.1677
 1223ERGO    R216779   1.178  10.866   7.029  0.0530  0.0826  0.1382
 1223ERGO    R316780   1.344  11.070   6.960  0.0484  0.0195 -0.0679
 1223ERGO    R416781   1.366  11.051   7.253  0.1082  0.2648 -0.0551
 1223ERGO    R516782   1.318  11.230   7.137  0.0926  0.1705 -0.1959
 1223ERGO    C116783   1.631  11.351   7.318  0.1361  0.3118 -0.3611
 1223ERGO    C216784   1.759  11.257   7.629  0.0177 -0.2110  0.0857
 1224ERGO   ROH16785  11.689   9.425  10.167  0.0634 -0.3317 -0.0870
 1224ERGO    R116786  11.615   9.421   9.894  0.0532 -0.3525 -0.0845
 1224ERGO    R216787  11.587   9.652   9.744 -0.1992 -0.3463 -0.0360
 1224ERGO    R316788  11.762   9.527   9.579 -0.0717 -0.1271 -0.0692
 1224ERGO    R416789  11.620   9.716   9.406 -0.2059 -0.1693 -0.0035
 1224ERGO    R516790  11.643   9.502   9.373 -0.0227 -0.1361 -0.0957
 1224ERGO    C116791  11.803   9.636   9.054 -0.0899  0.1394 -0.0157
 1224ERGO    C216792  11.831   9.630   8.676  0.0851  0.2319  0.1849
 1225ERGO   ROH16793  15.984   2.643   9.897  0.1274  0.0996  0.1174
 1225ERGO    R116794  16.013   2.788   9.655  0.0539  0.0839  0.0993
 1225ERGO    R216795  16.252   2.801   9.517 -0.0153 -0.0049 -0.0241
 1225ERGO    R316796  16.100   2.712   9.310 -0.1529  0.0475  0.0530
 1225ERGO    R416797  16.340   2.822   9.183 -0.1083 -0.1592 -0.0597
 1225ERGO    R516798  16.133   2.875   9.138 -0.0907 -0.0203 -0.0030
 1225ERGO    C116799  16.247   2.752   8.795 -0.2919 -0.1998 -0.0081
 1225ERGO    C216800  16.313   2.797   8.478  0.0214 -0.2679 -0.1469
 1226ERGO   ROH16801   7.459   1.310   6.554 -0.0408 -0.0347 -0.1298
 1226ERGO    R116802   7.298   1.429   6.753 -0.0124  0.0159 -0.1352
 1226ERGO    R216803   7.086   1.297   6.872 -0.0477  0.0688 -0.1213
 1226ERGO    R316804   7.215   1.364   7.102 -0.0209  0.0524 -0.1329
 1226ERGO    R416805   6.947   1.280   7.188  0.1341 -0.3342 -0.0574
 1226ERGO    R516806   7.046   1.468   7.236 -0.0767 -0.2545  0.0332
 1226ERGO    C116807   6.987   1.332   7.587  0.2651 -0.5842 -0.0310
 1226ERGO    C216808   6.871   1.127   7.815 -0.0799  0.0199  0.1192
 1227ERGO   ROH16809  12.725   7.623   6.058 -0.2922 -0.0665  0.0355
 1227ERGO    R116810  12.670   7.742   6.309 -0.2895 -0.0975  0.0501
 1227ERGO    R216811  12.491   7.633   6.489 -0.1958 -0.1845  0.0879
 1227ERGO    R316812  12.702   7.648   6.659 -0.1643 -0.0882  0.0422
 1227ERGO    R416813  12.491   7.515   6.814 -0.1827  0.1097  0.1978
 1227ERGO    R516814  12.603   7.693   6.873 -0.1218  0.1356  0.0192
 1227ERGO    C116815  12.689   7.461   7.163 -0.1457  0.3715  0.2189
 1227ERGO    C216816  12.688   7.324   7.538 -0.3396 -0.0511  0.1711
 1228ERGO   ROH16817  12.114   7.202   9.623 -0.0080  0.0943 -0.0661
 1228ERGO    R116818  12.053   7.316   9.371 -0.0658  0.0364 -0.0805
 1228ERGO    R216819  12.247   7.370   9.181 -0.0830  0.1458 -0.0807
 1228ERGO    R316820  12.087   7.218   9.022  0.0196  0.0248 -0.0662
 1228ERGO    R416821  12.258   7.363   8.835 -0.1430  0.1682 -0.0817
 1228ERGO    R516822  12.042   7.356   8.833 -0.1285 -0.0119 -0.0489
 1228ERGO    C116823  12.115   7.217   8.486 -0.0814  0.0677 -0.0688
 1228ERGO    C216824  12.005   7.302   8.185  0.0158 -0.0215 -0.0919
 1229ERGO   ROH16825  12.524   6.931   9.570 -0.1969 -0.1455  0.1597
 1229ERGO    R116826  12.417   6.968   9.311 -0.0872 -0.0010  0.1336
 1229ERGO    R216827  12.569   7.060   9.099  0.0815 -0.1706  0.1754
 1229ERGO    R316828  12.479   6.834   8.978 -0.1618 -0.0585  0.1435
 1229ERGO    R416829  12.511   7.027   8.760  0.4461 -0.1837  0.1098
 1229ERGO    R516830  12.331   6.913   8.807  0.1839  0.1415 -0.0720
 1229ERGO    C116831  12.391   6.795   8.449  0.4302 -0.0862  0.0416
 1229ERGO    C216832  12.332   6.895   8.135  0.1632  0.0330 -0.2409
 1230ERGO   ROH16833   8.419   1.379  10.212  0.0476 -0.2412  0.1351
 1230ERGO    R116834   8.439   1.451   9.939 -0.0138  0.0043  0.1912
 1230ERGO    R216835   8.547   1.282   9.748  0.0803  0.2279  0.0337
 1230ERGO    R316836   8.310   1.325   9.622  0.0423  0.1896  0.0951
 1230ERGO    R416837   8.499   1.265   9.406  0.0231  0.3780  0.0347
 1230ERGO    R516838   8.369   1.439   9.421 -0.0460  0.3124  0.1426
 1230ERGO    C116839   8.248   1.295   9.090 -0.0459  0.4295  0.0928
 1230ERGO    C216840   8.331   1.138   8.872 -0.1862 -0.0866  0.2069
 1231ERGO   ROH16841  10.509   0.317   9.908  0.0856 -0.1201  0.0617
 1231ERGO    R116842  10.493   0.122   9.703 -0.1106 -0.0580  0.0148
 1231ERGO    R216843  10.267   0.087   9.547 -0.1015  0.3046 -0.0937
 1231ERGO    R316844  10.442   0.122   9.343  0.0433  0.0954 -0.0079
 1231ERGO    R416845  10.216  -0.019   9.223  0.0702  0.0990 -0.0545
 1231ERGO    R516846  10.425  -0.079   9.214  0.0521  0.0138  0.1201
 1231ERGO    C116847  10.352  -0.049   8.841  0.3060 -0.2172  0.0489
 1231ERGO    C216848  10.298  -0.048   8.531  0.0370  0.0906 -0.0476
 1232ERGO   ROH16849   1.926   6.684   8.554 -0.0469 -0.1948 -0.1667
 1232ERGO    R116850   2.057   6.546   8.765 -0.1510 -0.1235 -0.0541
 1232ERGO    R216851   2.231   6.672   8.939  0.0109 -0.1283 -0.2109
 1232ERGO    R316852   2.066   6.567   9.128 -0.0657  0.2274 -0.0726
 1232ERGO    R416853   2.293   6.674   9.279  0.3237 -0.2815 -0.2629
 1232ERGO    R516854   2.214   6.472   9.290 -0.1254 -0.1165 -0.2107
 1232ERGO    C116855   2.174   6.578   9.654  0.4340 -0.0369 -0.1634
 1232ERGO    C216856   2.113   6.566   9.982 -0.0591 -0.1463 -0.1449
 1233ERGO   ROH16857  12.245  11.263   6.413  0.0221  0.3049  0.1391
 1233ERGO    R116858  12.276  11.112   6.650  0.0983  0.1325  0.0225
 1233ERGO    R216859  12.521  11.078   6.774  0.1336  0.0923 -0.0424
 1233ERGO    R316860  12.388  11.174   6.991  0.1459 -0.0935  0.0475
 1233ERGO    R416861  12.628  11.045   7.101  0.2823  0.0580 -0.0947
 1233ERGO    R516862  12.421  11.007   7.159  0.3413 -0.1245 -0.0261
 1233ERGO    C116863  12.565  11.116   7.495  0.3804 -0.1365 -0.0408
 1233ERGO    C216864  12.693  11.355   7.733 -0.2206  0.0023  0.0628
 1234ERGO   ROH16865  10.709  11.833   7.988  0.1732 -0.0858 -0.1390
 1234ERGO    R116866  10.955  11.971   7.969  0.1530 -0.0253  0.0350
 1234ERGO    R216867  10.984  12.204   7.822  0.2210 -0.0744 -0.0235
 1234ERGO    R316868  11.080  12.302   8.057 -0.0163  0.0429  0.0282
 1234ERGO    R416869  11.082  12.531   7.874  0.4753 -0.1188 -0.1980
 1234ERGO    R516870  11.250  12.457   7.992  0.2405 -0.1880  0.1167
 1234ERGO    C116871  11.228  12.814   8.125  0.4005 -0.0347 -0.2511
 1234ERGO    C216872  11.315  13.105   7.983 -0.2924 -0.2143  0.1029
 1235ERGO   ROH16873   1.084  15.207   8.105  0.0879  0.0166 -0.0490
 1235ERGO    R116874   1.050  15.111   8.369 -0.0069  0.1113 -0.0275
 1235ERGO    R216875   1.233  14.945   8.492 -0.1788 -0.0489  0.0024
 1235ERGO    R316876   1.229  15.136   8.684  0.0243 -0.0043 -0.0332
 1235ERGO    R416877   1.279  14.886   8.829 -0.4749 -0.0845  0.0401
 1235ERGO    R516878   1.121  15.031   8.871 -0.2693  0.1933 -0.0779
 1235ERGO    C116879   1.301  15.032   9.207 -0.4567 -0.0633  0.0286
 1235ERGO    C216880   1.238  15.049   9.636  0.1318 -0.0326 -0.1047
 1236ERGO   ROH16881   9.027  16.763   6.539 -0.1193  0.1556  0.0534
 1236ERGO    R116882   9.141  16.751   6.797  0.0692  0.0065 -0.0339
 1236ERGO    R216883   8.988  16.732   7.027  0.2167  0.2383  0.0887
 1236ERGO    R316884   9.145  16.515   7.074 -0.0535  0.0121 -0.0274
 1236ERGO    R416885   9.073  16.614   7.340  0.3136  0.1420  0.0271
 1236ERGO    R516886   9.274  16.575   7.266  0.1998 -0.1570 -0.1401
 1236ERGO    C116887   9.269  16.341   7.568  0.1161 -0.1266 -0.1179
 1236ERGO    C216888   9.375  16.270   7.948  0.0411 -0.0548 -0.0664
 1237ERGO   ROH16889   3.710  14.855   6.754  0.0058  0.1863 -0.2270
 1237ERGO    R116890   3.694  14.896   7.033 -0.0504  0.1046 -0.2168
 1237ERGO    R216891   3.915  14.958   7.187 -0.0777  0.0568 -0.1500
 1237ERGO    R316892   3.761  15.169   7.264 -0.0913  0.0361 -0.1256
 1237ERGO    R416893   4.013  15.204   7.410 -0.1416 -0.0194 -0.0380
 1237ERGO    R516894   3.813  15.199   7.496 -0.1638 -0.0405 -0.1024
 1237ERGO    C116895   3.926  15.544   7.611 -0.1915 -0.0831  0.0501
 1237ERGO    C216896   4.193  15.594   7.855 -0.2680  0.0620 -0.1686
 1238ERGO   ROH16897  13.216   9.758   6.020 -0.0223  0.4899  0.0550
 1238ERGO    R116898  13.361   9.610   6.213 -0.0965  0.1587 -0.1336
 1238ERGO    R216899  13.482   9.729   6.431  0.2406 -0.1436 -0.1428
 1238ERGO    R316900  13.337   9.547   6.571  0.0655 -0.0124 -0.1523
 1238ERGO    R416901  13.539   9.642   6.761  0.0717 -0.1260 -0.1090
 1238ERGO    R516902  13.498   9.434   6.707 -0.0614 -0.1043 -0.0808
 1238ERGO    C116903  13.435   9.419   7.083 -0.1910  0.0074 -0.0981
 1238ERGO    C216904  13.462   9.298   7.383 -0.2421  0.1152 -0.0790
 1239ERGO   ROH16905  13.119  12.296   6.199 -0.2182  0.3125 -0.1416
 1239ERGO    R116906  13.017  12.355   6.457 -0.0590  0.2120 -0.0554
 1239ERGO    R216907  13.050  12.184   6.671  0.0510  0.1173 -0.1504
 1239ERGO    R316908  13.155  12.405   6.790  0.1427  0.0541 -0.1117
 1239ERGO    R416909  13.036  12.251   7.010  0.0283  0.0841 -0.1441
 1239ERGO    R516910  12.997  12.461   6.962  0.1388  0.1123 -0.1301
 1239ERGO    C116911  13.127  12.498   7.319  0.1012  0.0055 -0.1042
 1239ERGO    C216912  12.974  12.474   7.631 -0.1723  0.3266  0.1319
 1240ERGO   ROH16913  13.535  16.183   6.340 -0.1187 -0.0493  0.0229
 1240ERGO    R116914  13.555  16.270   6.608 -0.2046 -0.0145  0.0179
 1240ERGO    R216915  13.725  16.473   6.686 -0.0483 -0.1717  0.0833
 1240ERGO    R316916  13.498  16.580   6.791 -0.0097  0.0834 -0.0831
 1240ERGO    R416917  13.714  16.680   6.963 -0.0266 -0.2949  0.1782
 1240ERGO    R516918  13.534  16.575   7.028 -0.2387 -0.0893 -0.0463
 1240ERGO    C116919  13.494  16.901   7.222  0.0225 -0.1272  0.0772
 1240ERGO    C216920  13.597  17.281   7.239  0.0666  0.4444 -0.2007
 1241ERGO   ROH16921   3.890  12.251   6.853  0.0253  0.1413 -0.0264
 1241ERGO    R116922   3.670  12.242   7.032 -0.1425  0.0574 -0.2308
 1241ERGO    R216923   3.662  12.390   7.266 -0.2321 -0.2605 -0.0228
 1241ERGO    R316924   3.427  12.479   7.163 -0.0728  0.0659 -0.1178
 1241ERGO    R416925   3.399  12.513   7.453 -0.3653 -0.4660 -0.0741
 1241ERGO    R516926   3.262  12.406   7.321 -0.2870 -0.1441 -0.4290
 1241ERGO    C116927   3.024  12.667   7.465 -0.2933 -0.2792 -0.1931
 1241ERGO    C216928   2.791  12.931   7.490 -0.2353  0.1480 -0.2495
 1242ERGO   ROH16929  11.776  16.233   6.642  0.0079  0.1135  0.0730
 1242ERGO    R116930  11.764  16.277   6.922 -0.0112  0.1121  0.0722
 1242ERGO    R216931  11.921  16.139   7.101 -0.0426  0.0930  0.0838
 1242ERGO    R316932  11.993  16.388   7.182 -0.0216  0.0841  0.0936
 1242ERGO    R416933  11.921  16.247   7.429  0.0801  0.0427  0.1011
 1242ERGO    R516934  11.841  16.438   7.361  0.0449  0.0503  0.1605
 1242ERGO    C116935  11.988  16.544   7.696  0.1711  0.0052  0.1202
 1242ERGO    C216936  12.210  16.691   7.789 -0.0175  0.0189  0.3787
 1243ERGO   ROH16937  13.155  14.971   6.656  0.0659 -0.0991 -0.1224
 1243ERGO    R116938  13.136  14.908   6.931  0.1885 -0.0815 -0.1095
 1243ERGO    R216939  12.896  14.840   7.052  0.2189  0.0568  0.0295
 1243ERGO    R316940  13.036  14.620   7.130  0.1397 -0.0208 -0.0454
 1243ERGO    R416941  12.839  14.662   7.343  0.0183 -0.1463 -0.1308
 1243ERGO    R516942  13.055  14.642   7.367  0.0017 -0.1952 -0.0163
 1243ERGO    C116943  12.937  14.351   7.584 -0.1728 -0.3373 -0.2944
 1243ERGO    C216944  12.913  14.317   7.976 -0.2047 -0.0853  0.2048
 1244ERGO   ROH16945   8.522  12.125   6.464 -0.0944 -0.2767  0.0751
 1244ERGO    R116946   8.387  12.114   6.713 -0.0646 -0.1353  0.0983
 1244ERGO    R216947   8.518  12.063   6.951 -0.0560 -0.1299  0.0944
 1244ERGO    R316948   8.399  12.295   7.028  0.0712 -0.0467  0.0434
 1244ERGO    R416949   8.485  12.167   7.279 -0.1559 -0.1278  0.0839
 1244ERGO    R516950   8.284  12.237   7.231 -0.0809  0.0232 -0.0212
 1244ERGO    C116951   8.354  12.445   7.543 -0.0948 -0.0486  0.0300
 1244ERGO    C216952   8.471  12.517   7.839  0.0871  0.0627 -0.1460
 1245ERGO   ROH16953  14.765  13.940   6.258  0.2092 -0.2204 -0.1077
 1245ERGO    R116954  14.572  14.038   6.440  0.3089  0.0360 -0.1326
 1245ERGO    R216955  14.443  13.875   6.622 -0.0531  0.1668 -0.2488
 1245ERGO    R316956  14.534  14.058   6.801  0.2166 -0.0759 -0.1390
 1245ERGO    R416957  14.312  13.924   6.938 -0.0616  0.2714 -0.2709
 1245ERGO    R516958  14.337  14.139   6.909  0.3339  0.2348 -0.1670
 1245ERGO    C116959  14.322  14.124   7.290  0.1869  0.1046 -0.1807
 1245ERGO    C216960  14.229  13.907   7.520 -0.0724 -0.1615  0.0033
 1246ERGO   ROH16961  13.481   6.835   9.773 -0.2733  0.0623  0.0873
 1246ERGO    R116962  13.467   6.711   9.519 -0.2129 -0.0221  0.1242
 1246ERGO    R216963  13.267   6.766   9.337 -0.1190 -0.0117  0.0199
 1246ERGO    R316964  13.476   6.819   9.172 -0.0295 -0.1452  0.0896
 1246ERGO    R416965  13.261   6.731   8.993 -0.0716  0.1289  0.0047
 1246ERGO    R516966  13.463   6.650   9.003 -0.1507 -0.0667  0.0207
 1246ERGO    C116967  13.454   6.761   8.638  0.0401  0.0854  0.0610
 1246ERGO    C216968  13.367   6.819   8.319 -0.1102 -0.0265  0.0699
 1247ERGO   ROH16969  10.379  12.936   6.280 -0.2026  0.0043  0.1117
 1247ERGO    R116970  10.504  12.806   6.498 -0.0342 -0.1378 -0.0655
 1247ERGO    R216971  10.771  12.735   6.495  0.0742  0.2316 -0.1583
 1247ERGO    R316972  10.778  12.877   6.727 -0.1437 -0.0788  0.0454
 1247ERGO    R416973  10.954  12.647   6.775  0.0334  0.0146 -0.1984
 1247ERGO    R516974  10.785  12.710   6.899 -0.0681 -0.3042 -0.1773
 1247ERGO    C116975  11.067  12.729   7.156 -0.1949 -0.4031 -0.0305
 1247ERGO    C216976  11.116  12.601   7.405 -0.3096  0.0821  0.2383
 1248ERGO   ROH16977   4.731   0.964   6.495  0.0430  0.0205  0.0111
 1248ERGO    R116978   4.881   1.006   6.732  0.0780 -0.0511  0.0018
 1248ERGO    R216979   5.055   1.218   6.762 -0.0325  0.0267  0.0969
 1248ERGO    R316980   4.907   1.265   6.986 -0.0044 -0.2010  0.1656
 1248ERGO    R416981   5.183   1.327   7.064 -0.0515  0.1755  0.0520
 1248ERGO    R516982   5.047   1.190   7.166  0.1797 -0.0273  0.0982
 1248ERGO    C116983   5.120   1.435   7.449 -0.0363  0.0483  0.0905
 1248ERGO    C216984   5.018   1.560   7.740  0.2326  0.4109  0.1351
 1249ERGO   ROH16985  16.633   7.836   7.859 -0.0387 -0.0691  0.0709
 1249ERGO    R116986  16.895   7.754   7.930 -0.0101  0.0228  0.0685
 1249ERGO    R216987  17.097   7.722   7.743 -0.0280  0.0141  0.0588
 1249ERGO    R316988  17.230   7.893   7.908 -0.0459  0.1009 -0.0134
 1249ERGO    R416989  17.435   7.791   7.725 -0.0143 -0.0395  0.0874
 1249ERGO    R516990  17.443   7.788   7.943 -0.0637  0.0920  0.0966
 1249ERGO    C116991  17.757   7.991   7.869 -0.0230  0.0108  0.0361
 1249ERGO    C216992  17.996   8.149   7.979  0.1335  0.1234  0.0282
 1250ERGO   ROH16993   1.359   3.516   6.863 -0.1966  0.1374 -0.0471
 1250ERGO    R116994   1.596   3.503   7.018 -0.1776  0.0759 -0.0789
 1250ERGO    R216995   1.717   3.728   7.123 -0.1114  0.0467 -0.0784
 1250ERGO    R316996   1.695   3.590   7.357 -0.1166  0.0345 -0.0876
 1250ERGO    R416997   1.920   3.774   7.399  0.0621 -0.1725 -0.1679
 1250ERGO    R516998   1.922   3.558   7.427 -0.1130 -0.1747 -0.1996
 1250ERGO    C116999   2.019   3.671   7.778  0.1582 -0.3116 -0.2287
 1250ERGO    C217000   2.246   3.769   7.949  0.0372 -0.0120  0.1835
 1251ERGO   ROH17001  15.920   6.775   6.576  0.0396 -0.0568  0.0108
 1251ERGO    R117002  15.936   6.821   6.855 -0.0216  0.1393 -0.0166
 1251ERGO    R217003  15.751   6.976   6.991 -0.1946  0.0309 -0.1263
 1251ERGO    R317004  15.728   6.753   7.145  0.0358  0.1024  0.0170
 1251ERGO    R417005  15.696   6.976   7.332 -0.3864  0.2032 -0.1555
 1251ERGO    R517006  15.836   6.811   7.350 -0.1562  0.4086  0.0416
 1251ERGO    C117007  15.642   6.767   7.676 -0.2819  0.3706 -0.0379
 1251ERGO    C217008  15.462   6.744   7.880  0.3081 -0.2112  0.1704
 1252ERGO   ROH17009   0.747   9.588   6.417  0.0740  0.0315 -0.1316
 1252ERGO    R117010   0.751   9.757   6.645  0.1160 -0.0690 -0.0577
 1252ERGO    R217011   0.641   9.682   6.887  0.2183 -0.2009 -0.0546
 1252ERGO    R317012   0.889   9.744   6.981  0.2368 -0.1867 -0.1099
 1252ERGO    R417013   0.721   9.722   7.221  0.2939 -0.2325 -0.0680
 1252ERGO    R517014   0.847   9.892   7.165  0.2646 -0.2109 -0.0812
 1252ERGO    C117015   0.999   9.804   7.504  0.3552 -0.2375 -0.1278
 1252ERGO    C217016   1.239   9.551   7.708 -0.1065  0.2271  0.1154
 1253ERGO   ROH17017   3.125   9.087   6.624 -0.0451  0.0900 -0.0652
 1253ERGO    R117018   3.278   9.005   6.847 -0.0909  0.0012 -0.0653
 1253ERGO    R217019   3.222   9.086   7.105 -0.0379  0.0425 -0.0633
 1253ERGO    R317020   3.220   8.819   7.154 -0.2014  0.0438 -0.0611
 1253ERGO    R417021   3.270   8.942   7.416 -0.1549  0.0120 -0.0595
 1253ERGO    R517022   3.390   8.787   7.320 -0.2383 -0.0586 -0.0450
 1253ERGO    C117023   3.296   8.607   7.643 -0.3766 -0.0046 -0.0553
 1253ERGO    C217024   3.245   8.488   7.976  0.1196 -0.1285 -0.3161
 1254ERGO   ROH17025   6.902  11.744   6.521  0.1800  0.0066  0.0508
 1254ERGO    R117026   7.014  11.659   6.767  0.0651  0.1351  0.1509
 1254ERGO    R217027   6.912  11.736   7.011 -0.2068  0.0644  0.0697
 1254ERGO    R317028   6.904  11.468   7.056  0.0078  0.0589  0.0773
 1254ERGO    R417029   6.934  11.587   7.323  0.0889  0.0710  0.0542
 1254ERGO    R517030   7.060  11.433   7.234  0.1397  0.1626 -0.0210
 1254ERGO    C117031   6.938  11.248   7.546  0.4626  0.0696  0.0523
 1254ERGO    C217032   6.849  11.373   7.875 -0.0584 -0.0106  0.0223
 1255ERGO   ROH17033   2.187   0.196   6.869 -0.0425 -0.0374 -0.0152
 1255ERGO    R117034   2.096   0.080   7.111  0.0653 -0.1034 -0.0076
 1255ERGO    R217035   2.254   0.066   7.337  0.0598  0.1073  0.0011
 1255ERGO    R317036   2.043   0.192   7.454 -0.0923 -0.1155 -0.0243
 1255ERGO    R417037   2.186   0.064   7.676  0.2976  0.3913  0.0553
 1255ERGO    R517038   1.975   0.042   7.628  0.2867 -0.0428  0.2085
 1255ERGO    C117039   1.949   0.181   7.983  0.2933  0.3476  0.0630
 1255ERGO    C217040   1.857   0.401   8.208 -0.2681  0.0146  0.0185
 1256ERGO   ROH17041  12.605  16.571   6.183 -0.0808  0.0391  0.0828
 1256ERGO    R117042  12.681  16.654   6.443  0.0056  0.0427  0.0577
 1256ERGO    R217043  12.751  16.914   6.502  0.0599  0.0408  0.0259
 1256ERGO    R317044  12.559  16.889   6.693  0.1080  0.0735  0.0775
 1256ERGO    R417045  12.686  17.147   6.750 -0.0025  0.1624 -0.1041
 1256ERGO    R517046  12.658  16.982   6.890  0.0981  0.2397  0.0015
 1256ERGO    C117047  12.469  17.258   7.073  0.0063  0.2641 -0.1312
 1256ERGO    C217048  12.228  17.419   7.318 -0.1910 -0.0951  0.2730
 1257ERGO   ROH17049  11.940   0.413   9.395 -0.0102  0.1530  0.0409
 1257ERGO    R117050  11.858   0.474   9.131  0.0792  0.1478  0.0122
 1257ERGO    R217051  12.038   0.529   8.928  0.1598 -0.1382  0.0036
 1257ERGO    R317052  11.905   0.330   8.800 -0.0638 -0.0346  0.0689
 1257ERGO    R417053  11.893   0.558   8.616  0.1585 -0.0637  0.0106
 1257ERGO    R517054  11.724   0.441   8.689  0.0396  0.1304  0.0591
 1257ERGO    C117055  11.684   0.387   8.313 -0.0519  0.0770  0.0760
 1257ERGO    C217056  11.512   0.248   8.031 -0.0944 -0.2094  0.3100
 1258ERGO   ROH17057  13.184   4.456   6.086  0.1317 -0.0707  0.2333
 1258ERGO    R117058  13.174   4.446   6.368  0.0433  0.0852  0.2367
 1258ERGO    R217059  12.960   4.543   6.513 -0.0707  0.0260  0.1084
 1258ERGO    R317060  12.962   4.293   6.621  0.0605  0.0870  0.2527
 1258ERGO    R417061  12.816   4.457   6.816 -0.2641  0.0742  0.0313
 1258ERGO    R517062  12.988   4.330   6.856 -0.1808  0.2504  0.2589
 1258ERGO    C117063  12.733   4.173   7.093 -0.2535  0.1596  0.1219
 1258ERGO    C217064  12.673   4.191   7.425  0.0090 -0.0346  0.2461
 1259ERGO   ROH17065  11.901   5.991   9.744 -0.2782  0.0666  0.1353
 1259ERGO    R117066  11.761   6.089   9.518 -0.1625  0.1291  0.0887
 1259ERGO    R217067  11.874   6.265   9.338  0.0162 -0.0077  0.0571
 1259ERGO    R317068  11.801   6.077   9.157 -0.1142  0.0030  0.0991
 1259ERGO    R417069  11.892   6.304   8.995  0.1251 -0.1362  0.0482
 1259ERGO    R517070  11.700   6.202   8.979  0.0391  0.0343  0.0381
 1259ERGO    C117071  11.834   6.149   8.625  0.0659 -0.2011  0.0824
 1259ERGO    C217072  11.778   6.255   8.275  0.0937 -0.1550  0.0678
 1260ERGO   ROH17073  13.661   4.783  10.028 -0.0538 -0.2911 -0.0912
 1260ERGO    R117074  13.689   4.776   9.746 -0.2018  0.0264 -0.1175
 1260ERGO    R217075  13.539   4.936   9.577 -0.1031  0.4134  0.1536
 1260ERGO    R317076  13.784   5.010   9.484 -0.0613  0.2480  0.1256
 1260ERGO    R417077  13.611   5.014   9.249 -0.0937  0.3837  0.1474
 1260ERGO    R517078  13.799   4.908   9.269 -0.1632  0.2481  0.1157
 1260ERGO    C117079  13.882   5.129   8.970 -0.0491  0.2112  0.1178
 1260ERGO    C217080  13.995   5.108   8.710  0.5079  0.1016  0.0122
 1261ERGO   ROH17081  16.303   1.405  10.190  0.0163 -0.1550 -0.1195
 1261ERGO    R117082  16.342   1.540   9.945  0.0229  0.0216 -0.0235
 1261ERGO    R217083  16.546   1.475   9.769  0.0387  0.1578 -0.0598
 1261ERGO    R317084  16.341   1.452   9.592  0.0501  0.2692 -0.0869
 1261ERGO    R417085  16.583   1.433   9.428  0.0612  0.1352 -0.0541
 1261ERGO    R517086  16.417   1.570   9.398  0.1408  0.2261 -0.0773
 1261ERGO    C117087  16.413   1.387   9.063  0.0851  0.2266 -0.0762
 1261ERGO    C217088  16.265   1.373   8.731 -0.1001 -0.3242  0.1926
 1262ERGO   ROH17089   7.322   8.956   6.250  0.0704 -0.2070  0.0346
 1262ERGO    R117090   7.239   8.788   6.462  0.0354 -0.1351  0.0777
 1262ERGO    R217091   7.124   8.540   6.420  0.0464 -0.1498  0.1420
 1262ERGO    R317092   7.323   8.455   6.584  0.0177 -0.0929  0.2075
 1262ERGO    R417093   7.087   8.298   6.663  0.0378 -0.1678  0.1234
 1262ERGO    R517094   7.214   8.418   6.794 -0.0431 -0.1317  0.1703
 1262ERGO    C117095   7.253   8.076   6.959  0.0059 -0.1249  0.1742
 1262ERGO    C217096   7.035   7.771   7.107  0.2574 -0.2511 -0.1578
 1263ERGO   ROH17097  17.805   2.832   6.862 -0.0394  0.1412  0.1200
 1263ERGO    R117098  17.854   2.845   7.140 -0.0638  0.2272  0.1222
 1263ERGO    R217099  17.701   2.998   7.312 -0.2863  0.0330  0.1135
 1263ERGO    R317100  17.673   2.763   7.445  0.0339 -0.0053  0.1179
 1263ERGO    R417101  17.641   2.968   7.651 -0.0690 -0.0599  0.1438
 1263ERGO    R517102  17.779   2.800   7.656  0.1081  0.0880  0.0592
 1263ERGO    C117103  17.580   2.730   7.973  0.3584 -0.1499  0.1657
 1263ERGO    C217104  17.524   2.682   8.280  0.0828  0.0164 -0.3406
 1264ERGO   ROH17105   7.122  10.145   6.542  0.1145 -0.1489  0.0758
 1264ERGO    R117106   7.088  10.267   6.795 -0.0645 -0.1076  0.0331
 1264ERGO    R217107   6.857  10.237   6.945 -0.0868 -0.2535 -0.0341
 1264ERGO    R317108   7.031  10.155   7.137 -0.0824 -0.0597  0.0476
 1264ERGO    R417109   6.845  10.331   7.278 -0.2501 -0.1180 -0.0772
 1264ERGO    R517110   7.061  10.347   7.276 -0.2532  0.0266 -0.0238
 1264ERGO    C117111   7.001  10.308   7.651 -0.3412  0.1427 -0.0257
 1264ERGO    C217112   6.751  10.174   7.872 -0.1242  0.0250 -0.2505
 1265ERGO   ROH17113  17.096   3.406   6.630 -0.0785 -0.2550 -0.3406
 1265ERGO    R117114  16.883   3.348   6.807 -0.1523 -0.2717 -0.4351
 1265ERGO    R217115  16.797   3.090   6.856  0.0809 -0.3074 -0.2091
 1265ERGO    R317116  16.840   3.159   7.116 -0.1880  0.0340 -0.2477
 1265ERGO    R417117  16.733   2.886   7.128 -0.1194  0.0097 -0.0106
 1265ERGO    R517118  16.657   3.060   7.234 -0.2768  0.1284 -0.2991
 1265ERGO    C117119  16.736   2.832   7.530 -0.4880  0.5147  0.0688
 1265ERGO    C217120  16.713   2.544   7.755 -0.0169 -0.0483  0.0490
 1266ERGO   ROH17121  16.506   1.501   6.818 -0.2494 -0.2908 -0.1196
 1266ERGO    R117122  16.455   1.699   7.014 -0.0607 -0.3917  0.0346
 1266ERGO    R217123  16.288   1.914   6.968  0.2746 -0.0989  0.1394
 1266ERGO    R317124  16.165   1.824   7.193  0.0245 -0.1296 -0.0063
 1266ERGO    R417125  16.100   2.110   7.183  0.0834 -0.1158 -0.0098
 1266ERGO    R517126  16.189   2.003   7.350 -0.1079 -0.1687  0.0611
 1266ERGO    C117127  15.875   2.140   7.519 -0.2628 -0.1545 -0.2334
 1266ERGO    C217128  15.771   2.211   7.773 -0.0782  0.0929 -0.0222
 1267ERGO   ROH17129   3.715   7.561   9.973  0.1599  0.1510  0.0534
 1267ERGO    R117130   3.808   7.549   9.706  0.0757 -0.0487  0.0314
 1267ERGO    R217131   3.665   7.429   9.503 -0.1396  0.0820  0.1045
 1267ERGO    R317132   3.697   7.669   9.382  0.1480  0.0090  0.0274
 1267ERGO    R417133   3.678   7.477   9.161 -0.3951 -0.0130  0.0781
 1267ERGO    R517134   3.837   7.623   9.193 -0.1111 -0.2688 -0.1061
 1267ERGO    C117135   3.717   7.732   8.848 -0.2740 -0.1367 -0.0098
 1267ERGO    C217136   3.612   7.649   8.484 -0.4657  0.0293 -0.1997
 1268ERGO   ROH17137  13.683   0.295   9.950  0.0177  0.2276 -0.0961
 1268ERGO    R117138  13.825   0.213   9.719 -0.0340  0.0912 -0.0803
 1268ERGO    R217139  13.719   0.035   9.536 -0.1912  0.2004 -0.1001
 1268ERGO    R317140  13.777   0.233   9.359  0.0317  0.1508 -0.0855
 1268ERGO    R417141  13.674   0.015   9.194 -0.3967  0.3428 -0.0824
 1268ERGO    R517142  13.863   0.119   9.167 -0.2425  0.0535 -0.1540
 1268ERGO    C117143  13.701   0.189   8.829 -0.3072  0.3790 -0.0585
 1268ERGO    C217144  13.731   0.197   8.467  0.0710 -0.1058  0.1875
 1269ERGO   ROH17145  15.068   1.003   6.242  0.0526 -0.2156 -0.1078
 1269ERGO    R117146  15.185   1.201   6.407  0.0793 -0.1402 -0.2141
 1269ERGO    R217147  15.103   1.244   6.667 -0.0158  0.1114 -0.2794
 1269ERGO    R317148  15.366   1.208   6.723 -0.0582  0.0172 -0.1384
 1269ERGO    R417149  15.249   1.304   6.975 -0.1102  0.2886 -0.2685
 1269ERGO    R517150  15.421   1.389   6.870 -0.0228  0.1093 -0.2672
 1269ERGO    C117151  15.582   1.305   7.206 -0.2049  0.3032 -0.1297
 1269ERGO    C217152  15.438   1.378   7.541 -0.0213  0.1989 -0.4651
 1270ERGO   ROH17153   5.140  16.313   6.892  0.0706  0.0431  0.0696
 1270ERGO    R117154   5.047  16.446   7.124  0.0049  0.1781 -0.0321
 1270ERGO    R217155   4.785  16.431   7.209  0.0275  0.0440  0.0263
 1270ERGO    R317156   4.899  16.350   7.443  0.1369  0.3408  0.0790
 1270ERGO    R417157   4.653  16.489   7.524 -0.1698 -0.1316 -0.0220
 1270ERGO    R517158   4.855  16.529   7.595 -0.2659  0.3004  0.0185
 1270ERGO    C117159   4.684  16.447   7.926 -0.1820  0.0448 -0.0005
 1270ERGO    C217160   4.349  16.339   8.066  0.2782 -0.0854  0.0409
 1271ERGO   ROH17161   2.609  11.751   6.603  0.0214  0.0239 -0.0590
 1271ERGO    R117162   2.541  11.927   6.814 -0.3306 -0.0736 -0.0844
 1271ERGO    R217163   2.347  11.868   7.001 -0.0372 -0.5604  0.0845
 1271ERGO    R317164   2.546  11.920   7.178 -0.0356  0.0848 -0.0831
 1271ERGO    R417165   2.303  11.905   7.342  0.1232 -0.6905  0.1201
 1271ERGO    R517166   2.447  12.069   7.337 -0.3895 -0.2156 -0.0094
 1271ERGO    C117167   2.466  11.976   7.706  0.2181 -0.1606 -0.0165
 1271ERGO    C217168   2.421  11.928   8.060  0.1390 -0.6222 -0.0534
 1272ERGO   ROH17169  15.443  13.205   6.442  0.1402 -0.0741  0.1499
 1272ERGO    R117170  15.241  13.289   6.622  0.0571 -0.0900  0.0634
 1272ERGO    R217171  15.108  13.114   6.789  0.1144 -0.0736  0.1176
 1272ERGO    R317172  15.190  13.287   6.982 -0.0243  0.0647  0.0551
 1272ERGO    R417173  14.968  13.139   7.104  0.3074 -0.3263  0.2282
 1272ERGO    R517174  14.988  13.356   7.090 -0.0699 -0.2818  0.2129
 1272ERGO    C117175  14.963  13.316   7.469  0.2895 -0.3436  0.2339
 1272ERGO    C217176  15.070  13.227   7.795  0.2699 -0.0660 -0.2384
 1273ERGO   ROH17177   3.635   1.132   6.688 -0.3008  0.0250  0.0159
 1273ERGO    R117178   3.730   0.989   6.913 -0.0209  0.0613 -0.0736
 1273ERGO    R217179   3.924   1.089   7.083 -0.0666  0.2480 -0.1185
 1273ERGO    R317180   3.737   1.037   7.274  0.0719 -0.0529 -0.0617
 1273ERGO    R417181   3.990   1.055   7.421  0.1038  0.1525 -0.1616
 1273ERGO    R517182   3.848   0.890   7.427  0.2926 -0.0043 -0.1791
 1273ERGO    C117183   3.854   0.986   7.796  0.3330 -0.1855 -0.1333
 1273ERGO    C217184   3.768   1.141   8.080  0.0746 -0.0783  0.0606
 1274ERGO   ROH17185  10.520   3.768   9.437  0.1386  0.2074  0.1620
 1274ERGO    R117186  10.361   3.758   9.203  0.0139  0.3088  0.2413
 1274ERGO    R217187  10.295   3.983   9.057  0.4329  0.3122  0.0498
 1274ERGO    R317188  10.402   3.842   8.851  0.0508 -0.1280  0.1342
 1274ERGO    R417189  10.227   4.039   8.723  0.5432  0.2602  0.0175
 1274ERGO    R517190  10.224   3.824   8.693 -0.0282  0.2284  0.1696
 1274ERGO    C117191  10.289   3.940   8.335  0.2487 -0.1832  0.0781
 1274ERGO    C217192  10.317   3.923   8.100 -0.0230 -0.0350  0.0656
 1275ERGO   ROH17193   3.433  17.631   6.971  0.1202  0.1058  0.0488
 1275ERGO    R117194   3.487  17.653   7.248  0.0163  0.0072  0.0775
 1275ERGO    R217195   3.307  17.572   7.442 -0.0130 -0.1624 -0.0194
 1275ERGO    R317196   3.518  17.425   7.530  0.0248 -0.1055 -0.0134
 1275ERGO    R417197   3.353  17.468   7.768 -0.0374 -0.2213 -0.0344
 1275ERGO    R517198   3.565  17.513   7.748 -0.0491 -0.1380  0.0164
 1275ERGO    C117199   3.577  17.269   8.041 -0.0161 -0.2022 -0.0375
 1275ERGO    C217200   3.513  17.272   8.282  0.4818 -0.0886  0.4236
 1276ERGO   ROH17201   0.847  14.555   6.325 -0.3587 -0.2234  0.1607
 1276ERGO    R117202   0.898  14.518   6.601 -0.2205 -0.0633  0.1578
 1276ERGO    R217203   1.143  14.578   6.716 -0.1339 -0.0763 -0.0148
 1276ERGO    R317204   0.991  14.729   6.883  0.0122  0.0879 -0.0277
 1276ERGO    R417205   1.246  14.697   7.024  0.0132 -0.0648 -0.0675
 1276ERGO    R517206   1.047  14.651   7.102 -0.0064  0.1081 -0.0166
 1276ERGO    C117207   1.163  14.908   7.359  0.2360  0.0960 -0.1103
 1276ERGO    C217208   1.286  14.998   7.695  0.0822  0.0565 -0.0990
 1277ERGO   ROH17209  13.649  11.119   6.347 -0.2505  0.1680 -0.0097
 1277ERGO    R117210  13.515  11.243   6.563 -0.1751  0.1565  0.0435
 1277ERGO    R217211  13.544  11.158   6.825 -0.1553  0.0846  0.0157
 1277ERGO    R317212  13.610  11.418   6.868 -0.0700  0.0548  0.0707
 1277ERGO    R417213  13.588  11.301   7.136 -0.2287  0.0298  0.0519
 1277ERGO    R517214  13.485  11.479   7.063 -0.1296  0.0807  0.0272
 1277ERGO    C117215  13.675  11.629   7.358 -0.1915 -0.0301  0.1247
 1277ERGO    C217216  13.669  11.646   7.746  0.0970  0.0527 -0.0992
 1278ERGO   ROH17217  15.043  11.852   6.252 -0.1275 -0.1344 -0.0797
 1278ERGO    R117218  14.869  11.842   6.475 -0.0553 -0.1233 -0.0236
 1278ERGO    R217219  14.925  11.693   6.701  0.0345 -0.0815 -0.0221
 1278ERGO    R317220  14.886  11.930   6.828  0.0429 -0.0694 -0.0404
 1278ERGO    R417221  14.871  11.727   7.040  0.1524 -0.0496 -0.0053
 1278ERGO    R517222  14.722  11.881   6.996  0.1090 -0.0770  0.0266
 1278ERGO    C117223  14.802  11.970   7.358  0.2290 -0.0198 -0.0127
 1278ERGO    C217224  14.746  11.884   7.617 -0.4024 -0.0537  0.1335
 1279ERGO   ROH17225   5.281  12.113   6.449  0.0598  0.2310 -0.0458
 1279ERGO    R117226   5.342  11.993   6.698  0.1640  0.1362 -0.1159
 1279ERGO    R217227   5.488  12.122   6.893  0.0367  0.1583 -0.0329
 1279ERGO    R317228   5.273  12.062   7.048  0.0841 -0.1391 -0.0751
 1279ERGO    R417229   5.496  12.089   7.237 -0.0583  0.5750  0.0138
 1279ERGO    R517230   5.361  11.919   7.219  0.3227  0.2465  0.1381
 1279ERGO    C117231   5.299  12.015   7.583 -0.0690  0.5383  0.0012
 1279ERGO    C217232   5.204  11.948   7.849  0.0260  0.0191  0.0114
 1280ERGO   ROH17233   3.561   7.769   6.634  0.5490 -0.2658  0.0920
 1280ERGO    R117234   3.540   7.649   6.890  0.2211 -0.0468  0.1748
 1280ERGO    R217235   3.478   7.794   7.117 -0.0846  0.1491 -0.0238
 1280ERGO    R317236   3.281   7.608   7.142 -0.1112  0.1638 -0.1220
 1280ERGO    R417237   3.278   7.755   7.396  0.0238 -0.0816  0.0242
 1280ERGO    R517238   3.293   7.539   7.371 -0.0295 -0.0620 -0.1926
 1280ERGO    C117239   2.976   7.558   7.582  0.0620 -0.2023 -0.0399
 1280ERGO    C217240   2.886   7.699   7.825 -0.1782  0.1832  0.0531
 1281ERGO   ROH17241   9.517   7.464   6.560  0.0938 -0.0957  0.0755
 1281ERGO    R117242   9.453   7.384   6.824 -0.0023 -0.0984  0.0530
 1281ERGO    R217243   9.474   7.122   6.910  0.0626 -0.0863  0.0882
 1281ERGO    R317244   9.629   7.233   7.104 -0.0743 -0.0029  0.1497
 1281ERGO    R417245   9.491   7.012   7.237 -0.0645 -0.0255  0.1144
 1281ERGO    R517246   9.496   7.220   7.302 -0.1681 -0.0159  0.0834
 1281ERGO    C117247   9.646   7.052   7.610 -0.2672  0.0880  0.1874
 1281ERGO    C217248   9.745   7.126   7.959 -0.0518  0.0238 -0.4604
 1282ERGO   ROH17249  13.915   6.257   5.982  0.0267 -0.1418 -0.1335
 1282ERGO    R117250  14.016   6.274   6.246  0.0434 -0.3917 -0.1201
 1282ERGO    R217251  13.904   6.439   6.439  0.4225 -0.0948 -0.1338
 1282ERGO    R317252  13.892   6.208   6.582 -0.1763 -0.0804 -0.1372
 1282ERGO    R417253  13.901   6.419   6.784  0.4282 -0.1021 -0.1348
 1282ERGO    R517254  14.033   6.246   6.770 -0.0319 -0.4670 -0.1614
 1282ERGO    C117255  13.888   6.190   7.119 -0.1306 -0.0927 -0.1386
 1282ERGO    C217256  13.924   6.157   7.410 -0.2002 -0.3258 -0.0540
 1283ERGO   ROH17257  13.055   1.104   6.203 -0.0519  0.1846  0.0385
 1283ERGO    R117258  13.005   1.025   6.471 -0.1913  0.2623  0.0366
 1283ERGO    R217259  13.203   0.925   6.636 -0.3538 -0.0608  0.0448
 1283ERGO    R317260  13.120   1.124   6.801 -0.0407  0.0781  0.0417
 1283ERGO    R417261  13.145   0.889   6.974 -0.3195  0.0588  0.0635
 1283ERGO    R517262  12.969   1.016   6.953 -0.1540  0.3004  0.0923
 1283ERGO    C117263  13.033   1.055   7.327 -0.0055  0.2588  0.0715
 1283ERGO    C217264  13.277   1.196   7.607 -0.0295  0.1553 -0.0590
 1284ERGO   ROH17265   8.812   9.967  10.231 -0.0615 -0.0666  0.0045
 1284ERGO    R117266   8.963   9.859  10.017 -0.0453  0.0032 -0.0199
 1284ERGO    R217267   8.871   9.650   9.860 -0.0399  0.0641 -0.1051
 1284ERGO    R317268   8.923   9.823   9.657 -0.0108  0.1354 -0.0376
 1284ERGO    R417269   8.894   9.562   9.527  0.1225  0.1597 -0.1198
 1284ERGO    R517270   9.062   9.699   9.508  0.0888  0.2182 -0.0150
 1284ERGO    C117271   8.956   9.673   9.142  0.2443  0.2822 -0.0652
 1284ERGO    C217272   8.797   9.657   8.800 -0.1797 -0.3580 -0.0946
 1285ERGO   ROH17273  15.094  15.123  10.054 -0.0479 -0.0508 -0.0011
 1285ERGO    R117274  15.279  15.096   9.842  0.0787 -0.0161  0.1042
 1285ERGO    R217275  15.253  14.902   9.646  0.2877 -0.0915  0.1509
 1285ERGO    R317276  15.269  15.116   9.478  0.2581 -0.1353  0.0914
 1285ERGO    R417277  15.212  14.888   9.303  0.1499 -0.1695  0.1695
 1285ERGO    R517278  15.376  15.030   9.282  0.1666 -0.2022  0.0698
 1285ERGO    C117279  15.202  15.081   8.946  0.0420 -0.2562  0.1247
 1285ERGO    C217280  15.223  15.065   8.679  0.1422  0.0972 -0.1504
 1286ERGO   ROH17281  12.387  10.757   6.317  0.2912  0.0171  0.0189
 1286ERGO    R117282  12.452  10.600   6.544  0.1176 -0.0086  0.0531
 1286ERGO    R217283  12.693  10.626   6.679  0.1104 -0.1812  0.1043
 1286ERGO    R317284  12.530  10.661   6.894  0.0874 -0.0264  0.0624
 1286ERGO    R417285  12.796  10.631   7.009  0.0599 -0.0297  0.1182
 1286ERGO    R517286  12.619  10.517   7.062  0.0257  0.0427  0.1535
 1286ERGO    C117287  12.703  10.667   7.402  0.0089  0.2038  0.0871
 1286ERGO    C217288  12.797  10.525   7.745 -0.0395 -0.2307 -0.2234
 1287ERGO   ROH17289  10.858   1.573   9.726 -0.1089  0.1146 -0.1630
 1287ERGO    R117290  10.749   1.676   9.487  0.0999  0.0789 -0.2756
 1287ERGO    R217291  10.889   1.682   9.249  0.1494 -0.3849 -0.2643
 1287ERGO    R317292  10.672   1.548   9.155 -0.0694 -0.1083 -0.1677
 1287ERGO    R417293  10.814   1.640   8.914  0.0752 -0.4844 -0.2360
 1287ERGO    R517294  10.604   1.674   8.963  0.1240 -0.1204 -0.2487
 1287ERGO    C117295  10.565   1.490   8.631 -0.1734 -0.2827 -0.1290
 1287ERGO    C217296  10.685   1.436   8.329  0.0170 -0.0848  0.0078
 1288ERGO   ROH17297  12.250  18.013  10.031  0.2779 -0.2940  0.0236
 1288ERGO    R117298  12.314  17.863   9.799  0.4180 -0.0990 -0.0655
 1288ERGO    R217299  12.123  17.779   9.618  0.4426 -0.4829  0.0813
 1288ERGO    R317300  12.282  17.907   9.439  0.0137 -0.0774 -0.0323
 1288ERGO    R417301  12.091  17.759   9.274  0.1136 -0.3686  0.1006
 1288ERGO    R517302  12.308  17.751   9.260  0.1261  0.0562 -0.1373
 1288ERGO    C117303  12.223  17.867   8.906 -0.4804  0.0786  0.0051
 1288ERGO    C217304  12.004  17.752   8.673  0.0277  0.0211  0.1629
 1289ERGO   ROH17305   7.846  13.769   6.605 -0.0847 -0.2275  0.0137
 1289ERGO    R117306   7.751  13.827   6.865 -0.1009 -0.1106 -0.0186
 1289ERGO    R217307   7.634  13.637   7.027 -0.0403 -0.0553  0.0868
 1289ERGO    R317308   7.824  13.716   7.204 -0.0655  0.1024  0.0458
 1289ERGO    R417309   7.585  13.670   7.368 -0.0154 -0.0351  0.0890
 1289ERGO    R517310   7.705  13.852   7.362 -0.1371  0.0489  0.0416
 1289ERGO    C117311   7.736  13.764   7.732 -0.0244  0.1247  0.0518
 1289ERGO    C217312   7.877  13.830   7.984  0.3542  0.1382  0.1859
 1290ERGO   ROH17313  17.219  16.258   6.446  0.1877 -0.0988 -0.0989
 1290ERGO    R117314  17.207  16.123   6.695  0.0066  0.0037 -0.0505
 1290ERGO    R217315  17.376  15.914   6.760 -0.1822 -0.1099  0.0763
 1290ERGO    R317316  17.431  16.068   6.977 -0.1185 -0.0741  0.0356
 1290ERGO    R417317  17.481  15.793   7.066 -0.0746 -0.0632  0.0590
 1290ERGO    R517318  17.351  15.940   7.162 -0.0522 -0.0540  0.0811
 1290ERGO    C117319  17.593  15.868   7.448  0.0479 -0.0024  0.0107
 1290ERGO    C217320  17.712  15.861   7.727  0.0149  0.2041  0.6796
 1291ERGO   ROH17321   0.680  15.961  10.233  0.1497 -0.0920 -0.0649
 1291ERGO    R117322   0.562  16.092  10.012  0.1957  0.0083 -0.0310
 1291ERGO    R217323   0.712  16.219   9.817  0.2517 -0.1628 -0.1031
 1291ERGO    R317324   0.571  16.059   9.649  0.0191 -0.0369 -0.0319
 1291ERGO    R417325   0.647  16.289   9.485  0.2788 -0.1737 -0.1102
 1291ERGO    R517326   0.446  16.210   9.513  0.1823  0.0836 -0.0508
 1291ERGO    C117327   0.476  16.179   9.134  0.0763 -0.0618 -0.0476
 1291ERGO    C217328   0.525  16.289   8.848 -0.2561 -0.0002  0.2899
 1292ERGO   ROH17329   1.653   8.945   6.219  0.1857 -0.1806 -0.1618
 1292ERGO    R117330   1.790   8.803   6.422  0.3151  0.0916 -0.0528
 1292ERGO    R217331   1.918   8.929   6.632  0.0327  0.3592 -0.0324
 1292ERGO    R317332   1.763   8.765   6.783  0.2099  0.1701 -0.0525
 1292ERGO    R417333   1.913   8.925   6.978 -0.0979  0.4447 -0.0330
 1292ERGO    R517334   1.901   8.708   6.970  0.2227  0.4216  0.0182
 1292ERGO    C117335   1.765   8.769   7.321 -0.0077  0.3170 -0.0521
 1292ERGO    C217336   1.846   8.857   7.626 -0.1270 -0.0287 -0.3854
 1293ERGO   ROH17337  10.185   5.422   6.383  0.1496  0.1542 -0.0729
 1293ERGO    R117338  10.372   5.278   6.539  0.1084  0.1578 -0.0198
 1293ERGO    R217339  10.617   5.196   6.441  0.0433 -0.0416 -0.0241
 1293ERGO    R317340  10.712   5.329   6.658  0.1644  0.0555 -0.1351
 1293ERGO    R417341  10.921   5.133   6.592  0.0511 -0.0891 -0.0596
 1293ERGO    R517342  10.825   5.160   6.786  0.1141  0.0858 -0.0523
 1293ERGO    C117343  11.188   5.221   6.884  0.1692 -0.0257 -0.1844
 1293ERGO    C217344  11.454   5.120   7.094  0.0558  0.1085 -0.4873
 1294ERGO   ROH17345  10.723  14.847   6.626  0.0129  0.0568 -0.0539
 1294ERGO    R117346  10.895  14.889   6.847  0.0313  0.0106 -0.0591
 1294ERGO    R217347  10.811  14.858   7.108  0.0215  0.0644 -0.0545
 1294ERGO    R317348  11.025  14.690   7.123 -0.0421 -0.0160 -0.0440
 1294ERGO    R417349  11.023  14.831   7.380  0.1701  0.1919 -0.1562
 1294ERGO    R517350  11.191  14.815   7.241  0.0824  0.0081 -0.2421
 1294ERGO    C117351  11.347  14.658   7.552  0.1969  0.1907 -0.2057
 1294ERGO    C217352  11.340  14.778   7.956  0.0825 -0.2675  0.0944
 1295ERGO   ROH17353  11.413  13.964   6.308  0.3102  0.0728 -0.0299
 1295ERGO    R117354  11.461  14.032   6.578 -0.0329 -0.0272  0.0619
 1295ERGO    R217355  11.328  13.911   6.788 -0.0520 -0.3604 -0.1316
 1295ERGO    R317356  11.581  13.862   6.877 -0.0520 -0.0484  0.0568
 1295ERGO    R417357  11.406  13.764   7.091 -0.0835 -0.1594 -0.0242
 1295ERGO    R517358  11.570  13.906   7.112 -0.2535  0.0308  0.0336
 1295ERGO    C117359  11.688  13.632   7.351 -0.1019  0.2506  0.2151
 1295ERGO    C217360  11.703  13.656   7.610  0.0247 -0.0298  0.0163
 1296ERGO   ROH17361   4.569   4.215  10.400 -0.1626 -0.1785  0.1613
 1296ERGO    R117362   4.463   4.360  10.181 -0.0244 -0.0446  0.1840
 1296ERGO    R217363   4.620   4.454   9.974  0.0581 -0.1866  0.1980
 1296ERGO    R317364   4.442   4.317   9.821 -0.0916  0.0230  0.1753
 1296ERGO    R417365   4.602   4.471   9.630  0.2993 -0.3234  0.1744
 1296ERGO    R517366   4.385   4.469   9.646  0.2665  0.0491  0.0580
 1296ERGO    C117367   4.425   4.353   9.285  0.2992 -0.2064  0.1395
 1296ERGO    C217368   4.362   4.361   8.936  0.0255  0.3388  0.1366
 1297ERGO   ROH17369   0.119   4.578  10.286 -0.2707 -0.2522 -0.1633
 1297ERGO    R117370   0.233   4.655  10.038 -0.3285  0.0445 -0.1027
 1297ERGO    R217371   0.373   4.478   9.877  0.1672  0.3809 -0.0672
 1297ERGO    R317372   0.194   4.559   9.689  0.0553 -0.0117 -0.1313
 1297ERGO    R417373   0.436   4.493   9.538  0.1211  0.1609 -0.0856
 1297ERGO    R517374   0.326   4.680   9.530 -0.1131  0.0117 -0.2474
 1297ERGO    C117375   0.305   4.576   9.163 -0.0108 -0.3357 -0.1565
 1297ERGO    C217376   0.325   4.586   8.728  0.0100 -0.2410  0.1032
 1298ERGO   ROH17377   3.691   5.254   6.713 -0.1333  0.2748  0.0789
 1298ERGO    R117378   3.848   5.211   6.944  0.1063 -0.1350 -0.1494
 1298ERGO    R217379   4.106   5.112   6.934  0.2901  0.3722 -0.6452
 1298ERGO    R317380   4.164   5.335   7.077 -0.0306  0.0687  0.0008
 1298ERGO    R417381   4.423   5.207   7.032  0.2296  0.7405 -0.7870
 1298ERGO    R517382   4.340   5.268   7.224  0.3253 -0.0482 -0.4438
 1298ERGO    C117383   4.662   5.473   7.223 -0.1069  0.6700 -0.2633
 1298ERGO    C217384   4.829   5.667   7.135 -0.0204  0.0821  0.1738
 1299ERGO   ROH17385  15.257   7.403   6.094 -0.3756  0.0842  0.1130
 1299ERGO    R117386  15.351   7.499   6.343 -0.3980  0.0856  0.1207
 1299ERGO    R217387  15.541   7.699   6.364 -0.1535 -0.1435  0.1309
 1299ERGO    R317388  15.353   7.817   6.521 -0.0981  0.1740 -0.0332
 1299ERGO    R417389  15.606   7.941   6.602  0.0408 -0.2078  0.1451
 1299ERGO    R517390  15.461   7.844   6.733 -0.2177  0.0335  0.0482
 1299ERGO    C117391  15.467   8.193   6.888  0.2061  0.0528 -0.0008
 1299ERGO    C217392  15.487   8.287   7.112 -0.0458  0.1576  0.1959
 1300ERGO   ROH17393   7.080   0.377   6.871  0.0365 -0.0553 -0.0408
 1300ERGO    R117394   7.130   0.429   7.145  0.2953 -0.0166 -0.0929
 1300ERGO    R217395   7.006   0.288   7.348  0.0933  0.3498  0.0456
 1300ERGO    R317396   7.262   0.243   7.429  0.0531 -0.1596 -0.0704
 1300ERGO    R417397   7.098   0.198   7.669  0.0633  0.1924  0.0116
 1300ERGO    R517398   7.269   0.332   7.652  0.3349 -0.1481 -0.0794
 1300ERGO    C117399   7.391   0.105   7.933  0.0082 -0.3774 -0.1170
 1300ERGO    C217400   7.349   0.038   8.250 -0.0584  0.1038 -0.2597
 1301ERGO   ROH17401   8.164   6.690   6.561  0.1555 -0.1095  0.0391
 1301ERGO    R117402   8.268   6.596   6.807  0.0656  0.0376  0.1357
 1301ERGO    R217403   8.159   6.667   7.051 -0.2619 -0.1119  0.0438
 1301ERGO    R317404   8.146   6.398   7.087  0.0838 -0.1339  0.0222
 1301ERGO    R417405   8.136   6.510   7.358 -0.1671 -0.1643  0.0229
 1301ERGO    R517406   8.275   6.359   7.285  0.0625  0.0247  0.0660
 1301ERGO    C117407   8.111   6.165   7.570  0.2127 -0.2154 -0.0096
 1301ERGO    C217408   8.131   6.101   7.873  0.0460 -0.0124 -0.1184
 1302ERGO   ROH17409  15.134   8.230   9.909 -0.2426 -0.0596 -0.0140
 1302ERGO    R117410  15.158   8.359   9.659 -0.2367 -0.0920 -0.0303
 1302ERGO    R217411  15.356   8.296   9.476 -0.0599  0.0754  0.0979
 1302ERGO    R317412  15.145   8.261   9.308  0.0696 -0.1910 -0.0159
 1302ERGO    R417413  15.370   8.330   9.133  0.0762  0.0910  0.1044
 1302ERGO    R517414  15.176   8.429   9.140 -0.0532 -0.1528  0.0010
 1302ERGO    C117415  15.181   8.317   8.775  0.2770 -0.1502  0.0012
 1302ERGO    C217416  15.144   8.303   8.443 -0.1529  0.2601  0.0756
 1303ERGO   ROH17417  14.267   2.520   9.983 -0.0039 -0.0719  0.0783
 1303ERGO    R117418  14.198   2.344   9.772 -0.0629  0.0286  0.0137
 1303ERGO    R217419  14.214   2.417   9.505  0.2899  0.0135  0.0299
 1303ERGO    R317420  14.369   2.194   9.487 -0.0107 -0.2136  0.1681
 1303ERGO    R417421  14.275   2.241   9.214  0.3266 -0.0447  0.0715
 1303ERGO    R517422  14.256   2.056   9.327 -0.0567 -0.0359  0.0410
 1303ERGO    C117423  14.455   1.929   9.027  0.0657 -0.2919  0.2258
 1303ERGO    C217424  14.607   1.817   8.706  0.0124  0.0827  0.1626
 1304ERGO   ROH17425  13.899  10.786   7.830 -0.1057  0.1103  0.0295
 1304ERGO    R117426  13.869  11.040   7.951 -0.1667  0.1213 -0.0056
 1304ERGO    R217427  13.990  11.107   8.191 -0.2144  0.1719  0.0108
 1304ERGO    R317428  14.087  11.316   8.047 -0.2244  0.1649 -0.0037
 1304ERGO    R417429  14.110  11.401   8.326 -0.0544  0.1153 -0.0082
 1304ERGO    R517430  14.011  11.510   8.165 -0.1017  0.1691  0.0625
 1304ERGO    C117431  14.270  11.769   8.270  0.0293  0.0757 -0.0329
 1304ERGO    C217432  14.419  11.978   8.116 -0.0069 -0.0194 -0.0950
 1305ERGO   ROH17433   3.564  17.818  10.226  0.0840  0.0936 -0.1294
 1305ERGO    R117434   3.413  17.923  10.010 -0.0834  0.0371 -0.0434
 1305ERGO    R217435   3.532  18.044   9.791 -0.2646  0.2896 -0.0112
 1305ERGO    R317436   3.386  17.861   9.652 -0.0858  0.1900 -0.0693
 1305ERGO    R417437   3.451  18.069   9.456 -0.0144  0.1472 -0.0841
 1305ERGO    R517438   3.252  17.993   9.503 -0.0202  0.0875 -0.2169
 1305ERGO    C117439   3.267  17.913   9.131  0.2992 -0.0292 -0.1811
 1305ERGO    C217440   3.481  17.984   8.877  0.0542 -0.4430 -0.2339
 1306ERGO   ROH17441   2.574  10.561   6.818 -0.0427 -0.0171  0.0641
 1306ERGO    R117442   2.577  10.309   6.948  0.0560 -0.1103 -0.1150
 1306ERGO    R217443   2.774  10.120   6.901  0.2370  0.0711 -0.1129
 1306ERGO    R317444   2.801  10.130   7.172  0.0342 -0.0981 -0.0844
 1306ERGO    R417445   2.741   9.849   7.113 -0.1668 -0.0136 -0.2754
 1306ERGO    R517446   2.635   9.978   7.254 -0.1636  0.0024 -0.2921
 1306ERGO    C117447   2.747   9.700   7.490 -0.5923 -0.2216 -0.3433
 1306ERGO    C217448   2.891   9.674   7.830 -0.1746 -0.0198  0.4082
 1307ERGO   ROH17449   7.121   7.247   6.311  0.0079 -0.0294 -0.0771
 1307ERGO    R117450   6.888   7.244   6.472 -0.0444 -0.0320 -0.1531
 1307ERGO    R217451   6.897   7.211   6.746 -0.1343 -0.0664 -0.1550
 1307ERGO    R317452   6.753   7.442   6.746 -0.1185 -0.0548 -0.1724
 1307ERGO    R417453   6.773   7.368   7.028 -0.1040 -0.0229 -0.1648
 1307ERGO    R517454   6.590   7.411   6.918 -0.1096 -0.0227 -0.1574
 1307ERGO    C117455   6.566   7.676   7.192 -0.0716  0.0133 -0.1870
 1307ERGO    C217456   6.499   7.910   7.463 -0.1334 -0.4333  0.4549
 1308ERGO   ROH17457  16.769   8.795   6.329 -0.2789  0.1916 -0.0897
 1308ERGO    R117458  16.651   8.761   6.584 -0.1525  0.0414 -0.0520
 1308ERGO    R217459  16.450   8.924   6.678 -0.0872 -0.0032  0.1486
 1308ERGO    R317460  16.319   8.689   6.715 -0.0929 -0.0148  0.0753
 1308ERGO    R417461  16.323   8.814   6.980 -0.1838 -0.0379  0.0980
 1308ERGO    R517462  16.392   8.614   6.931 -0.1572 -0.0357  0.0957
 1308ERGO    C117463  16.126   8.529   7.191 -0.2452 -0.0690 -0.0003
 1308ERGO    C217464  15.903   8.489   7.429  0.3084 -0.0621 -0.0968
 1309ERGO   ROH17465  14.800   4.013   9.891  0.1219 -0.0332 -0.0052
 1309ERGO    R117466  14.982   4.036   9.675  0.0037  0.0520 -0.0962
 1309ERGO    R217467  15.053   3.821   9.516  0.0737  0.0727 -0.0884
 1309ERGO    R317468  14.972   3.985   9.315 -0.1321 -0.0189 -0.0838
 1309ERGO    R417469  15.119   3.770   9.181  0.0310  0.0961 -0.1009
 1309ERGO    R517470  15.155   3.984   9.160 -0.1688  0.1309 -0.1329
 1309ERGO    C117471  15.082   3.894   8.797 -0.1870  0.0236 -0.1040
 1309ERGO    C217472  15.264   3.974   8.492  0.0079 -0.1325  0.4394
 1310ERGO   ROH17473  16.288  10.310   6.118  0.1462  0.0834 -0.0174
 1310ERGO    R117474  16.204  10.394   6.374  0.1005  0.0264 -0.0134
 1310ERGO    R217475  16.042  10.238   6.537  0.0247  0.0135 -0.0990
 1310ERGO    R317476  16.242  10.277   6.717 -0.0110 -0.0839 -0.0380
 1310ERGO    R417477  16.014  10.190   6.878 -0.0915 -0.0097 -0.1118
 1310ERGO    R517478  16.133  10.369   6.908 -0.0289 -0.0601 -0.0601
 1310ERGO    C117479  16.185  10.198   7.245 -0.1926 -0.1145 -0.0620
 1310ERGO    C217480  16.341  10.083   7.569  0.2810 -0.3351 -0.0288
 1311ERGO   ROH17481   8.539   2.437   6.195 -0.0865 -0.0616 -0.0759
 1311ERGO    R117482   8.549   2.510   6.469 -0.0196 -0.0257 -0.0871
 1311ERGO    R217483   8.413   2.372   6.665 -0.0428  0.0512 -0.0453
 1311ERGO    R317484   8.659   2.357   6.780 -0.0304 -0.0224 -0.0824
 1311ERGO    R417485   8.470   2.337   7.004  0.0011  0.2015 -0.0371
 1311ERGO    R517486   8.635   2.478   6.985  0.0749  0.0999 -0.1429
 1311ERGO    C117487   8.733   2.303   7.310  0.0384  0.2199 -0.0672
 1311ERGO    C217488   8.810   2.147   7.511  0.0552  0.4713  0.0751
 1312ERGO   ROH17489   4.382  15.249   7.056 -0.4918  0.1774  0.1926
 1312ERGO    R117490   4.436  15.361   7.310 -0.3440 -0.1283  0.2997
 1312ERGO    R217491   4.522  15.210   7.524  0.3321 -0.3119 -0.0835
 1312ERGO    R317492   4.724  15.392   7.530 -0.0483  0.1351 -0.1035
 1312ERGO    R417493   4.657  15.345   7.812  0.3721 -0.4015 -0.0587
 1312ERGO    R517494   4.666  15.538   7.711 -0.1742 -0.2224  0.1691
 1312ERGO    C117495   4.925  15.595   7.985  0.0383 -0.0342 -0.0630
 1312ERGO    C217496   5.267  15.604   8.127  0.1579 -0.0082  0.1270
 1313ERGO   ROH17497   9.023   8.888   6.536  0.0870  0.0552  0.1161
 1313ERGO    R117498   8.908   8.919   6.793 -0.0277  0.1120  0.0578
 1313ERGO    R217499   9.012   8.795   7.018 -0.1966  0.0718  0.1074
 1313ERGO    R317500   9.014   9.049   7.116 -0.1332  0.0713  0.1115
 1313ERGO    R417501   9.090   8.880   7.344  0.0557  0.0571  0.0534
 1313ERGO    R517502   8.929   9.027   7.339  0.0382  0.0536  0.1822
 1313ERGO    C117503   9.138   9.167   7.626  0.2622  0.0480  0.0257
 1313ERGO    C217504   9.202   9.194   7.900 -0.1282  0.0437  0.0032
 1314ERGO   ROH17505   4.896   7.705  10.163  0.3988  0.0350 -0.2357
 1314ERGO    R117506   4.773   7.835   9.943  0.3303  0.1655 -0.1216
 1314ERGO    R217507   4.918   7.972   9.752  0.2958  0.0457 -0.2312
 1314ERGO    R317508   4.785   7.808   9.580 -0.0036  0.1824 -0.1374
 1314ERGO    R417509   4.884   8.028   9.412  0.3646 -0.0559 -0.2555
 1314ERGO    R517510   4.678   7.958   9.427  0.2362  0.3001 -0.1994
 1314ERGO    C117511   4.739   7.907   9.054  0.1237  0.0132 -0.1817
 1314ERGO    C217512   4.775   7.867   8.743  0.4361 -0.0760  0.1301
 1315ERGO   ROH17513  11.205   6.234   6.092 -0.0685  0.3997 -0.0152
 1315ERGO    R117514  11.290   6.287   6.357 -0.0207  0.2674 -0.0026
 1315ERGO    R217515  11.132   6.420   6.540 -0.0128  0.1244  0.1138
 1315ERGO    R317516  11.180   6.200   6.693  0.0758  0.0457 -0.0268
 1315ERGO    R417517  11.182   6.423   6.882 -0.0990 -0.0837  0.1292
 1315ERGO    R517518  11.338   6.274   6.856 -0.0072  0.0240  0.0630
 1315ERGO    C117519  11.256   6.219   7.224 -0.0661 -0.2788  0.0062
 1315ERGO    C217520  11.082   6.251   7.551 -0.2816 -0.2100 -0.0356
 1316ERGO   ROH17521  15.924   3.830   9.813  0.1741  0.0065  0.0962
 1316ERGO    R117522  16.054   3.867   9.565  0.1325  0.2114  0.1033
 1316ERGO    R217523  16.112   3.658   9.394  0.3274  0.3190  0.0329
 1316ERGO    R317524  15.976   3.810   9.214  0.1758  0.2503  0.0876
 1316ERGO    R417525  16.110   3.605   9.053  0.0804  0.2228  0.0470
 1316ERGO    R517526  16.122   3.821   9.024  0.0335  0.2147 -0.0238
 1316ERGO    C117527  15.982   3.717   8.685 -0.2057  0.1022  0.1066
 1316ERGO    C217528  15.906   3.584   8.339  0.1917 -0.2543  0.4537
 1317ERGO   ROH17529   7.364  17.610   6.764  0.1268  0.2292  0.0855
 1317ERGO    R117530   7.448  17.667   7.028  0.1422  0.0604  0.1184
 1317ERGO    R217531   7.350  17.532   7.247 -0.0095  0.0680  0.0558
 1317ERGO    R317532   7.614  17.488   7.298 -0.0537 -0.1859  0.0799
 1317ERGO    R417533   7.479  17.447   7.557 -0.0771  0.3649  0.1685
 1317ERGO    R517534   7.647  17.581   7.517  0.0885  0.1016 -0.0577
 1317ERGO    C117535   7.801  17.357   7.785 -0.1580  0.2992  0.2568
 1317ERGO    C217536   7.986  17.261   7.966  0.0326 -0.0409  0.0381
 1318ERGO   ROH17537  16.185  12.747  10.050 -0.1701  0.1944 -0.1851
 1318ERGO    R117538  16.129  12.925   9.837  0.0117  0.2797 -0.1604
 1318ERGO    R217539  16.321  13.003   9.654  0.0749  0.0622 -0.1739
 1318ERGO    R317540  16.139  12.914   9.473 -0.0583  0.3044 -0.1661
 1318ERGO    R417541  16.337  13.059   9.314  0.3931 -0.3088 -0.2290
 1318ERGO    R517542  16.122  13.092   9.314  0.4470  0.2073 -0.3594
 1318ERGO    C117543  16.175  13.009   8.945  0.4531 -0.2976 -0.2539
 1318ERGO    C217544  16.192  13.016   8.564 -0.0258  0.5752  0.1225
 1319ERGO   ROH17545  10.879   3.969   9.345  0.0744  0.1360 -0.1227
 1319ERGO    R117546  10.756   3.934   9.093  0.0728 -0.0612 -0.0972
 1319ERGO    R217547  10.755   4.131   8.899 -0.3214 -0.0360 -0.0844
 1319ERGO    R317548  10.861   3.934   8.744 -0.0028  0.1581 -0.1208
 1319ERGO    R417549  10.761   4.131   8.553 -0.3220  0.0295 -0.0836
 1319ERGO    R517550  10.713   3.919   8.557  0.0202 -0.0491 -0.1211
 1319ERGO    C117551  10.864   3.947   8.207 -0.0234  0.2500 -0.1174
 1319ERGO    C217552  11.079   3.934   7.895 -0.4785 -0.1403  0.1593
 1320ERGO   ROH17553  11.720  11.325   6.569 -0.0582 -0.2455 -0.0285
 1320ERGO    R117554  11.801  11.380   6.835 -0.1070 -0.1901 -0.0233
 1320ERGO    R217555  11.682  11.262   7.054 -0.1557 -0.1391 -0.0145
 1320ERGO    R317556  11.937  11.191   7.114 -0.1704 -0.1368  0.0421
 1320ERGO    R417557  11.810  11.243   7.374 -0.2348 -0.1845  0.0132
 1320ERGO    R517558  11.995  11.332   7.300 -0.2228 -0.1673  0.0772
 1320ERGO    C117559  12.125  11.165   7.618 -0.2946 -0.2089  0.0824
 1320ERGO    C217560  12.161  11.343   7.900  0.0650  0.0814  0.1248
 1321ERGO   ROH17561  14.607   5.104  10.110  0.1010 -0.1294  0.0502
 1321ERGO    R117562  14.690   5.289   9.912 -0.0127  0.0090  0.1255
 1321ERGO    R217563  14.922   5.254   9.763  0.0805  0.2719  0.1774
 1321ERGO    R317564  14.751   5.280   9.553  0.1052  0.1562  0.1457
 1321ERGO    R417565  15.011   5.352   9.444  0.0842  0.0953  0.1247
 1321ERGO    R517566  14.830   5.471   9.434  0.0984  0.0792  0.0413
 1321ERGO    C117567  14.903   5.435   9.062  0.1095 -0.1162  0.0645
 1321ERGO    C217568  14.900   5.466   8.622 -0.2103  0.1935  0.2179
 1322ERGO   ROH17569   3.419  14.372  10.481  0.0237  0.1739 -0.0961
 1322ERGO    R117570   3.479  14.234  10.241 -0.0623  0.1076 -0.0805
 1322ERGO    R217571   3.282  14.143  10.068 -0.1229  0.1521 -0.0390
 1322ERGO    R317572   3.422  14.287   9.885 -0.0916  0.0674 -0.0813
 1322ERGO    R417573   3.271  14.092   9.727  0.0119 -0.0653 -0.0124
 1322ERGO    R517574   3.486  14.126   9.719  0.0046 -0.0212  0.0424
 1322ERGO    C117575   3.396  14.197   9.356  0.1198 -0.2714 -0.0367
 1322ERGO    C217576   3.387  14.206   9.039 -0.0090  0.4040  0.1678
 1323ERGO   ROH17577   1.349  13.883   6.441  0.2794  0.1210  0.1777
 1323ERGO    R117578   1.344  14.001   6.698  0.0990 -0.0422  0.2499
 1323ERGO    R217579   1.125  14.141   6.793  0.0824  0.0017  0.1339
 1323ERGO    R317580   1.144  13.966   7.000 -0.1997 -0.1374  0.0478
 1323ERGO    R417581   1.003  14.197   7.112  0.2707  0.1054  0.1901
 1323ERGO    R517582   1.183  14.104   7.192  0.1236 -0.2869  0.1024
 1323ERGO    C117583   0.949  14.066   7.491  0.1156  0.0352  0.1421
 1323ERGO    C217584   0.978  14.027   7.833  0.0447 -0.2583 -0.0683
 1324W        W17585  10.554   0.750   1.290  0.2305 -0.2776 -0.0195
 1325W        W17586  13.002  11.247  13.447  0.0548  0.0891  0.2488
 1326W        W17587  10.283   4.996   6.050  0.2796  0.0417  0.0967
 1327W        W17588   3.935  11.403   1.251 -0.0128  0.0727 -0.0161
 1328W        W17589  12.169   4.638  10.795  0.1314  0.2310  0.0917
 1329W        W17590   6.141   6.947   3.201  0.0552  0.0509 -0.3044
 1330W        W17591   1.963  17.080   1.529  0.0183  0.3045  0.1137
 1331W        W17592  17.722  11.170  13.572 -0.0971  0.2063  0.2128
 1332W        W17593  11.549   9.063  14.483  0.2163 -0.0023 -0.2445
 1333W        W17594  16.492   3.616   0.237  0.3270 -0.1285  0.1122
 1334W        W17595   7.448   1.241   2.453 -0.0488 -0.0880 -0.0427
 1335W        W17596   5.750  16.133  12.859 -0.0036 -0.2809 -0.1504
 1336W        W17597   6.139   2.469   4.904 -0.3204  0.1969  0.1962
 1337W        W17598   3.026   8.346   3.728 -0.3835 -0.2880 -0.0984
 1338W        W17599  10.486  13.830  12.906 -0.0713 -0.0366  0.0473
 1339W        W17600   2.551   3.345   4.975 -0.0725 -0.4055 -0.1736
 1340W        W17601  12.289  13.176  13.807  0.0671  0.2975 -0.1552
 1341W        W17602  14.725  15.586   2.655  0.1330  0.0823  0.1622
 1342W        W17603  16.735   8.945  16.063 -0.0026  0.0068 -0.1336
 1343W        W17604  13.536  14.651   1.461 -0.1544 -0.2092 -0.2264
 1344W        W17605  16.236  12.051  14.921 -0.1162 -0.0834 -0.2088
 1345W        W17606  15.605  13.943  13.403 -0.0760  0.1166  0.2093
 1346W        W17607  14.762  12.627   3.263 -0.2028  0.0525 -0.0705
 1347W        W17608  15.400   1.240   4.873  0.0109 -0.2521  0.0596
 1348W        W17609   7.298   9.873   2.192  0.1127  0.2575 -0.0457
 1349W        W17610  16.740   3.981  16.507  0.2457 -0.1288 -0.0798
 1350W        W17611   3.059  11.995   0.599  0.0572  0.2272  0.0242
 1351W        W17612  10.315  17.234  11.644 -0.3901 -0.0101  0.2475
 1352W        W17613  10.064  12.198  14.345  0.1078 -0.1893  0.0090
 1353W        W17614  11.356   9.657  11.512  0.0522 -0.1188 -0.3270
 1354W        W17615  14.671   5.021  12.466 -0.1064 -0.1811 -0.0589
 1355W        W17616   6.314  11.429  12.436 -0.1054 -0.3770  0.1295
 1356W        W17617   0.172  10.287   6.050 -0.0649 -0.0121 -0.2438
 1357W        W17618  17.018   9.690   1.854  0.2677  0.1463  0.1752
 1358W        W17619  12.944   9.686  12.259  0.1382 -0.0758 -0.2715
 1359W        W17620  17.837  13.085   2.884  0.1525 -0.1762  0.0510
 1360W        W17621   6.070   6.995  12.977  0.1194  0.1243  0.0930
 1361W        W17622   1.833  15.908  16.020 -0.1935 -0.1388  0.2932
 1362W        W17623   2.584   8.729   6.010  0.4792  0.2434  0.0808
 1363W        W17624   4.667   3.019  14.458  0.1037  0.1489 -0.0073
 1364W        W17625   7.260  10.409   5.453 -0.0512 -0.1711  0.2746
 1365W        W17626  13.936   2.249   1.166 -0.1546 -0.1039 -0.1270
 1366W        W17627  17.456   9.071  15.346  0.0618  0.1503  0.2624
 1367W        W17628  17.491   0.946  15.185 -0.1513 -0.1072 -0.1859
 1368W        W17629  14.974   2.120   4.789 -0.1418  0.3134 -0.0798
 1369W        W17630   8.186  13.569   5.688  0.0783  0.0937 -0.1877
 1370W        W17631   0.808   4.924   1.886  0.4046  0.1936 -0.5615
 1371W        W17632  11.518  15.370  13.729 -0.1238 -0.0356  0.0138
 1372W        W17633   9.448  15.742   0.517 -0.0760  0.0938  0.1733
 1373W        W17634   8.611   2.492  12.568  0.2713 -0.3571  0.0486
 1374W        W17635   2.632  13.068   4.333 -0.2747 -0.2048 -0.2178
 1375W        W17636  15.487  15.004  14.459  0.1853  0.0060  0.0882
 1376W        W17637  11.276   6.400   2.427  0.1894  0.2453  0.0329
 1377W        W17638   7.032   0.251   5.252 -0.0147  0.1633 -0.0130
 1378W        W17639   2.934   1.622  13.601 -0.0736 -0.0624  0.0444
 1379W        W17640   2.209   4.702   0.875  0.0338  0.2393  0.0257
 1380W        W17641   7.659  11.357   2.298 -0.0320 -0.0114 -0.0134
 1381W        W17642  13.504  16.374   5.866  0.0350  0.0465  0.0216
 1382W        W17643  13.409   5.952  15.341  0.1012  0.3067  0.1711
 1383W        W17644   8.757   8.116  15.944 -0.1661  0.1070 -0.1271
 1384W        W17645   8.125   8.789  10.691  0.2558  0.1222 -0.0044
 1385W        W17646   1.050   4.889  14.305  0.0558  0.0883 -0.3448
 1386W        W17647   7.278   0.157  13.262 -0.0226  0.1300 -0.0738
 1387W        W17648  12.358  14.881  14.762 -0.1677  0.0308 -0.2501
 1388W        W17649   2.876  14.177  11.844  0.0617  0.2625  0.4301
 1389W        W17650   4.217  12.168   5.995  0.2140  0.0311  0.1436
 1390W        W17651  13.313   0.641   5.490  0.0473 -0.5357  0.2336
 1391W        W17652   8.097   1.010  13.333 -0.0989 -0.1695 -0.1397
 1392W        W17653   1.169  15.109  13.559  0.1699  0.1248 -0.1806
 1393W        W17654  10.025   3.042   4.466  0.2260 -0.3053  0.1329
 1394W        W17655  15.987  15.333   6.544 -0.2701  0.1917  0.1707
 1395W        W17656  17.685  10.169  16.160 -0.3911  0.2456 -0.0124
 1396W        W17657  15.618   8.082  15.500 -0.3313 -0.1044  0.3984
 1397W        W17658   3.007  15.120   5.357  0.1103 -0.3569  0.0678
 1398W        W17659   6.646  16.754  12.616  0.2085  0.0089 -0.1466
 1399W        W17660   4.703  10.851  12.867  0.0182 -0.0428 -0.0629
 1400W        W17661   0.082  10.497  13.649 -0.0373  0.1558 -0.0940
 1401W        W17662   2.582   5.090  16.256  0.0930 -0.0028  0.2662
 1402W        W17663   0.223  14.388  11.705 -0.1729 -0.1186 -0.3186
 1403W        W17664  10.552   1.673   4.009 -0.0262 -0.2736  0.5013
 1404W        W17665   9.263  17.017   1.420 -0.0620 -0.0280  0.1519
 1405W        W17666  11.051   8.064   4.838  0.2189  0.0287  0.2281
 1406W        W17667  15.022  10.544   2.421  0.1067  0.1301  0.1278
 1407W        W17668  14.276   7.276   3.003 -0.1451  0.0003  0.0673
 1408W        W17669  17.583   9.078   0.549  0.1870 -0.1940 -0.1142
 1409W        W17670  10.770   0.808  15.330 -0.0716 -0.1831  0.4991
 1410W        W17671   9.230  16.083   2.553  0.1117 -0.2840 -0.2197
 1411W        W17672   8.203  17.791   5.313 -0.0569  0.0986 -0.0384
 1412W        W17673   5.705   0.922   6.080 -0.0563  0.0233  0.1123
 1413W        W17674   9.151   3.048  11.440 -0.1207 -0.0445 -0.0485
 1414W        W17675   3.601  15.449   5.155 -0.3240  0.2305 -0.3487
 1415W        W17676   9.995   9.253   1.453 -0.3100  0.0246 -0.2837
 1416W        W17677   2.742   4.568   3.684  0.2064 -0.1227  0.1043
 1417W        W17678   9.884   6.490  16.412  0.1561 -0.2039  0.1923
 1418W        W17679  14.411   4.136  11.404 -0.1843 -0.0352 -0.1082
 1419W        W17680  10.586   2.849   0.499  0.1081  0.1402  0.1410
 1420W        W17681   7.782  11.427  14.634  0.1480 -0.3075  0.2161
 1421W        W17682   3.763   9.502   4.606  0.1692  0.2852  0.2169
 1422W        W17683  16.867  10.675   0.331 -0.2079 -0.1042 -0.0753
 1423W        W17684   4.557  15.987   0.383 -0.0296 -0.0646  0.1740
 1424W        W17685   4.927  13.017   0.002 -0.1431  0.0048  0.1320
 1425W        W17686  17.275  12.845  12.617 -0.0553  0.2325 -0.0755
 1426W        W17687   3.779   4.724   1.487  0.1286 -0.1612  0.3271
 1427W        W17688   7.844  15.323  13.712 -0.1559 -0.1123 -0.1859
 1428W        W17689  15.167   9.801  14.909 -0.0080  0.1147  0.3789
 1429W        W17690   2.811   5.892  12.458  0.1896  0.0678  0.1299
 1430W        W17691   3.471  17.289   3.734  0.2229 -0.2697  0.1267
 1431W        W17692   0.839  16.196  14.960 -0.0996  0.2829 -0.5752
 1432W        W17693  14.311   0.363   1.419 -0.1734 -0.1540  0.3408
 1433W        W17694   9.193  10.885   3.418 -0.1833  0.3496 -0.2665
 1434W        W17695   7.228   4.993   2.932  0.1153  0.1831  0.0044
 1435W        W17696   5.638   5.887   0.755  0.1051 -0.1769 -0.3484
 1436W        W17697   2.373   9.029  12.763 -0.0837  0.2230  0.1078
 1437W        W17698   2.460   8.931   5.312  0.3432 -0.0529  0.1485
 1438W        W17699   6.100  12.225  13.442  0.0072  0.0812 -0.1159
 1439W        W17700  11.204   5.186  15.313 -0.2046  0.3874 -0.2745
 1440W        W17701  10.814  14.882   3.546 -0.1879  0.1186  0.3341
 1441W        W17702  15.848   9.337   5.928  0.2217  0.1241 -0.3505
 1442W        W17703   5.146   8.206   4.736  0.5077 -0.2057  0.3384
 1443W        W17704   5.697   4.423  13.841  0.0538  0.0456  0.0911
 1444W        W17705  15.420   5.576  14.766 -0.2644  0.0230 -0.2235
 1445W        W17706   6.200   7.218  15.713  0.0029 -0.1793  0.1184
 1446W        W17707  10.582  17.084  12.180 -0.0431  0.1568  0.0352
 1447W        W17708  14.183   3.973  15.036  0.0845  0.0944  0.0725
 1448W        W17709  17.873   1.171   2.769 -0.1065 -0.0577  0.1315
 1449W        W17710   5.714   4.043   5.269  0.2108  0.1043 -0.2210
 1450W        W17711   2.777  16.470   2.680  0.2683 -0.1648 -0.0411
 1451W        W17712   5.114   8.758  13.025  0.0627  0.0403  0.2610
 1452W        W17713  17.464  13.804   4.695  0.2136  0.2574  0.1808
 1453W        W17714   8.270  15.665   6.160  0.2313  0.3052  0.2841
 1454W        W17715   6.069  15.317   4.478 -0.1004 -0.2687 -0.2709
 1455W        W17716   0.471  12.353   3.599  0.1634  0.4085  0.1024
 1456W        W17717   4.060   2.151  14.291 -0.1149 -0.3826  0.0740
 1457W        W17718  13.638   9.096   4.807 -0.1121 -0.2076 -0.0658
 1458W        W17719  14.668   2.168   4.321 -0.0895 -0.0422  0.1950
 1459W        W17720   4.464   2.373  15.392  0.0291 -0.3767  0.0499
 1460W        W17721   7.279   9.242   0.700  0.0206 -0.1430  0.0841
 1461W        W17722   8.395   7.886   2.808  0.3143  0.0164 -0.2454
 1462W        W17723   6.879  15.359   3.944 -0.0650  0.0014 -0.0951
 1463W        W17724  12.429  10.009  16.268 -0.1626  0.2307 -0.0474
 1464W        W17725   4.024   1.974  14.753 -0.0715  0.0360 -0.0418
 1465W        W17726   1.665  13.054  14.619 -0.3431  0.1570  0.0979
 1466W        W17727   6.221   0.108  12.797  0.2942  0.2067  0.2406
 1467W        W17728   6.686  10.465   0.258  0.2313  0.0383  0.0615
 1468W        W17729   4.540   0.005   1.899 -0.0210 -0.3273 -0.0029
 1469W        W17730  17.974   9.861  14.210 -0.1162 -0.2369  0.2738
 1470W        W17731   8.800  12.875   0.840  0.0398  0.0981 -0.2308
 1471W        W17732   6.883   9.019  16.431 -0.1369 -0.2452  0.1118
 1472W        W17733  11.277   4.616   2.370  0.2952 -0.4118  0.1787
 1473W        W17734   9.443   9.726   3.152 -0.0951  0.1369  0.1995
 1474W        W17735   4.018   2.740   1.284 -0.0864  0.0706  0.2476
 1475W        W17736   4.089   7.572   0.880  0.1541 -0.0831 -0.1649
 1476W        W17737   8.557   6.574   2.609  0.3717  0.0791  0.0143
 1477W        W17738   7.399  15.121  14.564  0.1540 -0.1155  0.0276
 1478W        W17739  12.582  17.061   1.835 -0.1408 -0.1916  0.1645
 1479W        W17740   6.538   8.698  14.873 -0.1035  0.1428 -0.0241
 1480W        W17741  11.759   0.266  12.776 -0.2332 -0.1504  0.0292
 1481W        W17742   5.596  12.783   0.304  0.1156  0.2156 -0.2274
 1482W        W17743  11.439  17.010  12.830 -0.2076  0.2842 -0.0543
 1483W        W17744   4.256   1.406   1.829  0.1318  0.4422 -0.1832
 1484W        W17745   8.196   0.345  15.497 -0.3334  0.2000 -0.1848
 1485W        W17746   4.812   0.095  13.487 -0.0027 -0.2072 -0.2817
 1486W        W17747  12.771   3.940  16.345 -0.3054 -0.2202  0.1627
 1487W        W17748  10.973  14.735   2.369 -0.0215 -0.1503 -0.0620
 1488W        W17749   7.859   5.989  11.961 -0.3442  0.1059  0.0591
 1489W        W17750   2.980  10.918   2.165  0.1577  0.1261  0.1217
 1490W        W17751  14.955   5.610   0.658  0.0160  0.0145  0.0026
 1491W        W17752  12.814   4.380  15.526  0.1463  0.0527 -0.0420
 1492W        W17753   6.144  16.902   2.483  0.1766 -0.0022 -0.0154
 1493W        W17754  15.378   9.354   1.036 -0.3422 -0.2067  0.5040
 1494W        W17755   4.736   2.472  16.168 -0.1884  0.0148  0.0709
 1495W        W17756  10.455   7.849   1.660  0.0696 -0.0615 -0.0511
 1496W        W17757   2.261  13.260   0.443  0.2476 -0.1534  0.1651
 1497W        W17758   7.660  13.986   0.090  0.3036 -0.1248 -0.0201
 1498W        W17759   8.637   9.474  16.309  0.0249 -0.0679  0.3927
 1499W        W17760   4.828  13.134  11.632 -0.0715 -0.0294  0.2161
 1500W        W17761  11.454  18.192  15.905 -0.2202  0.2970  0.1520
 1501W        W17762   6.633   2.862  15.063 -0.0887 -0.3101 -0.1422
 1502W        W17763   8.739  16.678   6.003 -0.3239  0.2710 -0.1539
 1503W        W17764  14.296   8.397  15.964  0.0964 -0.2124 -0.1273
 1504W        W17765   5.955  11.531  15.301 -0.4637  0.4470 -0.1775
 1505W        W17766  16.296   8.482  13.971 -0.1579  0.0073 -0.0068
 1506W        W17767  16.181  14.193  16.019  0.0546  0.0305 -0.0382
 1507W        W17768   4.776   8.455   0.072  0.1720  0.0429 -0.0224
 1508W        W17769   9.495   1.495   0.480  0.0408 -0.0846 -0.2245
 1509W        W17770   2.613  15.715   0.942  0.2110 -0.1254 -0.0734
 1510W        W17771  13.808   7.407  11.302 -0.0197 -0.0140  0.2309
 1511W        W17772  15.423   1.623  13.490 -0.0021 -0.1348  0.2813
 1512W        W17773   4.101   4.837   1.147  0.1705  0.2609 -0.2604
 1513W        W17774   8.924  15.676  11.739  0.3740  0.0417  0.0875
 1514W        W17775  11.824  11.305   1.459  0.3432 -0.4064  0.2055
 1515W        W17776   7.121   7.199  11.369  0.0166 -0.1852 -0.1769
 1516W        W17777  18.083  10.204  12.056 -0.2459  0.0290 -0.0588
 1517W        W17778   3.540   3.201  15.185  0.2812 -0.3695  0.0892
 1518W        W17779   6.126   4.743   4.254 -0.2810  0.0502 -0.4628
 1519W        W17780  15.954   4.044   1.712  0.0175 -0.1921 -0.0641
 1520W        W17781  10.107   2.062  16.066 -0.1413 -0.1146 -0.0164
 1521W        W17782  14.838  10.840   3.010 -0.1626  0.3378  0.1778
 1522W        W17783  14.773  11.704   3.225 -0.2301  0.2223  0.1746
 1523W        W17784   8.461   4.496  15.207  0.1508  0.0801 -0.0563
 1524W        W17785  10.116  17.029   0.812 -0.0048  0.3212 -0.0226
 1525W        W17786   9.363   4.660  11.220  0.1945  0.2814 -0.0442
 1526W        W17787   1.932   8.197   1.995 -0.1653  0.0340  0.3412
 1527W        W17788  11.165   2.561  10.030 -0.2539 -0.0411  0.0288
 1528W        W17789  11.477  16.750  13.345  0.0160  0.3274  0.0082
 1529W        W17790   6.272  15.272   1.609 -0.2706  0.2514 -0.1327
 1530W        W17791  12.921   8.027   4.150  0.3936  0.0795  0.0170
 1531W        W17792  17.496  10.425  13.028 -0.4337 -0.0068 -0.2277
 1532W        W17793   9.273   8.232  15.931  0.0433  0.1283 -0.0629
 1533W        W17794  10.069   5.795  12.768 -0.2171 -0.2533 -0.1022
 1534W        W17795  11.190  12.460  13.056  0.1204 -0.1823  0.1645
 1535W        W17796  16.123  11.398   3.291  0.1889 -0.0511 -0.3252
 1536W        W17797  14.213   8.788   2.628  0.0877  0.3947  0.2561
 1537W        W17798   8.963   0.891   3.669  0.0390 -0.1817  0.1686
 1538W        W17799   0.260  15.075   3.990 -0.1325 -0.0825  0.3233
 1539W        W17800   8.128   9.053  14.537 -0.2759  0.1224 -0.0733
 1540W        W17801  15.117   4.631  14.983 -0.1140 -0.0525 -0.1006
 1541W        W17802   8.796  13.393   4.207  0.0560  0.2929  0.2713
 1542W        W17803   7.163   3.912   2.611 -0.2026 -0.1254 -0.1985
 1543W        W17804   3.368  17.703   2.447  0.0163 -0.1536  0.0426
 1544W        W17805   9.198   6.012   1.983 -0.0447  0.3791 -0.0805
 1545W        W17806  13.737  12.373   3.857  0.2053  0.1282 -0.1558
 1546W        W17807   6.002   0.041   0.049 -0.0786  0.0095 -0.2217
 1547W        W17808  11.006   2.201  13.556  0.0108  0.1330 -0.2054
 1548W        W17809   5.394  15.226  12.422 -0.0924  0.1458  0.0014
 1549W        W17810   4.202   6.362   1.989 -0.0584 -0.0270 -0.0670
 1550W        W17811  10.438   6.572  14.972 -0.1063 -0.0516 -0.1978
 1551W        W17812  10.545  16.677   5.916  0.1770 -0.0172  0.1585
 1552W        W17813   1.463   8.757  16.509 -0.4884 -0.2254  0.1848
 1553W        W17814   6.606  12.250  13.560 -0.0585 -0.0801 -0.0244
 1554W        W17815   3.681  11.708  11.953  0.1754  0.0268  0.2282
 1555W        W17816   4.114   9.078   3.334  0.2064  0.2914 -0.2802
 1556W        W17817   3.645  16.451  13.402  0.2457  0.2444  0.0812
 1557W        W17818  17.415   5.320  12.733 -0.1482  0.0816  0.0422
 1558W        W17819  17.877   5.161   4.458  0.0752  0.2007 -0.2296
 1559W        W17820   0.929   6.105   5.703 -0.3264 -0.2156  0.2246
 1560W        W17821   6.989   3.459  15.276  0.0203  0.0951  0.2875
 1561W        W17822   4.229   4.171   2.305  0.2789 -0.0880 -0.0879
 1562W        W17823  16.844  16.602  15.354  0.2168  0.2693 -0.5650
 1563W        W17824   2.400  12.613  12.179  0.0907  0.0036 -0.0383
 1564W        W17825   2.230   0.776  15.743  0.2044  0.0527 -0.1413
 1565W        W17826   9.539  18.117  11.077  0.2186 -0.0489 -0.0828
 1566W        W17827  18.183   9.412  13.894  0.1343  0.0980 -0.3779
 1567W        W17828   6.531   3.531   3.286  0.3837  0.2084  0.1057
 1568W        W17829   6.411   8.996   0.320  0.1557 -0.1975 -0.0296
 1569W        W17830  16.937   1.065  14.483 -0.1659 -0.0363  0.1720
 1570W        W17831  17.487  14.822   4.869  0.0359 -0.5000 -0.2285
 1571W        W17832  12.032  15.538  13.585 -0.1035  0.1329 -0.0403
 1572W        W17833   1.629   7.848  10.815  0.1907  0.2247  0.1028
 1573W        W17834  18.162   3.224   0.370  0.2865  0.0089  0.1222
 1574W        W17835   9.811   1.079   0.541 -0.0431  0.1101 -0.2180
 1575W        W17836  16.548  11.464  14.401 -0.2201  0.0530 -0.0369
 1576W        W17837   1.958  14.008  16.616  0.0637 -0.1782  0.0294
 1577W        W17838  12.528   9.471  11.529 -0.1259 -0.4060  0.3577
 1578W        W17839   0.706   0.781   5.507 -0.0745  0.0344 -0.1251
 1579W        W17840  14.122   2.950  13.539 -0.1004 -0.0918  0.1293
 1580W        W17841   0.246  12.003  15.256 -0.0962  0.1644  0.1773
 1581W        W17842   3.540   8.445  13.087 -0.2302  0.0319  0.1336
 1582W        W17843   8.615   7.168  13.861 -0.3283  0.0379  0.0146
 1583W        W17844  13.759   7.085  15.868  0.1237 -0.0239  0.0541
 1584W        W17845   7.973   2.026   3.928  0.2510  0.1126  0.0187
 1585W        W17846  10.654  13.996   4.801 -0.3657  0.0613 -0.0013
 1586W        W17847   0.130   8.815   2.299  0.0173  0.0462  0.0945
 1587W        W17848   5.025   1.557   0.774 -0.1568  0.0827  0.0379
 1588W        W17849  17.124  13.368  12.726 -0.1279 -0.1945  0.0527
 1589W        W17850   0.431  14.038  16.053  0.0566 -0.0797  0.1668
 1590W        W17851   7.876   9.231   0.002 -0.1742 -0.2812 -0.0128
 1591W        W17852  15.191  10.167  12.209  0.0490 -0.1171 -0.1424
 1592W        W17853   9.113   4.791   4.722 -0.2662  0.0450 -0.2674
 1593W        W17854   2.356   6.035   5.639  0.1419 -0.2111 -0.2249
 1594W        W17855   5.978   0.822   4.546 -0.1486 -0.0001 -0.0539
 1595W        W17856   0.475   3.252  15.468 -0.2227 -0.2001 -0.1074
 1596W        W17857  15.056   8.436   3.187  0.3028 -0.0699 -0.0847
 1597W        W17858  16.808  17.976  15.982  0.1154  0.0219  0.1916
 1598W        W17859   3.575   9.823   2.594  0.1662 -0.0931 -0.0581
 1599W        W17860   7.172   4.663   5.297 -0.2224 -0.2092  0.0131
 1600W        W17861   3.283   8.293  12.520  0.1684  0.2396  0.2955
 1601W        W17862  11.215  16.079   4.560 -0.0782 -0.0635 -0.1858
 1602W        W17863   4.131   2.820   2.727  0.1037 -0.0162 -0.2142
 1603W        W17864   5.701  17.761   3.561  0.1311 -0.0157 -0.1623
 1604W        W17865   3.005   6.650  12.330  0.2900 -0.0268 -0.1920
 1605W        W17866   6.720   2.122   0.090 -0.1791 -0.0244 -0.1195
 1606W        W17867   0.702   9.193   3.757 -0.2162 -0.2629 -0.3329
 1607W        W17868  11.189  15.654  13.333 -0.0459 -0.2384 -0.1183
 1608W        W17869   0.355   0.549   2.530  0.1011  0.2184 -0.3212
 1609W        W17870   8.224   1.987  15.635  0.0698  0.0495  0.3798
 1610W        W17871  14.637  11.477  14.847 -0.0409 -0.1733 -0.1288
 1611W        W17872  15.006  15.040  15.737 -0.4775  0.1597  0.2973
 1612W        W17873   8.206   7.884   1.911 -0.1098  0.0644  0.1875
 1613W        W17874  16.833   1.254   1.247 -0.0655 -0.0782 -0.1181
 1614W        W17875   0.653   5.416   2.772 -0.1342 -0.2050 -0.0685
 1615W        W17876   0.349   7.693  15.994 -0.2939  0.1983 -0.2305
 1616W        W17877   6.061  11.506   4.472 -0.2658 -0.1210 -0.1129
 1617W        W17878   0.741   9.872   1.731 -0.2019 -0.1116  0.1843
 1618W        W17879   6.857   7.128   2.167  0.1891  0.1592  0.0003
 1619W        W17880  11.681  12.927   2.444  0.0663 -0.2430  0.0783
 1620W        W17881  14.701   4.015  10.906 -0.1560 -0.4640 -0.0333
 1621W        W17882   9.963   2.432   2.229  0.1374  0.0424 -0.2584
 1622W        W17883   5.707  11.262   1.353 -0.2304  0.0418  0.1403
 1623W        W17884  10.360   7.235   2.457  0.4038  0.1372  0.0229
 1624W        W17885   8.297   9.785   5.767 -0.2991 -0.0259 -0.0148
 1625W        W17886   4.511  15.512   6.199  0.1732 -0.0355 -0.2685
 1626W        W17887   7.846   4.070   2.287  0.0662 -0.1339  0.0551
 1627W        W17888  14.082   8.814  16.259 -0.0053 -0.0076 -0.3471
 1628W        W17889   5.994  15.695   5.852 -0.0845  0.0541 -0.1258
 1629W        W17890  12.452  16.446   2.939 -0.0079  0.1687 -0.1844
 1630W        W17891   6.041  11.579  12.820  0.1005  0.0550 -0.1959
 1631W        W17892   5.676  11.164  11.324 -0.2606  0.1640 -0.3470
 1632W        W17893   9.369   5.430  11.865  0.2031  0.0862 -0.0171
 1633W        W17894   7.912   0.375   0.341  0.1526  0.0358  0.0164
 1634W        W17895  12.659  13.238  15.762  0.1169 -0.0839  0.1243
 1635W        W17896  15.662  10.732   5.231  0.3275  0.0178 -0.0469
 1636W        W17897  10.279   7.785  15.334  0.0927 -0.1119  0.2924
 1637W        W17898   2.475  16.698  15.995  0.3077 -0.2493  0.4185
 1638W        W17899  11.349  10.031   6.088 -0.0287  0.3190 -0.3773
 1639W        W17900   2.404  12.471   2.471  0.0179 -0.2156  0.5677
 1640W        W17901   2.167  11.383  15.793  0.2460 -0.0726 -0.0172
 1641W        W17902  10.452  17.719  14.524 -0.2015  0.1046 -0.2726
 1642W        W17903   5.387  17.485   1.274 -0.0620 -0.0351 -0.0820
 1643W        W17904   0.826   6.511   2.633 -0.1875 -0.1318 -0.1302
 1644W        W17905  17.315  15.717   1.008  0.0850 -0.1056 -0.2365
 1645W        W17906  17.524   4.907   5.705 -0.3053 -0.2055  0.0848
 1646W        W17907   7.125   1.670  13.860 -0.0343 -0.0053 -0.0891
 1647W        W17908   6.777   7.374   0.279  0.1491 -0.0565  0.0589
 1648W        W17909  15.481   7.547  14.711 -0.0784 -0.2021  0.1346
 1649W        W17910  12.936  11.071   5.299  0.2724  0.0116  0.3254
 1650W        W17911  10.778  17.528  14.190 -0.0039 -0.0432 -0.0247
 1651W        W17912   2.504   4.717  14.922 -0.2804 -0.1606  0.0379
 1652W        W17913  12.809   9.539   1.450  0.1197 -0.1222  0.2548
 1653W        W17914   2.305  16.806   4.165 -0.1827  0.0391  0.0985
 1654W        W17915  11.086   8.207  13.578 -0.0897  0.1995 -0.0037
 1655W        W17916  17.020  16.146   5.223  0.2357 -0.0187 -0.3776
 1656W        W17917   4.523   1.316  12.753  0.3193 -0.0408 -0.0013
 1657W        W17918   2.323  15.091   3.433 -0.1638 -0.1667  0.0790
 1658W        W17919   8.057   4.518  13.728 -0.3694 -0.0494  0.2280
 1659W        W17920   1.171  15.367  14.423 -0.0135  0.3350 -0.1246
 1660W        W17921   1.217  17.954   6.166  0.0395  0.4174  0.0733
 1661W        W17922   1.478  17.058   4.934  0.2123 -0.2248 -0.2877
 1662W        W17923   1.787  12.958   2.130  0.0793  0.5704 -0.0183
 1663W        W17924   5.963   0.330   4.332  0.3714  0.1989 -0.2344
 1664W        W17925  11.301   5.889  11.600 -0.1814 -0.0238 -0.1906
 1665W        W17926   2.031   9.558  15.408 -0.2270 -0.0152  0.2193
 1666W        W17927   7.232  13.308  12.416  0.1277 -0.3802 -0.2051
 1667W        W17928  14.652   9.207   2.781  0.2407 -0.0150  0.0421
 1668W        W17929   3.013   9.997   4.476 -0.0510  0.3941 -0.0074
 1669W        W17930  11.813  13.291  13.045  0.0565  0.0821 -0.2165
 1670W        W17931   7.029  17.622   1.299  0.3862 -0.0950  0.0205
 1671W        W17932   2.305   1.509   3.325 -0.0585 -0.1607  0.0004
 1672W        W17933   1.492  14.853  13.224 -0.1378 -0.3549 -0.0759
 1673W        W17934   9.732   0.749  11.751 -0.0217 -0.3441  0.1906
 1674W        W17935   7.714   7.211   5.504  0.1439 -0.4526 -0.2145
 1675W        W17936   5.532  17.261   6.650 -0.0214  0.0630 -0.3083
 1676W        W17937   4.461  15.788  12.195 -0.1597 -0.0737  0.1547
 1677W        W17938  10.869   4.408   1.135 -0.0945 -0.1147  0.1870
 1678W        W17939   9.895   2.616   4.649 -0.4209 -0.1137  0.0985
 1679W        W17940  13.690   1.952   3.508  0.0919 -0.0295  0.1738
 1680W        W17941   5.673   9.967   1.134 -0.3964 -0.0751  0.1590
 1681W        W17942   3.919  12.937   1.364  0.0629 -0.0725  0.4232
 1682W        W17943  12.655  15.233   3.362 -0.0759  0.0973  0.0552
 1683W        W17944   5.418  13.988   3.843  0.2074  0.1511  0.3179
 1684W        W17945   7.000   5.473   5.256  0.0050 -0.2647 -0.0541
 1685W        W17946  13.065   4.452  13.295 -0.1726  0.0169 -0.1608
 1686W        W17947  16.787   1.597   6.359  0.0000  0.1169 -0.0811
 1687W        W17948   8.901  10.283  15.364  0.0997 -0.1734  0.3181
 1688W        W17949  11.592   1.006   1.068 -0.0536 -0.1902 -0.0079
 1689W        W17950   9.374  14.976   1.377 -0.1012 -0.0757 -0.2882
 1690W        W17951  17.111   6.654   2.189 -0.0773  0.0632  0.1854
 1691W        W17952   3.999   9.912   3.201 -0.0497 -0.1295  0.0837
 1692W        W17953  10.136   2.163   0.408 -0.0519  0.0659 -0.0865
 1693W        W17954   2.714   3.514  16.220  0.1245  0.0489 -0.0794
 1694W        W17955   9.106  17.904   6.313 -0.5277  0.1449 -0.3112
 1695W        W17956  11.985  14.477  15.938  0.1743  0.1851 -0.2200
 1696W        W17957   5.694  11.092  15.133  0.0497 -0.0586  0.1473
 1697W        W17958   5.773   1.733  15.727  0.0024 -0.2356  0.0137
 1698W        W17959   0.393  13.709   0.274  0.1895  0.0073  0.2329
 1699W        W17960   0.956   7.796  12.671  0.1768 -0.0319 -0.3135
 1700W        W17961  10.696  10.761  11.784  0.1274  0.0769 -0.2217
 1701W        W17962   1.659   1.622  13.020  0.1782 -0.1513 -0.2507
 1702W        W17963   3.984  14.379   6.705 -0.2071 -0.1304 -0.2791
 1703W        W17964   6.031  11.278  13.240 -0.1282  0.0609  0.0945
 1704W        W17965  15.489   7.968   3.401 -0.0566 -0.2077  0.4170
 1705W        W17966  10.933  13.192  16.383  0.0932  0.1491  0.2809
 1706W        W17967  16.248  12.466   2.094 -0.1857 -0.0708  0.0344
 1707W        W17968   8.080   1.482  11.555 -0.1762  0.2802 -0.0291
 1708W        W17969  13.142   5.273  15.972  0.0927 -0.1701 -0.0663
 1709W        W17970  11.618   5.105   4.117 -0.2209 -0.1490  0.3249
 1710W        W17971  15.335  12.636   4.609 -0.1428 -0.0156  0.2655
 1711W        W17972  16.551   6.677   4.464 -0.2572  0.1367  0.1190
 1712W        W17973  10.176   9.488   0.859  0.1050  0.1403  0.1753
 1713W        W17974  13.349   6.671  16.638 -0.3468  0.0798 -0.2087
 1714W        W17975   7.529   8.433  16.402 -0.0193 -0.0760 -0.1423
 1715W        W17976  11.968  11.053   3.834 -0.3234 -0.3342  0.1388
 1716W        W17977   4.505  10.370  15.393 -0.0340 -0.1047  0.1497
 1717W        W17978   4.207   8.850   6.009 -0.1258 -0.2467  0.1261
 1718W        W17979   9.333   9.097   0.741  0.2666  0.1135  0.0015
 1719W        W17980   3.493  13.258   1.117  0.0724  0.1352  0.2667
 1720W        W17981  16.231  11.794  15.509 -0.0472  0.1582 -0.1070
 1721W        W17982   7.344  14.463  11.992 -0.0962  0.3077  0.0044
 1722W        W17983   4.694  13.892  16.575 -0.1403 -0.0721  0.3468
 1723W        W17984   0.166  12.992   5.030  0.0553 -0.1859  0.0220
 1724W        W17985   3.980   4.196   4.708 -0.0517  0.0115  0.0345
 1725W        W17986   0.968   8.659  15.340  0.0390 -0.2546  0.0949
 1726W        W17987   8.465   4.896   3.585 -0.0207  0.0624  0.1014
 1727W        W17988  11.737   8.058  10.849 -0.1892 -0.1217  0.3515
 1728W        W17989  17.008  18.171  12.280 -0.0426 -0.1043  0.0488
 1729W        W17990   4.035   4.379   1.860 -0.0977 -0.0177  0.1341
 1730W        W17991  13.087   9.698   2.384  0.0828  0.0651  0.1194
 1731W        W17992   0.838  13.535  13.075 -0.1063  0.0161 -0.0205
 1732W        W17993   4.874  14.281   3.056  0.0658 -0.0485  0.0273
 1733W        W17994  10.248   5.466  11.853 -0.1506  0.3671  0.0391
 1734W        W17995   9.821   0.191  15.017 -0.2120  0.1879  0.1227
 1735W        W17996   7.975   7.305   0.732  0.1831 -0.1073 -0.4414
 1736W        W17997  17.192   6.820   4.362  0.2206 -0.2386  0.0691
 1737W        W17998   9.689  12.420  14.727  0.3377 -0.1662  0.1836
 1738W        W17999   4.292  15.781  13.962  0.1244  0.4336 -0.0260
 1739W        W18000   3.634   6.184  12.407 -0.0022 -0.0098 -0.1454
 1740W        W18001  14.318   2.806  15.652  0.2469 -0.1803  0.0296
 1741W        W18002   8.122  11.005   5.109 -0.1509  0.0266  0.0667
 1742W        W18003  12.630   7.864  13.748  0.1948 -0.0174  0.2532
 1743W        W18004   4.837   2.216  13.885  0.2826  0.2069 -0.0552
 1744W        W18005   4.888  14.014   1.863  0.3299  0.0605 -0.2453
 1745W        W18006   7.256   8.780  14.562 -0.1585 -0.2801  0.1514
 1746W        W18007  12.087  16.572   4.331 -0.1186  0.0098 -0.1426
 1747W        W18008   2.200   1.151   4.694  0.2496 -0.1824 -0.2381
 1748W        W18009   3.840   9.723   0.730 -0.1393  0.0929 -0.1896
 1749W        W18010   7.319   8.530  12.050 -0.1688  0.1925  0.0862
 1750W        W18011   3.949  13.067  15.828 -0.1278 -0.1076 -0.0012
 1751W        W18012   3.510   7.799  12.369  0.1220  0.4204  0.1791
 1752W        W18013  16.169   2.144   2.395 -0.2239  0.0920 -0.2028
 1753W        W18014  16.009   8.342   4.763 -0.5772 -0.1987  0.0105
 1754W        W18015  12.055   2.502   4.411 -0.4391  0.1049 -0.1259
 1755W        W18016  17.284   2.463   2.084  0.2847  0.0845  0.0453
 1756W        W18017  10.383   7.091   4.814 -0.1915  0.0624  0.2826
 1757W        W18018   3.156   9.982   2.832  0.3262 -0.0920  0.0521
 1758W        W18019  18.117   5.049   0.836  0.3526  0.2391 -0.0979
 1759W        W18020   9.376  13.347  14.229  0.1560  0.0445 -0.2737
 1760W        W18021  18.079   0.946  13.244 -0.0208 -0.3323 -0.4348
 1761W        W18022   7.997  12.713  16.366 -0.3090 -0.2747 -0.0631
 1762W        W18023   7.423  15.237   4.250  0.1726 -0.3074 -0.2194
 1763W        W18024  10.535   7.783  14.192 -0.1196 -0.4341  0.4507
 1764W        W18025   2.291  12.194   1.569  0.0025  0.0284  0.0171
 1765W        W18026  18.059  11.164  15.944  0.0091  0.1794 -0.0726
 1766W        W18027   0.717   3.372   3.266 -0.0902  0.2163  0.2275
 1767W        W18028  12.904   1.110  14.860  0.0954  0.0562  0.2661
 1768W        W18029   1.386   8.460   1.763 -0.2006  0.0312 -0.0398
 1769W        W18030   6.939   8.063  10.363  0.0973 -0.0333 -0.0132
 1770W        W18031  12.091   5.156   5.106  0.0146  0.1638  0.5404
 1771W        W18032  11.813   6.141   1.916 -0.0974 -0.1927  0.0757
 1772W        W18033  17.066   0.465  12.279 -0.0730  0.0366 -0.0447
 1773W        W18034   8.610   8.501  13.666  0.1872 -0.1178 -0.1265
 1774W        W18035  15.276   7.391   3.315 -0.2227  0.0419  0.4921
 1775W        W18036   1.114   5.152  16.510  0.0651  0.1967 -0.3657
 1776W        W18037  10.489   9.525  13.560 -0.2354 -0.0415 -0.0464
 1777W        W18038   2.155  10.578   3.586  0.2920  0.1072 -0.0161
 1778W        W18039   3.198   8.688  14.186  0.0885 -0.3584  0.4848
 1779W        W18040   2.573   9.788   4.706  0.0550 -0.0469  0.0170
 1780W        W18041   5.435   7.896   4.993 -0.1068 -0.3204 -0.3904
 1781W        W18042  16.403   6.223   0.025  0.2278 -0.3258  0.0921
 1782W        W18043  14.122   4.677   0.420  0.1511 -0.0465 -0.0272
 1783W        W18044  14.850  14.333  13.588  0.2118 -0.1072 -0.5272
 1784W        W18045   0.999  11.514  13.956 -0.1180 -0.0958  0.0231
 1785W        W18046  16.350  17.981  14.790  0.0263 -0.1046  0.2861
 1786W        W18047   5.988   3.324  13.970  0.0150 -0.1849 -0.1398
 1787W        W18048   8.760  17.810  13.407  0.1037 -0.1078 -0.1114
 1788W        W18049   6.960  10.889   3.418 -0.2104  0.0440  0.4795
 1789W        W18050   9.253   5.983  13.223  0.0469  0.0407 -0.1843
 1790W        W18051   6.118  11.573   5.526  0.4617 -0.0021  0.4896
 1791W        W18052  11.186  16.736   2.188 -0.1123  0.1972  0.3208
 1792W        W18053   1.146  10.688   1.946 -0.1933  0.2060  0.0937
 1793W        W18054  15.908   2.455   4.375  0.0035 -0.1771  0.0221
 1794W        W18055  12.985   0.225  13.668  0.1427  0.0844  0.1229
 1795W        W18056   5.283  17.466   3.699 -0.1442 -0.0084 -0.2035
 1796W        W18057  10.652  15.601   1.248 -0.3885  0.0797  0.5198
 1797W        W18058  13.455   6.552  14.135  0.2034  0.1225 -0.0275
 1798W        W18059  12.053   0.172  11.752  0.0740 -0.2913  0.0886
 1799W        W18060  16.030   7.717   0.484  0.0232  0.2334 -0.0208
 1800W        W18061  17.633  14.691  10.710  0.1669 -0.0384 -0.1433
 1801W        W18062  12.059  16.860  10.704 -0.2463 -0.0143  0.0244
 1802W        W18063   5.278  14.109   5.764  0.1560  0.0001 -0.0046
 1803W        W18064   2.589   9.706  16.277  0.3219  0.0999 -0.1545
 1804W        W18065   7.220   4.979   3.490  0.2404  0.1857 -0.3120
 1805W        W18066  12.446  13.164  16.204  0.3325  0.2213 -0.0272
 1806W        W18067  13.074   0.103   0.639  0.1635 -0.3845 -0.1504
 1807W        W18068   5.064   7.279   2.130  0.0145 -0.2152  0.0673
 1808W        W18069  11.018   0.280   3.435  0.0180 -0.0569 -0.1127
 1809W        W18070  10.935   4.359  11.239 -0.0382 -0.2804 -0.2294
 1810W        W18071   0.675   1.940   6.148  0.0098 -0.1039 -0.3459
 1811W        W18072   8.115   2.304  12.211  0.1741 -0.2018 -0.1537
 1812W        W18073   9.819   7.556  12.181  0.2294 -0.0018  0.0253
 1813W        W18074  16.679   4.991  11.223  0.2508  0.4160  0.1352
 1814W        W18075  16.478   4.100   4.638  0.1397 -0.1809 -0.1579
 1815W        W18076   0.551   2.602  14.179 -0.0076  0.2291  0.0392
 1816W        W18077  14.281  15.954   1.526 -0.0340 -0.0662  0.2228
 1817W        W18078   4.450   0.540   1.959  0.0166 -0.0423  0.0627
 1818W        W18079   0.083   7.631   3.147  0.0913 -0.0002  0.1304
 1819W        W18080   3.816  14.732  15.249 -0.1355  0.2261  0.0368
 1820W        W18081  10.068   3.335  13.090  0.0802 -0.1505 -0.0950
 1821W        W18082  11.150  14.123  15.028  0.0986  0.0502 -0.0085
 1822W        W18083  18.174   0.029   5.138  0.0031 -0.4705  0.1179
 1823W        W18084  18.034   7.937   0.030  0.0523  0.1419  0.3245
 1824W        W18085  11.764   7.970   1.401 -0.4649 -0.1327 -0.2160
 1825W        W18086  12.005   4.228   0.062 -0.2138  0.2546 -0.1395
 1826W        W18087   0.533   8.243   2.020 -0.4295  0.0846 -0.3011
 1827W        W18088  15.758   3.414  12.596 -0.2233  0.0882 -0.3160
 1828W        W18089   9.749   1.487   2.308  0.4215  0.2389  0.1911
 1829W        W18090   0.693   6.945  15.815  0.3402  0.0225 -0.1438
 1830W        W18091   1.987   4.121   2.611 -0.0404 -0.1627 -0.0734
 1831W        W18092   3.338   3.709  12.725  0.0959 -0.1559 -0.0911
 1832W        W18093   0.887   0.969  15.594  0.0356 -0.0405  0.0719
 1833W        W18094  10.982   1.381  10.641  0.3499 -0.1033  0.0770
 1834W        W18095  14.872  12.672  16.265 -0.0621 -0.3213  0.0188
 1835W        W18096   6.573   1.802   2.817 -0.0187  0.0097 -0.0630
 1836W        W18097   9.663  12.280  13.564  0.1130 -0.1025  0.0580
 1837W        W18098   1.904  15.705   5.945  0.1335 -0.1097 -0.0579
 1838W        W18099   9.318  14.472   1.375 -0.0559  0.0095  0.0877
 1839W        W18100  14.212   1.899   5.450  0.0533  0.0563  0.1167
 1840W        W18101  11.880  12.125   2.328  0.0755  0.2115  0.3748
 1841W        W18102  17.397   6.395   4.986 -0.0406 -0.2165 -0.2010
 1842W        W18103  13.451   4.631   0.582  0.2503  0.0817 -0.0856
 1843W        W18104  13.079   8.887   0.779  0.1360 -0.2383  0.0704
 1844W        W18105  14.217   3.313   1.020  0.2553 -0.2327  0.1597
 1845W        W18106  17.958  17.297  14.154  0.0862 -0.0905 -0.0042
 1846W        W18107   4.163  15.563  15.257  0.2332  0.1261 -0.2480
 1847W        W18108  12.305  12.133   1.430 -0.4277 -0.2963 -0.2126
 1848W        W18109   8.034   2.853  12.270  0.0554  0.1594 -0.0164
 1849W        W18110   2.930  11.957  14.886  0.0041 -0.0355  0.1829
 1850W        W18111  10.082   9.669  11.749  0.4783 -0.2175  0.2584
 1851W        W18112   1.773   2.163  16.218 -0.2882  0.0079  0.1457
 1852W        W18113   2.730  12.102   3.491  0.3375 -0.2861  0.3525
 1853W        W18114  15.524  15.976  13.315 -0.0516  0.1242  0.2930
 1854W        W18115  11.333  11.495  11.990  0.1169 -0.1393  0.0117
 1855W        W18116   2.141   7.252  15.638  0.0521 -0.1573  0.0627
 1856W        W18117  16.267  10.072   0.441  0.0063  0.0147  0.3057
 1857W        W18118   2.119   7.488   5.188  0.1013 -0.0265 -0.1562
 1858W        W18119   5.549   2.316  12.876 -0.0594  0.0057 -0.0076
 1859W        W18120   3.444   1.558   2.286  0.0970 -0.2546 -0.3429
 1860W        W18121  10.891  12.513   0.915  0.0876  0.3345 -0.1781
 1861W        W18122  12.748  16.511  12.821  0.1364  0.2457  0.0195
 1862W        W18123   9.271   7.505  12.259 -0.0947  0.0408  0.1106
 1863W        W18124   1.148  13.242   1.550  0.1556 -0.1205 -0.1191
 1864W        W18125   1.376   1.540   2.378  0.2494 -0.1245  0.1983
 1865W        W18126   3.645  12.323  12.671  0.1485  0.0106 -0.2591
 1866W        W18127   5.616   4.946   6.278 -0.4513 -0.0708  0.1298
 1867W        W18128  10.526  17.530   3.268 -0.1973  0.1237 -0.1169
 1868W        W18129   3.694   9.191   0.791  0.0547  0.0209  0.1412
 1869W        W18130  14.425  14.037   4.582  0.0729 -0.1741 -0.0291
 1870W        W18131   4.535  10.003   4.751 -0.0394 -0.1464 -0.0779
 1871W        W18132   0.819  13.342   5.854  0.4249 -0.2236  0.0469
 1872W        W18133   9.768   4.675  14.461 -0.2672 -0.3863  0.1678
 1873W        W18134  14.248  11.005  15.568 -0.0907  0.3446 -0.3922
 1874W        W18135  14.425   3.365  14.871 -0.1408 -0.1979  0.1536
 1875W        W18136   7.179   3.894  12.426 -0.2726 -0.3396  0.0970
 1876W        W18137  15.921  11.734  12.099  0.0279  0.4245  0.1262
 1877W        W18138   0.689   9.532   1.249  0.2554 -0.2888  0.0025
 1878W        W18139   3.075   7.195  13.866  0.1560  0.1580  0.0282
 1879W        W18140   5.642   6.137  16.377  0.2487  0.2571 -0.1333
 1880W        W18141  15.721  15.252  14.054 -0.3124 -0.0748  0.0477
 1881W        W18142   2.694  13.455  13.679  0.0390  0.0273  0.0843
 1882W        W18143  17.080  10.159  12.851 -0.0281 -0.3507 -0.1360
 1883W        W18144   9.363   4.745   0.228  0.1895 -0.2020  0.0156
 1884W        W18145   3.278  17.529   5.363 -0.0428  0.0321 -0.0259
 1885W        W18146  17.838  11.891  15.440  0.1749  0.1843 -0.1890
 1886W        W18147   5.912   5.136   1.551 -0.1833  0.0572 -0.3821
 1887W        W18148   0.084  17.361  11.595 -0.0400  0.1535  0.1450
 1888W        W18149  15.807  17.101   3.185  0.1882  0.0422 -0.0096
 1889W        W18150   5.058  17.560  12.331 -0.0859  0.4646  0.0665
 1890W        W18151   3.910   8.118  14.374  0.0054 -0.0758 -0.0197
 1891W        W18152  16.655   0.981   4.203  0.1680 -0.4421 -0.0695
 1892W        W18153   1.671   3.425  11.977 -0.0033  0.1222 -0.0035
 1893W        W18154  12.671   0.403   0.233  0.1692  0.1776  0.0720
 1894W        W18155   1.162   6.654   1.726  0.0217 -0.1276 -0.1368
 1895W        W18156   6.943   7.355   4.149  0.0250  0.0026 -0.0705
 1896W        W18157   4.808  17.774   3.739 -0.0941 -0.0523  0.0947
 1897W        W18158   1.391   6.923   1.377 -0.0129 -0.1079  0.0448
 1898W        W18159  14.566   5.677  11.598 -0.4123  0.0414  0.0671
 1899W        W18160  15.010  11.136   1.035  0.1868 -0.1902  0.0571
 1900W        W18161   3.595   6.922  11.700 -0.0062  0.0434 -0.3315
 1901W        W18162   5.522   9.835  15.983 -0.3063 -0.1468 -0.1422
 1902W        W18163  11.609  10.919  11.890  0.2255  0.1548  0.2622
 1903W        W18164  17.567   2.079   1.654 -0.3842  0.4221  0.3218
 1904W        W18165   0.927  13.660  10.606  0.1404  0.1209 -0.1166
 1905W        W18166   2.476  17.972  14.791  0.1554  0.0934  0.2997
 1906W        W18167   2.780   9.299   0.733 -0.1212 -0.2355  0.1911
 1907W        W18168   4.034  17.146  14.376  0.3275  0.0386 -0.2268
 1908W        W18169  16.869   9.950   2.480  0.2660 -0.0189  0.1327
 1909W        W18170   7.200   8.576  15.554  0.1767  0.0787  0.1383
 1910W        W18171   7.188   3.938   6.277  0.3695  0.0979 -0.0045
 1911W        W18172  14.256   8.100  13.367  0.2455  0.1447 -0.1343
 1912W        W18173   2.235  14.562   4.037  0.0800 -0.4150 -0.2708
 1913W        W18174   4.466   6.181   2.982  0.0951  0.0662  0.0122
 1914W        W18175  13.211  17.890   1.181  0.3322 -0.1686 -0.3224
 1915W        W18176  16.490   3.041   5.882 -0.0190  0.2656 -0.1276
 1916W        W18177   3.513  16.170  16.554  0.0318 -0.0444 -0.0109
 1917W        W18178  15.718   2.266   2.230 -0.1595 -0.3492 -0.4640
 1918W        W18179  14.038   0.288  12.133  0.1176 -0.1818  0.0302
 1919W        W18180   2.062   1.079   3.254  0.1245 -0.1995  0.1318
 1920W        W18181   0.935   8.973  14.577 -0.0074 -0.1321 -0.1131
 1921W        W18182  14.701  12.977   5.774  0.2640 -0.3375  0.4605
 1922W        W18183   0.153  12.191   4.603  0.0255  0.0484 -0.1921
 1923W        W18184   3.498  11.254  12.125  0.0287  0.0472  0.0703
 1924W        W18185   0.714  14.677   1.697  0.0356  0.1584 -0.2778
 1925W        W18186  15.177  16.877   2.591  0.1290 -0.0962  0.0292
 1926W        W18187   7.939   9.663   0.300  0.1547 -0.1974  0.0823
 1927W        W18188  10.236   6.433   1.652 -0.1582 -0.1249 -0.0503
 1928W        W18189  15.952  17.067  13.786 -0.4022  0.0668  0.1151
 1929W        W18190  10.715   8.093   3.459 -0.3043  0.2942 -0.0623
 1930W        W18191   9.187  14.201  12.281  0.2665 -0.0354  0.1100
 1931W        W18192   4.250   4.674  13.207 -0.0393  0.4381  0.1424
 1932W        W18193   8.742   2.760  13.535 -0.1330  0.1104  0.1002
 1933W        W18194  13.424   0.472   2.681  0.1906  0.0127 -0.3355
 1934W        W18195   1.932  13.553   2.623  0.2250  0.3024 -0.0689
 1935W        W18196  13.832   3.649   0.310 -0.0244 -0.3078 -0.0135
 1936W        W18197  10.306   7.912  15.870 -0.0651  0.0077 -0.0351
 1937W        W18198   4.494   8.387   5.233  0.0873 -0.1517 -0.2624
 1938W        W18199   3.648  14.886   5.221  0.0403  0.1083 -0.1672
 1939W        W18200   2.817  17.413  12.601 -0.1289  0.0171 -0.2482
 1940W        W18201   3.110  17.847  15.556  0.2203  0.0933 -0.1401
 1941W        W18202   2.336   9.791  15.772 -0.0711  0.3449  0.1322
 1942W        W18203  15.210   0.818   3.377  0.0859  0.0890 -0.1555
 1943W        W18204  15.183  17.807   0.613  0.2152 -0.1176 -0.0125
 1944W        W18205   9.533   6.574  13.350  0.1524 -0.3054  0.0305
 1945W        W18206  16.694   5.001   5.776  0.0851 -0.0299 -0.0585
 1946W        W18207   0.323   6.153   3.860 -0.2096 -0.0840  0.1770
 1947W        W18208  12.062   2.091   2.406 -0.1375  0.0968 -0.2739
 1948W        W18209   6.755   6.867   1.773  0.0759  0.2181  0.2640
 1949W        W18210   4.271   9.519   2.505  0.1891 -0.0755 -0.1485
 1950W        W18211   5.387  15.870  14.650 -0.0158  0.0272 -0.2199
 1951W        W18212  11.176   5.600   1.357 -0.2842  0.0584  0.1780
 1952W        W18213  10.815  12.280  14.703 -0.1798  0.2713 -0.3371
 1953W        W18214   9.216  13.702  14.685  0.1918  0.2193  0.2974
 1954W        W18215  13.394  10.753  14.936 -0.1923  0.0008 -0.1485
 1955W        W18216  16.899  14.172  12.848 -0.1901  0.2501  0.2153
 1956W        W18217   1.827  17.296  15.975  0.0437  0.2039  0.0990
 1957W        W18218  17.512   1.172  13.281  0.0122  0.3879  0.0241
 1958W        W18219   1.713   1.774  14.329  0.1413 -0.0501 -0.1805
 1959W        W18220  16.407   9.738  11.848 -0.0097 -0.1813 -0.1196
 1960W        W18221  15.331  13.649   3.578  0.1591  0.1878  0.0805
 1961W        W18222   0.746  10.372  13.256  0.0430 -0.1098 -0.1057
 1962W        W18223   2.491  15.338  13.667  0.0450  0.2402 -0.0309
 1963W        W18224   0.478   4.814   1.529 -0.3215  0.2220  0.1151
 1964W        W18225  13.093  10.780  13.661 -0.3929  0.0588  0.0643
 1965W        W18226  11.740   2.673  11.263 -0.0606  0.0794  0.0732
 1966W        W18227  16.376  14.529   4.042 -0.0320  0.0015 -0.3672
 1967W        W18228   0.321  14.140   0.086  0.0100 -0.1218  0.1173
 1968W        W18229   2.495  11.776  15.910 -0.0340 -0.0108 -0.1142
 1969W        W18230  11.896   6.336   3.808 -0.1161 -0.0608  0.1696
 1970W        W18231  13.198  14.543   2.896  0.0728  0.2711 -0.2351
 1971W        W18232  14.157  14.684  11.491 -0.1324  0.0255  0.3323
 1972W        W18233   2.900   4.594   4.473  0.0933  0.2117 -0.4499
 1973W        W18234   5.256   4.480  14.582 -0.2044 -0.2585  0.1866
 1974W        W18235   7.701   0.710  13.181  0.0291 -0.0911 -0.1905
 1975W        W18236   7.646   7.511   4.924 -0.1868  0.2034  0.3475
 1976W        W18237   8.941  10.385   1.702  0.0555 -0.1326 -0.1516
 1977W        W18238  13.313   7.617  14.505  0.0295  0.4107  0.0517
 1978W        W18239  16.430  16.698   0.135 -0.0312 -0.1405  0.1186
 1979W        W18240  12.999   1.588  12.521  0.0957 -0.4857 -0.2494
 1980W        W18241   0.351   5.661  13.542  0.3184  0.0630  0.0078
 1981W        W18242  13.294  17.175  16.623  0.2463 -0.3170 -0.2468
 1982W        W18243   5.068   9.756  12.484  0.1999 -0.0162 -0.3089
 1983W        W18244  18.047  11.381   0.839  0.1443 -0.1675  0.0176
 1984W        W18245  17.536  12.187  15.073 -0.1101  0.0746  0.0748
 1985W        W18246   8.166  16.682   0.127 -0.1658  0.0616  0.0612
 1986W        W18247   9.635   4.007   3.926  0.1120  0.1955 -0.1031
 1987W        W18248   7.507  18.148   1.323  0.0519  0.1389 -0.1264
 1988W        W18249   6.615   4.248  11.818  0.0670 -0.1060 -0.2182
 1989W        W18250   9.272  15.896  14.488  0.0534 -0.0432  0.2272
 1990W        W18251   1.331   0.811   0.355 -0.0461 -0.2236 -0.0309
 1991W        W18252  10.852  12.415  16.453  0.2237 -0.0221  0.1583
 1992W        W18253  17.103  13.671   2.787  0.2128  0.0351 -0.0757
 1993W        W18254   1.237   8.159   0.603  0.0416  0.1548 -0.0272
 1994W        W18255   3.266  16.841  16.155  0.3068  0.2545 -0.0632
 1995W        W18256  14.152  17.924   3.387 -0.0449 -0.1250  0.2490
 1996W        W18257   4.083  17.297   3.501  0.0777  0.3227 -0.0840
 1997W        W18258   3.594   1.922   1.079  0.1258  0.4181  0.1277
 1998W        W18259   8.952  10.334  11.644 -0.1358  0.1124  0.3973
 1999W        W18260  15.899  11.813  12.703  0.1157 -0.4027 -0.3198
 2000W        W18261   4.458   2.467   3.460 -0.2796  0.0052 -0.0473
 2001W        W18262   0.338   2.705   1.253 -0.1231 -0.0055 -0.0881
 2002W        W18263  11.181   7.688  16.358 -0.4328 -0.0331  0.2180
 2003W        W18264   2.747  17.334  11.296 -0.0746  0.1528  0.0652
 2004W        W18265  17.618   7.653   2.042 -0.0019 -0.0782  0.1210
 2005W        W18266   1.183  14.450   2.999 -0.0529  0.1168 -0.3209
 2006W        W18267   2.662  16.368   0.767 -0.2189 -0.0017  0.1376
 2007W        W18268   1.526  10.381   0.526  0.2093  0.0971 -0.5888
 2008W        W18269   4.656  14.253   2.222  0.3009  0.1825 -0.3304
 2009W        W18270   7.018   4.165  15.231  0.0152  0.0252  0.1090
 2010W        W18271  12.441  10.957   5.126  0.0456 -0.0952  0.1591
 2011W        W18272  12.752   1.983  14.982 -0.0534  0.2806  0.1134
 2012W        W18273  13.774  13.923  15.799  0.1469  0.1715  0.1623
 2013W        W18274   1.386   5.180   1.358 -0.3932  0.2742  0.1740
 2014W        W18275  10.830   9.907  15.265  0.0206  0.1380 -0.1959
 2015W        W18276   7.361   0.126   2.455 -0.1146  0.0959 -0.0278
 2016W        W18277  17.523  17.873  12.106 -0.0540  0.0598  0.1870
 2017W        W18278   5.274   2.419   3.554  0.1394 -0.1752 -0.5460
 2018W        W18279  10.689  15.233   0.875  0.5123 -0.1515  0.0537
 2019W        W18280  12.413   9.722   3.916 -0.0731  0.2799 -0.2953
 2020W        W18281  11.884   1.588   3.299  0.0765 -0.0304  0.2337
 2021W        W18282  15.855   4.549   1.880  0.0886  0.0804  0.3109
 2022W        W18283   2.634  12.015   2.599 -0.0722 -0.0402 -0.2704
 2023W        W18284   8.390   9.516  15.072 -0.1787 -0.1829  0.0601
 2024W        W18285  13.470   7.755  11.727  0.2751 -0.1168 -0.3486
 2025W        W18286  12.928  16.421  11.831 -0.1241 -0.2030 -0.3425
 2026W        W18287   1.331   8.024  13.121 -0.4083  0.2224  0.2643
 2027W        W18288  10.089   6.013  11.100  0.2073  0.0419  0.0330
 2028W        W18289   6.406  16.037   3.302  0.0442  0.0507  0.3734
 2029W        W18290   3.528  11.824  13.618 -0.0957  0.1694  0.1151
 2030W        W18291  14.926   4.549  13.945  0.1768  0.1254  0.2491
 2031W        W18292   4.669  10.029  13.825 -0.0494  0.0664 -0.2274
 2032W        W18293  13.033  17.179   4.831 -0.0373  0.0867  0.0931
 2033W        W18294   2.284  11.758  15.340  0.0265  0.0764  0.0374
 2034W        W18295  14.403  13.229  15.454 -0.2828 -0.1802  0.2411
 2035W        W18296  10.194   7.342  15.871 -0.0392 -0.1318 -0.4003
 2036W        W18297  11.309  15.797   3.197 -0.1364  0.2038 -0.1082
 2037W        W18298  16.311   0.304  15.188 -0.0794  0.3295  0.1020
 2038W        W18299  17.488  16.947   0.468  0.2010  0.0601 -0.4186
 2039W        W18300   2.500   5.044  12.897 -0.4116  0.0546 -0.2760
 2040W        W18301  16.530  13.092   4.566 -0.1541 -0.1029  0.1137
 2041W        W18302   5.765  15.803   4.134  0.2030  0.1452  0.2209
 2042W        W18303   5.629  16.583   4.839  0.0559  0.3836 -0.2760
 2043W        W18304   4.333  15.956  16.503  0.0218 -0.0943 -0.2167
 2044W        W18305  10.838   3.661   2.071  0.2035  0.1506  0.0650
 2045W        W18306  15.800   8.827  11.486  0.0031  0.0535 -0.3263
 2046W        W18307   0.540   8.790   3.983 -0.2633  0.1478 -0.1763
 2047W        W18308   7.095  10.109  14.541 -0.2412  0.0278 -0.1181
 2048W        W18309  14.416  17.766   4.454 -0.1864 -0.0956 -0.2462
 2049W        W18310  14.335  12.107   5.612 -0.0507 -0.0113  0.2022
 2050W        W18311   3.543   4.334   4.478 -0.1528  0.0732  0.1438
 2051W        W18312   5.143  17.151  12.030 -0.4468 -0.0371 -0.1743
 2052W        W18313  15.844  10.602  15.443 -0.2308 -0.0637 -0.1525
 2053W        W18314   5.630   8.984   4.318 -0.0253  0.0692  0.2786
 2054W        W18315  12.881  10.456  15.038 -0.2015  0.0879  0.3474
 2055W        W18316   7.810  14.241   0.648  0.0963 -0.1177  0.3441
 2056W        W18317  13.345  17.835   0.676 -0.1083 -0.1429 -0.0635
 2057W        W18318   1.306  12.011   3.089 -0.3029  0.1359 -0.3205
 2058W        W18319   2.474   1.161   3.010 -0.1261  0.2545  0.5125
 2059W        W18320  11.384   1.890  12.177 -0.5074 -0.1547  0.1553
 2060W        W18321  14.506  10.245   2.365 -0.0525 -0.1258 -0.2781
 2061W        W18322  17.053   0.424   3.002  0.1961 -0.0075 -0.1911
 2062W        W18323  10.809  10.556   5.291  0.0351  0.2868  0.1452
 2063W        W18324   7.889   6.451   5.532  0.1032  0.1180 -0.1445
 2064W        W18325   3.651   1.102  13.187  0.0697 -0.1541 -0.2023
 2065W        W18326  10.949   9.577  13.225 -0.0462 -0.2050 -0.3018
 2066W        W18327   9.642   4.249  12.926  0.2331  0.1282 -0.4534
 2067W        W18328  13.411  13.540  13.072 -0.1777  0.0308 -0.1327
 2068W        W18329   6.525   7.697   0.522 -0.0553 -0.1766  0.0660
 2069W        W18330  15.179  15.387  14.412  0.1141  0.3505 -0.3014
 2070W        W18331   9.872  16.166  12.585 -0.2474  0.1102 -0.0110
 2071W        W18332  10.054   7.792   0.534  0.2553  0.2350 -0.3149
 2072W        W18333  17.625  16.679  13.919 -0.0652 -0.1488  0.1320
 2073W        W18334  12.484  13.168  12.931 -0.0208 -0.0443  0.0421
 2074W        W18335   0.275  16.689   2.168 -0.0971 -0.0279  0.2727
 2075W        W18336   2.738   6.338   4.125 -0.0157  0.1925  0.2287
 2076W        W18337  13.213   8.432   4.997  0.0503 -0.4740 -0.1674
 2077W        W18338   2.648  15.447   3.752 -0.1490  0.0843 -0.1546
 2078W        W18339   1.888  15.034  15.934 -0.0552  0.4245 -0.1247
 2079W        W18340   9.435   9.161   1.235 -0.3367 -0.2087  0.1064
 2080W        W18341   1.973   7.713   1.830 -0.1432 -0.0219  0.0857
 2081W        W18342  16.451   9.901  15.813  0.0962 -0.3812  0.0189
 2082W        W18343   3.459  14.240  16.012  0.2346 -0.3901 -0.1038
 2083W        W18344  10.485  16.566   0.979 -0.1623 -0.1912  0.0922
 2084W        W18345  16.046   4.379  15.040  0.0116  0.0724 -0.0656
 2085W        W18346  12.254   4.876   3.220  0.0711 -0.1032  0.2452
 2086W        W18347  17.525  12.277  11.681 -0.0709 -0.0254  0.1423
 2087W        W18348   5.935   8.684  16.186  0.2244  0.1290 -0.1091
 2088W        W18349   1.126  11.043   0.076  0.0747 -0.2216  0.3340
 2089W        W18350   4.882  16.850   2.984  0.2817 -0.0913  0.0951
 2090W        W18351  11.920   6.367  13.999 -0.3999 -0.3485 -0.1682
 2091W        W18352  14.130  17.171  14.514  0.2240 -0.0351  0.1016
 2092W        W18353  13.629   8.439  14.141 -0.0778 -0.0941  0.0961
 2093W        W18354   6.172  11.377  13.865 -0.1815 -0.1333 -0.1557
 2094W        W18355  17.134   6.542   0.894 -0.3923  0.1466  0.1187
 2095W        W18356   1.360  18.144  13.204  0.1200 -0.1357 -0.1978
 2096W        W18357  12.351  13.570   2.631 -0.4004 -0.0975 -0.1978
 2097W        W18358   4.892   3.605   3.875 -0.2779  0.2802  0.1122
 2098W        W18359   5.650  11.110  16.283  0.0339 -0.1799 -0.2837
 2099W        W18360  14.065   7.312   0.686 -0.0619 -0.2376  0.0314
 2100W        W18361   7.922   2.535   4.084 -0.1617 -0.0990  0.0406
 2101W        W18362   9.176   2.427  14.767 -0.1631 -0.1641 -0.1994
 2102W        W18363   3.278  10.167   1.691 -0.2912 -0.2912  0.1080
 2103W        W18364   1.377   4.722   5.106  0.0282 -0.1894 -0.3974
 2104W        W18365   1.702  15.761  16.483  0.0462 -0.1032 -0.0713
 2105W        W18366  12.617   8.999  14.838 -0.1367  0.2716 -0.1366
 2106W        W18367  12.280  13.438  11.575  0.0149  0.2634  0.2698
 2107W        W18368  16.551   4.041  15.432 -0.1828  0.0427  0.1695
 2108W        W18369  13.345   0.987  14.690 -0.1207  0.1715  0.2196
 2109W        W18370   0.487  10.093   1.278 -0.0818 -0.1050  0.0362
 2110W        W18371  13.814  10.506  11.468 -0.1416  0.1673 -0.0149
 2111W        W18372   4.711  14.724   2.151 -0.0345 -0.2561 -0.0167
 2112W        W18373   9.024  12.976  14.257 -0.0512  0.0562 -0.2766
 2113W        W18374   6.155   9.859   1.282 -0.0172 -0.0974  0.2061
 2114W        W18375  12.954   5.568   3.407  0.2295  0.0670  0.1674
 2115W        W18376   0.609  10.052   2.610  0.3156 -0.1459  0.0336
 2116W        W18377  15.395  16.486  13.417 -0.2236  0.3611  0.0729
 2117W        W18378   0.255   7.627  14.452 -0.0213 -0.1250 -0.1335
 2118W        W18379  10.973   6.081   2.073  0.2650  0.0123  0.2130
 2119W        W18380   8.023   1.512  15.678 -0.3983  0.2948  0.1241
 2120W        W18381  10.158  13.772  14.673 -0.3934 -0.0481 -0.0767
 2121W        W18382   0.521  10.321   4.550 -0.0877 -0.7702  0.0487
 2122W        W18383   3.978   8.482   0.434 -0.2387  0.1167 -0.2470
 2123W        W18384  10.103   2.136  15.178 -0.1466  0.2750  0.1560
 2124W        W18385  17.260   2.081  15.779  0.0863 -0.2246  0.0508
 2125W        W18386   3.904   5.467   2.374  0.1609 -0.0972 -0.0600
 2126W        W18387  14.335   9.521  14.705 -0.0315 -0.1173  0.0097
 2127W        W18388  13.000  16.920  13.586 -0.3450 -0.2084 -0.0938
 2128W        W18389   9.285   9.289  15.001 -0.0286  0.3751 -0.1154
 2129W        W18390   7.174   5.449  13.427  0.2141 -0.3005  0.0718
 2130W        W18391  17.491   9.781  14.359  0.2430 -0.1783 -0.1410
 2131W        W18392  11.358  13.417  13.275  0.2448 -0.3548 -0.1607
 2132W        W18393   7.399   8.370   4.690 -0.1630  0.0346 -0.1363
 2133W        W18394  14.955  18.133   4.010  0.1097  0.1587 -0.3231
 2134W        W18395  14.444   7.333   0.376 -0.0852  0.1391  0.2696
 2135W        W18396   9.815   6.044  13.390 -0.4361 -0.3877  0.1190
 2136W        W18397  16.810   0.348   5.279  0.0086 -0.3717  0.0360
 2137W        W18398   2.143   5.403  12.730  0.3055 -0.0096 -0.1155
 2138W        W18399   8.981   6.254   2.395 -0.1237 -0.3565 -0.3876
 2139W        W18400   9.367  17.163   5.714 -0.2001  0.1497  0.0257
 2140W        W18401  17.977  16.536  15.669 -0.3184  0.0532  0.1436
 2141W        W18402  16.126   4.208  12.267  0.1787  0.0119  0.2575
 2142W        W18403  13.472   3.854   1.455  0.0554 -0.2387  0.0778
 2143W        W18404  15.190  16.321   4.992  0.0382  0.1382 -0.2074
 2144W        W18405  12.202   2.503  11.026  0.2353  0.2326  0.0768
 2145W        W18406  18.038  11.791   1.945 -0.3038  0.4234 -0.0840
 2146W        W18407  12.992   2.268   2.085 -0.1614  0.1490  0.1154
 2147W        W18408   5.649  12.124  16.217  0.1408  0.1343 -0.1184
 2148W        W18409  16.359  17.184  13.492  0.0023 -0.0645 -0.2830
 2149W        W18410   7.907  17.746   0.483 -0.1451 -0.4660  0.3797
 2150W        W18411  15.533   4.967  12.599  0.1018 -0.1645  0.1968
 2151W        W18412  10.039  15.032  16.315  0.0792  0.0134 -0.1387
 2152W        W18413   6.352   0.066  14.054  0.0824  0.1567 -0.1894
 2153W        W18414   8.954   4.900  16.051 -0.0325 -0.0134  0.0074
 2154W        W18415  14.119  17.629   2.424 -0.2052 -0.1708  0.1416
 2155W        W18416   0.210  13.403  13.981  0.2186 -0.3574  0.2407
 2156W        W18417  11.944   6.905   5.921 -0.0127  0.1134  0.1553
 2157W        W18418   5.673  17.908   0.560 -0.0674 -0.0624 -0.0616
 2158W        W18419   8.352  11.263   0.564  0.1952  0.1605  0.1154
 2159W        W18420   3.640   6.618   5.905  0.1750 -0.1922 -0.0741
 2160W        W18421  14.024   0.038   4.510  0.4456 -0.0990 -0.1152
 2161W        W18422   9.320   8.755   5.213  0.0000  0.0719 -0.2335
 2162W        W18423   8.125   4.657   3.242 -0.2254 -0.3256 -0.0631
 2163W        W18424  14.544  14.234  13.990  0.1617  0.1251 -0.2678
 2164W        W18425  17.420   8.701  12.329 -0.0352  0.1955 -0.2365
 2165W        W18426  11.633  15.784  13.360 -0.0956  0.0579 -0.2313
 2166W        W18427  11.827  17.450   5.331  0.3550  0.0555 -0.1845
 2167W        W18428   7.658  14.911   1.526 -0.3542 -0.1744  0.1029
 2168W        W18429  14.853  17.551  11.654 -0.3136  0.1833  0.0943
 2169W        W18430   3.253   6.656  13.763  0.1185  0.4928  0.1470
 2170W        W18431   8.539  17.963   1.902  0.1898 -0.0871  0.2244
 2171W        W18432   5.746   4.476  15.638  0.3715 -0.0523  0.0096
 2172W        W18433  15.051  11.152  11.928  0.0595  0.0554  0.1308
 2173W        W18434   4.015  14.186  13.704  0.0528  0.1988  0.2893
 2174W        W18435  14.946   5.216  16.041 -0.1643  0.1561 -0.1746
 2175W        W18436   0.898  11.808  14.353 -0.0290 -0.2233  0.4847
 2176W        W18437  14.146   7.021  13.720  0.0255  0.0969  0.0017
 2177W        W18438   7.029   1.951  15.235 -0.1884  0.1975 -0.1120
 2178W        W18439   3.124   2.714  13.283 -0.1297 -0.2921 -0.0243
 2179W        W18440   3.211   7.676   1.277 -0.2998 -0.0787 -0.0970
 2180W        W18441  15.616   4.267   4.383  0.3080 -0.1360 -0.4347
 2181W        W18442   2.099   2.496   0.868  0.0230 -0.1464 -0.0403
 2182W        W18443   6.111   6.818   4.411  0.0531 -0.1516  0.0273
 2183W        W18444  15.381   0.059  15.272  0.0430  0.1023  0.1662
 2184W        W18445   4.741  15.887  15.523 -0.0486  0.2774  0.0105
 2185W        W18446  11.539   9.935   2.757  0.1408 -0.1384  0.0260
 2186W        W18447   6.068  17.043   1.589  0.0427 -0.1877 -0.0105
 2187W        W18448  12.025   7.080  16.423 -0.1452 -0.0816  0.2110
 2188W        W18449  17.322  15.366  15.121  0.1452  0.0682 -0.0964
 2189W        W18450   3.708  12.338   3.144 -0.1102 -0.2221 -0.1376
 2190W        W18451   2.855  11.384  16.490  0.5021  0.0943 -0.0898
 2191W        W18452   0.531  17.725   2.561 -0.0084  0.2564  0.0655
 2192W        W18453  15.840  17.781   4.253  0.1349 -0.2021  0.2160
 2193W        W18454   4.102  13.728  14.000 -0.0922 -0.1029  0.1174
 2194W        W18455   5.491  11.788  11.767 -0.1309 -0.2431  0.1913
 2195W        W18456  15.123   2.742  14.519  0.0283  0.0533 -0.0671
 2196W        W18457   9.187   3.729  14.496  0.3032  0.0702 -0.1589
 2197W        W18458  14.415  17.638   1.335 -0.0242 -0.0935 -0.0333
 2198W        W18459   9.188  13.804   2.145  0.1285 -0.1629  0.2561
 2199W        W18460   9.440  14.098  16.091 -0.0467 -0.1498  0.2075
 2200W        W18461   6.387  17.710   4.796  0.0758  0.1497  0.1760
 2201W        W18462   3.230   8.587   4.640  0.1213 -0.1179 -0.1920
 2202W        W18463   6.327  17.919   3.121  0.0744  0.0566  0.0251
 2203W        W18464   2.693   7.002   0.704 -0.3137 -0.1468  0.1953
 2204W        W18465  12.174  18.180  12.614 -0.1438  0.2780 -0.5274
 2205W        W18466   7.593  15.340  14.966  0.2919 -0.1604 -0.3328
 2206W        W18467   3.184  15.780   2.069  0.3926 -0.0761 -0.0344
 2207W        W18468   5.321  12.688   3.012  0.0490  0.1270 -0.2312
 2208W        W18469   5.615   2.933   2.487 -0.2926 -0.1700 -0.0113
 2209W        W18470   9.219   3.091  14.363 -0.1582 -0.1838  0.1584
 2210W        W18471   3.919   7.028   5.262 -0.2250 -0.1409 -0.0379
 2211W        W18472  14.799  10.617  15.200 -0.1502  0.2670 -0.1146
 2212W        W18473  12.440  12.510  14.086  0.0096 -0.2694  0.0345
 2213W        W18474   9.173   7.048   2.112  0.2906 -0.1527  0.2814
 2214W        W18475  17.564   4.622  13.138  0.0244  0.0988  0.1812
 2215W        W18476   4.859  16.202   4.022 -0.2365 -0.2171 -0.0834
 2216W        W18477  15.622  17.934  13.536  0.1513 -0.4100 -0.0942
 2217W        W18478   5.026   4.158   4.750 -0.0719  0.0472 -0.2533
 2218W        W18479   6.487  12.848  12.494  0.3169 -0.0612 -0.0916
 2219W        W18480  10.089   7.275   3.271  0.1133 -0.3303 -0.0387
 2220W        W18481   2.829   5.081  14.992  0.0189  0.1586 -0.3437
 2221W        W18482  16.777   7.677   1.096  0.1892 -0.2734 -0.0707
 2222W        W18483   9.536  12.337   5.537 -0.0188  0.0602 -0.1677
 2223W        W18484  18.175   4.009   4.838 -0.3239  0.3303 -0.2163
 2224W        W18485  11.485  12.564   4.009 -0.1153 -0.2443 -0.0910
 2225W        W18486  14.609  14.254   3.882  0.0560  0.2379  0.0919
 2226W        W18487  10.145   0.632  11.911 -0.0244 -0.0622 -0.1292
 2227W        W18488  13.358  14.014  12.078 -0.0205 -0.0048 -0.2194
 2228W        W18489  11.878   3.952   1.764  0.3239  0.0249  0.1135
 2229W        W18490   2.705   6.981   5.631 -0.0279  0.1859 -0.1631
 2230W        W18491   8.303   1.615   1.952 -0.1099 -0.0554  0.0470
 2231W        W18492   7.065   3.377   2.654 -0.2226 -0.0469 -0.0178
 2232W        W18493   3.356   9.924  14.198 -0.0578 -0.1639  0.0364
 2233W        W18494   7.652  14.480  14.107 -0.2705 -0.2267  0.2120
 2234W        W18495  17.679  16.219  16.295 -0.0754 -0.0211 -0.0609
 2235W        W18496  16.562   0.803  11.602 -0.2335 -0.0511 -0.1373
 2236W        W18497  13.101  17.330   2.831 -0.3457  0.1543 -0.2128
 2237W        W18498   2.384   8.209   1.819  0.0249 -0.3147  0.3668
 2238W        W18499  17.884   9.280  11.684  0.0585  0.1392  0.0236
 2239W        W18500   6.319  12.989   3.999  0.0979 -0.2688 -0.2301
 2240W        W18501  17.299   2.301   3.296 -0.1499  0.0454 -0.0509
 2241W        W18502  12.157   3.273  14.120  0.3028 -0.3664  0.1536
 2242W        W18503   2.457  16.486  13.648 -0.0463 -0.0390 -0.0352
 2243W        W18504  10.981   2.361  14.104  0.0612 -0.1347  0.0828
 2244W        W18505   9.866   5.193   2.457  0.1643 -0.2008  0.1185
 2245W        W18506   9.108   3.484  15.914 -0.0034  0.0166 -0.0267
 2246W        W18507  15.630   4.776  16.519  0.2845  0.4816 -0.1036
 2247W        W18508   6.612   2.108  15.402 -0.4291  0.1238  0.1249
 2248W        W18509  14.397   4.182  15.453  0.2011 -0.0284 -0.0573
 2249W        W18510   4.978  12.263   2.053  0.2869  0.0994  0.1076
 2250W        W18511  10.787   2.013  12.183 -0.1875  0.0852  0.1096
 2251W        W18512  15.391  11.517   1.111 -0.0123 -0.2769  0.3509
 2252W        W18513   2.715  13.582  14.178 -0.1471  0.3178  0.0733
 2253W        W18514  11.157   6.428  12.336 -0.0577 -0.2503  0.0719
 2254W        W18515  13.070  13.535  15.921  0.1046 -0.0016 -0.1334
 2255W        W18516   2.880   9.181  11.735  0.1201 -0.0680  0.1388
 2256W        W18517  12.863  17.819   0.757 -0.5107  0.1285  0.1778
 2257W        W18518  12.494   5.694  15.232  0.1607  0.1139 -0.1279
 2258W        W18519   2.007   8.106  12.496  0.4321  0.0019 -0.2953
 2259W        W18520   5.567  14.923   5.727 -0.0571 -0.1007 -0.1702
 2260W        W18521  17.028   5.868   6.344  0.2326  0.1178 -0.2468
 2261W        W18522  11.205  13.341  12.707  0.0936  0.1974  0.2903
 2262W        W18523  11.610  16.319  15.585  0.0821 -0.2339  0.0335
 2263W        W18524   0.040   5.978   0.887 -0.2535  0.3975 -0.2424
 2264W        W18525  11.584  15.349   1.473 -0.0136 -0.1343 -0.2469
 2265W        W18526   0.185   3.033  15.097  0.2616  0.1796  0.1134
 2266W        W18527   2.111  11.411   4.960 -0.3566  0.0364  0.0353
 2267W        W18528  11.428  17.244  15.610 -0.3636 -0.2151  0.1502
 2268W        W18529  14.504   7.284   1.529  0.0396  0.0527 -0.2175
 2269W        W18530  12.038   5.718  12.283  0.0032 -0.0368  0.0713
 2270W        W18531  15.923  16.020   0.721 -0.0090 -0.0644  0.0154
 2271W        W18532   8.724   0.143  13.906  0.1311  0.1057 -0.2319
 2272W        W18533  15.067   7.796  14.900 -0.0416  0.1242 -0.0899
 2273W        W18534  12.968   6.048  12.433 -0.1217  0.1802  0.1753
 2274W        W18535  14.829  11.278   5.488  0.0551  0.1188 -0.0824
 2275W        W18536   1.851   3.323  12.540 -0.0059  0.0936  0.0058
 2276W        W18537   6.212   0.004   4.731 -0.2092  0.0132  0.1157
 2277W        W18538   5.936   8.753  14.818  0.0340  0.2423 -0.0159
 2278W        W18539   4.557   7.100   3.962 -0.1744  0.2873 -0.2424
 2279W        W18540  14.152   2.572  14.405 -0.1488  0.3905  0.1466
 2280W        W18541  11.350  10.207   4.153 -0.0734 -0.0656 -0.1693
 2281W        W18542   2.022   2.366  14.931  0.2808  0.0955 -0.0432
 2282W        W18543  10.359  13.197   0.800  0.1182  0.0926 -0.0706
 2283W        W18544   9.105  11.866   0.309 -0.2295 -0.2606  0.1289
 2284W        W18545  15.675  10.203  11.613 -0.0949  0.2442 -0.3317
 2285W        W18546  15.443  14.780   2.952  0.4228  0.2366 -0.0500
 2286W        W18547   1.207  13.234   5.403 -0.0045  0.0908  0.1591
 2287W        W18548   0.290   3.132  12.773  0.1065  0.1822 -0.1687
 2288W        W18549  12.052   9.002   4.951 -0.0198 -0.0808  0.0948
 2289W        W18550   1.824  14.454   3.079  0.1317  0.1637  0.2093
 2290W        W18551   1.156   1.918   4.896 -0.0425  0.2874  0.2774
 2291W        W18552   9.339  11.188  13.960 -0.2650  0.0241 -0.1627
 2292W        W18553   3.069  14.469  14.561 -0.0053 -0.0068  0.0490
 2293W        W18554   4.004   3.153  12.970 -0.1548  0.3682 -0.0587
 2294W        W18555   7.364   0.755   4.411 -0.0573 -0.2631  0.1168
 2295W        W18556   1.315  13.244  13.438  0.1530 -0.0807  0.1447
 2296W        W18557   9.636   3.202   0.783 -0.3039 -0.2121  0.1466
 2297W        W18558   3.641  14.448   0.182 -0.0425 -0.4602 -0.0989
 2298W        W18559  12.454  11.589  12.234 -0.0017  0.2117  0.3708
 2299W        W18560  13.439  13.866   1.325  0.0663 -0.1387 -0.2906
 2300W        W18561   0.355   8.478  12.832 -0.0827  0.2274 -0.1995
 2301W        W18562   0.599   7.403   0.573  0.0578  0.1167 -0.2176
 2302W        W18563   4.943   7.087  14.978 -0.2746 -0.2083  0.1669
 2303W        W18564  13.842   8.530  14.965 -0.1903 -0.1898 -0.1407
 2304W        W18565   8.214  15.699  13.421 -0.0725 -0.1619  0.1814
 2305W        W18566  11.725  11.306  16.558  0.0936 -0.3523 -0.1804
 2306W        W18567  17.972   4.975   1.988 -0.0894 -0.0440  0.2752
 2307W        W18568   9.844  14.010   2.695  0.0783 -0.0640  0.0137
 2308W        W18569   2.759  14.512   4.767 -0.3554 -0.0770 -0.0285
 2309W        W18570   6.362  11.076  14.346 -0.0398  0.2015  0.1133
 2310W        W18571   6.336  16.374   1.783 -0.0332 -0.0112 -0.1506
 2311W        W18572   7.397   8.345   2.000  0.0331  0.0248  0.0608
 2312W        W18573   4.947   0.384  12.515  0.0724 -0.0252  0.0896
 2313W        W18574  16.680  12.743   1.738 -0.1936  0.4737 -0.1705
 2314W        W18575   3.163   5.152   4.998 -0.0056  0.1144  0.1326
 2315W        W18576  16.293  13.123   5.595 -0.0629  0.1317 -0.1109
 2316W        W18577  11.832   7.505   5.757 -0.0351  0.1984  0.1621
 2317W        W18578   9.640   9.181  14.573  0.0947 -0.0640 -0.0575
 2318W        W18579   4.012  13.337  14.489  0.0152 -0.1805  0.1250
 2319W        W18580   3.151  14.616  12.240 -0.2556 -0.2689 -0.0423
 2320W        W18581  14.987   4.767  15.757  0.3719 -0.0822 -0.1750
 2321W        W18582   5.730   5.106   2.548 -0.0593 -0.0103  0.1124
 2322W        W18583   9.098   9.277   3.126 -0.0709 -0.0961  0.0219
 2323W        W18584  12.944  16.936  15.289  0.1225 -0.1840  0.1225
 2324W        W18585  13.510  11.160  13.653  0.0207 -0.0206 -0.0711
 2325W        W18586   6.383   6.974  14.949 -0.0871  0.0932 -0.0089
 2326W        W18587   6.091  12.688   0.715  0.0807  0.2717 -0.0826
 2327W        W18588   1.041  10.032   1.279  0.0563  0.1952  0.0764
 2328W        W18589  17.152  12.438   0.713 -0.3402  0.0440 -0.0611
 2329W        W18590  17.867  13.233  16.136  0.0929 -0.1569  0.2702
 2330W        W18591   0.979   6.144  11.910 -0.2668  0.0447 -0.1375
 2331W        W18592   3.724  17.261   6.331 -0.0343 -0.1478  0.1555
 2332W        W18593   2.342   0.058  12.509 -0.1720 -0.0202  0.0858
 2333W        W18594   0.010   9.512  12.876  0.0731 -0.1151 -0.1254
 2334W        W18595   5.359   7.209  15.219 -0.0112  0.3917  0.1770
 2335W        W18596   8.183   6.110   5.355  0.0028 -0.1187  0.2409
 2336W        W18597   6.233  18.152  15.922  0.0229  0.1549 -0.1754
 2337W        W18598  14.862   9.488  12.615 -0.0322 -0.1768  0.1766
 2338W        W18599  10.192   8.691  15.202  0.1831 -0.0965 -0.2374
 2339W        W18600   1.009   9.467  13.504  0.3431 -0.2122 -0.3035
 2340W        W18601  12.824  17.051  15.839 -0.0014  0.0539 -0.2939
 2341W        W18602  11.245  13.495   0.775  0.1915 -0.0411 -0.1369
 2342W        W18603  17.286  10.433   1.523  0.0211  0.0328  0.1905
 2343W        W18604  16.446   2.724   4.096  0.3012  0.0669  0.0794
 2344W        W18605   4.708   8.020  11.164  0.2118  0.2221 -0.0000
 2345W        W18606   3.283   9.236   1.693 -0.1032 -0.1946 -0.2012
 2346W        W18607  12.779   7.334  12.347  0.1661 -0.1712  0.0160
 2347W        W18608   9.514   7.916   2.122 -0.1475 -0.0033 -0.0407
 2348W        W18609   9.265   8.804  13.493 -0.0299 -0.3525 -0.1961
 2349W        W18610  13.716  17.035  13.562  0.0296  0.0990  0.0601
 2350W        W18611   1.076   4.345   5.231  0.0660 -0.2236 -0.0185
 2351W        W18612   1.014  14.432  10.994  0.2415 -0.0216  0.0823
 2352W        W18613  14.775   3.704   4.081  0.3022  0.0271 -0.0319
 2353W        W18614  10.853  16.367   5.720 -0.0880  0.0842 -0.1228
 2354W        W18615   8.761   7.049  16.039  0.0658 -0.1602  0.2304
 2355W        W18616   6.421  16.148  12.186 -0.2107  0.0418 -0.1451
 2356W        W18617   8.858   4.031  11.059  0.0022  0.1008 -0.2188
 2357W        W18618   3.942   7.825   1.719 -0.3023 -0.2317 -0.2985
 2358W        W18619  16.107   3.118   2.163 -0.2279 -0.3235 -0.1389
 2359W        W18620   6.189   9.571  13.720  0.0928 -0.2691 -0.1104
 2360W        W18621  11.823   7.550  12.546 -0.2379 -0.0943 -0.0479
 2361W        W18622  15.936  18.185  15.635 -0.1221  0.0982 -0.0317
 2362W        W18623   4.774   8.186   1.345  0.1408 -0.0743  0.1261
 2363W        W18624   0.405   6.576   3.587  0.0303 -0.2031  0.4140
 2364W        W18625   0.324  12.570   1.922  0.0669 -0.0023  0.0907
 2365W        W18626   0.784  17.247  15.554  0.2403  0.0194  0.0943
 2366W        W18627   7.036   6.693  11.042  0.2303 -0.1201  0.1091
 2367W        W18628  10.034  11.731   2.395 -0.0891  0.3224  0.2172
 2368W        W18629   0.109   5.670   3.658 -0.2371  0.1533 -0.0123
 2369W        W18630  15.106   4.421  11.815 -0.1073  0.1472 -0.0262
 2370W        W18631   4.475   3.380  13.158  0.2615  0.1511  0.3113
 2371W        W18632  10.982  14.541   4.447 -0.1888  0.0845  0.1523
 2372W        W18633   2.432   5.897   2.669  0.0763 -0.0338 -0.1097
 2373W        W18634   4.598   8.527  13.763 -0.3023 -0.1282  0.0216
 2374W        W18635   8.819  12.249   0.507 -0.2735 -0.2184  0.5581
 2375W        W18636   6.433   8.024   3.930 -0.1473  0.1387  0.0945
 2376W        W18637  17.259  10.671   2.937  0.2378 -0.4338 -0.3330
 2377W        W18638  15.065  11.346   4.587 -0.2598  0.1154 -0.0681
 2378W        W18639   0.722   8.652  12.114  0.1113  0.1651  0.2506
 2379W        W18640   4.291  17.184  11.901 -0.0534 -0.1130 -0.0608
 2380W        W18641  14.574  14.477   4.638  0.3976  0.2021  0.1167
 2381W        W18642   4.072   8.889   2.300  0.1268 -0.1756  0.2667
 2382W        W18643  10.776  17.434   4.238 -0.1497  0.2638 -0.2301
 2383W        W18644   0.298   0.113   1.695  0.1504 -0.2570  0.3360
 2384W        W18645   6.310  14.493   0.130 -0.0952  0.0936  0.1319
 2385W        W18646  13.452   6.257  16.298  0.2117 -0.2397  0.1674
 2386W        W18647   9.360   0.546   3.667 -0.0635 -0.2451  0.0409
 2387W        W18648   5.387   0.462   1.359  0.1505 -0.0150 -0.0160
 2388W        W18649  10.304  11.523   1.595 -0.2965  0.3464  0.3755
 2389W        W18650  15.696   4.520  12.403 -0.0481 -0.0454  0.1916
 2390W        W18651  11.530  13.739   3.797  0.0784 -0.2836 -0.0104
 2391W        W18652  12.942  10.820  12.442 -0.1139  0.0970  0.2465
 2392W        W18653  14.620  11.283   2.291  0.5298  0.0763  0.2895
 2393W        W18654  11.918   0.244   4.345  0.0630 -0.3528  0.0415
 2394W        W18655  15.501  14.624  11.312  0.1431  0.1421  0.0274
 2395W        W18656   7.802   3.238  14.478  0.1442  0.1360  0.0878
 2396W        W18657   5.167  15.731   1.526 -0.2706  0.0108 -0.2146
 2397W        W18658   5.032  15.622  12.032  0.1279  0.1288 -0.3104
 2398W        W18659   0.928   7.720  15.345  0.0993 -0.3898 -0.2914
 2399W        W18660  16.120   4.751  14.711 -0.2107  0.3481 -0.0350
 2400W        W18661   9.403   4.642  12.996  0.1653 -0.1377 -0.3970
 2401W        W18662   4.179  13.711   5.655  0.1060  0.1007 -0.2354
 2402W        W18663   6.251   8.681   3.659  0.0812 -0.1930  0.0462
 2403W        W18664  12.518   0.752  12.407 -0.1701  0.1148 -0.2826
 2404W        W18665  13.249  16.195   3.800 -0.0352 -0.2884  0.1470
 2405W        W18666   3.181   7.547   3.493  0.0115 -0.0106  0.2349
 2406W        W18667  17.715   9.808   2.605  0.1200  0.1489  0.1828
 2407W        W18668   1.078  16.021  13.492 -0.1521  0.2525 -0.2981
 2408W        W18669  12.953   9.310   5.752 -0.2888  0.0408 -0.0043
 2409W        W18670  13.751  16.168   1.210  0.1583  0.1034 -0.4232
 2410W        W18671  16.164   2.096  13.278  0.0284  0.0798  0.2563
 2411W        W18672   8.544   9.298  12.862 -0.0917 -0.0377  0.4227
 2412W        W18673  17.145   7.414  14.670  0.4493 -0.2776 -0.1095
 2413W        W18674  10.319  14.584   0.390  0.0664 -0.2764 -0.2828
 2414W        W18675   6.459   1.760  14.552  0.0285 -0.0735  0.1783
 2415W        W18676  11.218  12.632   4.913 -0.1064 -0.2522  0.1803
 2416W        W18677  11.822  15.381   2.036  0.0636 -0.2063  0.1158
 2417W        W18678   4.604  12.433   5.735  0.0607 -0.2322  0.0146
 2418W        W18679   8.688  17.265  13.324  0.0364  0.1587  0.1823
 2419W        W18680   8.035  12.907   3.930  0.0255  0.3056  0.2306
 2420W        W18681  12.361   5.789  12.684  0.2091  0.0914 -0.2498
 2421W        W18682   3.578  11.235   3.247 -0.1529  0.1447 -0.4250
 2422W        W18683   7.797  15.016   4.478 -0.1458  0.0835  0.2215
 2423W        W18684   7.048  14.746   0.450 -0.3104 -0.0313 -0.1667
 2424W        W18685   9.641  10.243  14.646 -0.1084  0.1890 -0.1590
 2425W        W18686   6.648  15.144  16.017 -0.1052 -0.1837  0.0781
 2426W        W18687  12.310   0.615   0.938 -0.1581 -0.0691 -0.1078
 2427W        W18688   5.607   3.846  12.208  0.2393 -0.2342  0.4418
 2428W        W18689   7.930   5.007  13.590  0.0235 -0.5780  0.1046
 2429W        W18690   1.839   0.662   4.330 -0.2126 -0.1432 -0.1199
 2430W        W18691   4.646   5.622   0.619  0.0202  0.1930 -0.0295
 2431W        W18692   1.026   2.426   2.119  0.1522 -0.1783 -0.1371
 2432W        W18693  15.573  15.609   5.363 -0.4251 -0.2085  0.0557
 2433W        W18694   0.615   0.672   3.345 -0.3846 -0.0811  0.3525
 2434W        W18695   7.622  12.643   0.879  0.0112  0.1250 -0.1177
 2435W        W18696   2.363  13.532   4.556  0.0782  0.1263  0.0563
 2436W        W18697   1.924   2.187  12.343  0.1590  0.0708 -0.2897
 2437W        W18698  11.047  17.542   0.441 -0.1378 -0.1738  0.0625
 2438W        W18699  16.329  12.102  12.238  0.1456 -0.0246  0.1776
 2439W        W18700  17.699   5.644  13.042  0.1259  0.0311 -0.0289
 2440W        W18701   0.979   5.703   2.571 -0.3358 -0.0773 -0.0397
 2441W        W18702  16.837   1.694  14.519 -0.2522 -0.1458 -0.3868
 2442W        W18703  10.467  18.144  12.683 -0.0567 -0.1576  0.1026
 2443W        W18704  14.864   2.195  12.925 -0.4306  0.0361 -0.1715
 2444W        W18705  10.702  13.201   3.475 -0.0681  0.3550  0.0083
 2445W        W18706   9.971   1.364   4.558 -0.0117 -0.3221 -0.2942
 2446W        W18707  15.246  14.659   4.168  0.2057 -0.1008  0.0715
 2447W        W18708   6.732  12.717  12.883  0.0363 -0.1335  0.0979
 2448W        W18709   1.659   3.729   5.085  0.0730  0.0762  0.1075
 2449W        W18710  10.327   3.650   0.876 -0.2734 -0.1520  0.1279
 2450W        W18711   4.157   1.730  13.413  0.3478 -0.0841 -0.3591
 2451W        W18712  16.128  10.705  11.877  0.4596 -0.0844  0.1061
 2452W        W18713   2.538   3.482   5.501 -0.0194 -0.1074 -0.1318
 2453W        W18714   2.418  11.612   2.011 -0.0910  0.4637 -0.3418
 2454W        W18715  14.903  13.439  13.610 -0.1183 -0.0576 -0.3433
 2455W        W18716  15.441  14.662  16.110 -0.0541 -0.1818 -0.0229
 2456W        W18717   7.404   7.172  16.324 -0.0231 -0.1704  0.1236
 2457W        W18718  13.632  11.579  14.926 -0.1986  0.1420  0.1921
 2458W        W18719   1.490  10.899  15.295  0.2425  0.1088 -0.3592
 2459W        W18720  13.488   2.055   2.284  0.1430 -0.0673  0.0147
 2460W        W18721  12.363  15.446  12.544 -0.2399 -0.3867 -0.0219
 2461W        W18722  13.279   7.290   2.837 -0.2771  0.3384 -0.0314
 2462W        W18723  11.089  15.214   2.517 -0.1913 -0.0019  0.0657
 2463W        W18724  11.455  14.429   0.000  0.0585  0.0092  0.1463
 2464W        W18725   1.713   2.737   0.683  0.1354 -0.1506 -0.2447
 2465W        W18726  10.806  14.163   5.887  0.0056 -0.0604  0.0254
 2466W        W18727   7.534  14.335  14.924  0.0775  0.1736 -0.0885
 2467W        W18728   8.253  14.286  12.715 -0.1209  0.2252  0.1385
 2468W        W18729   5.874   3.998  14.233  0.0892  0.2058 -0.0793
 2469W        W18730   4.974  10.265  12.891  0.0532 -0.0482  0.1215
 2470W        W18731  15.640  13.412   0.827  0.0447 -0.1737  0.1222
 2471W        W18732   5.049  16.828   1.752  0.0996 -0.1102  0.0742
 2472W        W18733  13.916   6.940   3.953  0.1472 -0.0495 -0.1426
 2473W        W18734  11.362   5.984  12.701  0.1934  0.0393  0.2355
 2474W        W18735   1.938  10.483  15.368 -0.2691  0.0244 -0.1680
 2475W        W18736  15.407   7.330   4.695 -0.1550 -0.0244  0.1038
 2476W        W18737   0.756   0.732  15.164  0.4537  0.1529  0.2297
 2477W        W18738  13.092   6.832   3.466  0.0200 -0.2489  0.0940
 2478W        W18739  10.800  11.410  12.620 -0.2947 -0.1714  0.0249
 2479W        W18740   3.520   3.783  13.814 -0.1056 -0.0244  0.1581
 2480W        W18741  10.164   1.334   3.780 -0.0149  0.1792  0.2803
 2481W        W18742  18.169  12.694  14.950 -0.0628 -0.1663 -0.0120
 2482W        W18743  16.270   6.869  14.249 -0.0616 -0.0351  0.1247
 2483W        W18744   8.540   7.799  12.540 -0.1173  0.0232  0.1767
 2484W        W18745   3.647   3.451  14.214  0.1433  0.0263 -0.0832
 2485W        W18746  14.030   7.136  12.817 -0.1660 -0.2187 -0.0763
 2486W        W18747  13.470   8.543   1.077 -0.2164  0.2934 -0.1981
 2487W        W18748   7.043   1.685   0.943 -0.0892  0.2416 -0.0115
 2488W        W18749  14.844   2.903  14.070  0.0679 -0.2014 -0.2437
 2489W        W18750   1.250   0.553  13.782  0.1544  0.1136  0.1305
 2490W        W18751   2.523  17.433  16.388 -0.1132 -0.1368 -0.3059
 2491W        W18752   3.253  10.578   3.680  0.1418  0.0839 -0.0990
 2492W        W18753   4.891  14.655  13.281 -0.0775 -0.0912  0.0087
 2493W        W18754   9.688   6.834   4.255 -0.1439  0.1362 -0.2162
 2494W        W18755  12.233  10.260  12.376  0.2663  0.0871 -0.0642
 2495W        W18756   1.093  11.103   4.211  0.0657 -0.2672 -0.0314
 2496W        W18757   2.745  14.879   3.157  0.2148 -0.0314 -0.0247
 2497W        W18758  12.423  14.544  15.100  0.1278  0.2686  0.0235
 2498W        W18759  18.188   5.169   3.512 -0.1080  0.0453  0.0162
 2499W        W18760   7.540  11.413   1.629  0.1370 -0.1260 -0.2142
 2500W        W18761   8.875  12.844   2.165  0.0644  0.5680  0.0277
 2501W        W18762   1.640   2.443   1.086  0.1289 -0.1779 -0.2010
 2502W        W18763   9.310  10.400   0.289 -0.0225 -0.1334  0.2598
 2503W        W18764   3.404   7.974  12.946  0.2577  0.3059 -0.0025
 2504W        W18765   5.385   4.326   2.582  0.1240 -0.3442  0.1855
 2505W        W18766  10.749   3.580  12.669 -0.2850  0.3632 -0.0079
 2506W        W18767  16.053   6.720   2.433  0.0921 -0.0814  0.2815
 2507W        W18768  14.806  13.469   5.971 -0.0497  0.3450 -0.0425
 2508W        W18769   5.676  12.937  13.018  0.2497  0.1014  0.1758
 2509W        W18770  15.803  16.460  11.934 -0.3227  0.2992  0.0053
 2510W        W18771   1.802   8.707   1.910  0.1678 -0.2785  0.1567
 2511W        W18772   6.516  17.479   1.003 -0.0015 -0.1699  0.0199
 2512W        W18773  12.863  16.869   2.984 -0.0385  0.0179 -0.0104
 2513W        W18774   5.116  12.097  12.670  0.0088  0.0801 -0.4289
 2514W        W18775   5.621  17.375  12.136 -0.0249  0.1581 -0.1677
 2515W        W18776  10.059   0.517  16.041  0.1843  0.0728  0.0404
 2516W        W18777  11.664  17.713  11.474  0.1980  0.2151 -0.0533
 2517W        W18778   8.763   6.876  12.299 -0.0695  0.2943 -0.0580
 2518W        W18779  12.387   5.800   5.781  0.2716 -0.0491  0.2676
 2519W        W18780   2.704  17.204   0.747 -0.2309  0.0301  0.3536
 2520W        W18781   9.168   4.434  12.486  0.1988  0.0412 -0.0959
 2521W        W18782  14.694   9.553  16.396  0.2387  0.0768  0.3659
 2522W        W18783  14.580  11.472  16.448 -0.2407  0.0493  0.2826
 2523W        W18784   6.869   8.349  14.654 -0.0421 -0.2523 -0.1588
 2524W        W18785  17.248   2.530   0.930 -0.0275 -0.0783  0.2752
 2525W        W18786   2.786   6.956  12.712 -0.2315 -0.0483  0.1182
 2526W        W18787  16.867   4.458  12.498 -0.0497 -0.0131 -0.1447
 2527W        W18788  10.015   6.987   1.640  0.0879 -0.1216  0.0151
 2528W        W18789  17.689  17.739   0.812  0.0612  0.1202  0.0025
 2529W        W18790   7.636   3.959  15.835 -0.5544  0.0970  0.0674
 2530W        W18791   5.086  13.398  16.380 -0.0665 -0.0960  0.1306
 2531W        W18792   6.329   4.296  14.198  0.2798  0.2731  0.1345
 2532W        W18793  14.103  13.350  12.409 -0.0698 -0.0502  0.2590
 2533W        W18794   1.856   5.335   0.234 -0.2737  0.1355 -0.0553
 2534W        W18795  16.334   6.398   5.868 -0.0823  0.0086 -0.1862
 2535W        W18796   8.932   9.743   3.364  0.4286 -0.2404 -0.1466
 2536W        W18797  13.674  14.907  15.927 -0.1325 -0.1375  0.0593
 2537W        W18798   4.218  13.296  13.641 -0.0370 -0.1412  0.3729
 2538W        W18799  10.041  10.850  12.504  0.0102 -0.0026 -0.1423
 2539W        W18800   2.165  15.588  13.973 -0.0880  0.1068  0.3197
 2540W        W18801  17.721  11.570  12.665  0.0932  0.0962  0.2299
 2541W        W18802   5.369  14.047   1.490  0.2476  0.0301 -0.1157
 2542W        W18803  17.435   8.472   4.393  0.2918 -0.1222 -0.1959
 2543W        W18804  17.958   7.264   3.973  0.4659  0.1326  0.0369
 2544W        W18805  11.943   7.559   9.975  0.5338  0.2051  0.3203
 2545W        W18806   7.517   2.011   3.211  0.1536  0.0781  0.0056
 2546W        W18807  11.125   6.876  11.139  0.1891  0.3551 -0.3399
 2547W        W18808  14.397   6.439   4.096 -0.2189  0.0421 -0.1460
 2548W        W18809  13.288   3.115   2.482 -0.1723 -0.1066  0.0275
 2549W        W18810  11.075  14.905   0.797  0.0161 -0.2584 -0.0468
 2550W        W18811  13.109  17.401   3.357 -0.2443  0.1897  0.1161
 2551W        W18812  13.507   4.744   3.810  0.3506  0.0676  0.0305
 2552W        W18813  12.880   6.067   3.653 -0.0138  0.2038  0.1222
 2553W        W18814  16.660   6.712  15.127 -0.2695  0.1994  0.0666
 2554W        W18815  11.892  14.862   1.473 -0.2369  0.1539 -0.0132
 2555W        W18816   9.530   2.096  15.067 -0.0787 -0.0385 -0.1051
 2556W        W18817   0.021  15.656  14.197  0.0721  0.0118 -0.3594
 2557W        W18818   0.822  12.188   2.982 -0.0124  0.1356 -0.1057
 2558W        W18819  12.688  11.648  16.320  0.0749 -0.1862  0.0298
 2559W        W18820   2.847   0.062   0.611  0.2263  0.1652 -0.1173
 2560W        W18821   1.651   9.058   3.676 -0.1578 -0.1852 -0.0968
 2561W        W18822   3.380   9.125   2.721  0.1155 -0.1306  0.1604
 2562W        W18823   6.889   2.858   2.896  0.0278  0.1057  0.0716
 2563W        W18824   6.345   2.625   3.778 -0.4893 -0.0887  0.1564
 2564W        W18825   9.494  15.843   0.987  0.1158  0.1357 -0.1315
 2565W        W18826  14.644   0.432  13.105 -0.2231 -0.1915  0.0942
 2566W        W18827   6.296   6.201   5.251 -0.0524  0.0750  0.4996
 2567W        W18828   6.731   2.060  12.593 -0.1853 -0.0774  0.3033
 2568W        W18829   6.392  17.497   5.543 -0.3797 -0.0303 -0.0178
 2569W        W18830   2.854   9.595  14.774 -0.1461 -0.0078  0.1955
 2570W        W18831   6.032  17.803  15.500  0.1786 -0.0650  0.2476
 2571W        W18832  13.978   1.242  13.458 -0.2096  0.0436  0.1019
 2572W        W18833  11.889  16.593   4.910 -0.1699  0.2517  0.2843
 2573W        W18834   6.679  17.888   3.869  0.0281 -0.1872 -0.0125
 2574W        W18835  10.802   6.492   1.701  0.0594  0.0535 -0.0259
 2575W        W18836   9.855   0.112   0.179 -0.1533  0.0772  0.0295
 2576W        W18837   8.818   8.489   5.241  0.1257 -0.3353  0.1821
 2577W        W18838  11.882   0.682   3.401  0.1761 -0.0502  0.1959
 2578W        W18839   8.507   3.144   0.458 -0.1019 -0.0618  0.0472
 2579W        W18840   0.073   2.138   3.957 -0.0110 -0.3930  0.0090
 2580W        W18841  16.543   3.096   4.800 -0.3909  0.0433  0.4271
 2581W        W18842  12.065   1.231  15.995  0.0397 -0.1783  0.4198
 2582W        W18843   0.221  15.390  15.111  0.0310 -0.0436 -0.0124
 2583W        W18844   6.495   5.794  16.060 -0.3701  0.0084  0.0835
 2584W        W18845   2.956  14.141  13.025 -0.0592  0.0974 -0.0456
 2585W        W18846  14.660  10.658   0.543 -0.0626 -0.3388 -0.1086
 2586W        W18847   8.808  17.821  12.438 -0.0427  0.0564  0.0778
 2587W        W18848   8.957  18.161   1.680  0.0540 -0.1360 -0.0234
 2588W        W18849  16.487   8.821  16.522  0.1732 -0.0545  0.0562
 2589W        W18850  12.226  10.510  15.484 -0.2124 -0.2156 -0.1176
 2590W        W18851   4.108   4.588  12.732 -0.4478  0.0273 -0.6412
 2591W        W18852   3.229  15.098   3.200  0.2008 -0.1045  0.0235
 2592W        W18853  13.605   1.717  11.827  0.1185  0.0049  0.1167
 2593W        W18854  11.605   5.814  13.381 -0.0458  0.4076 -0.0465
 2594W        W18855  11.018  15.084  16.011  0.0788 -0.1883  0.2075
 2595W        W18856   2.033  15.774  11.310 -0.2950 -0.3541 -0.3177
 2596W        W18857   7.132  17.730  13.811 -0.2893 -0.0155 -0.0273
 2597W        W18858  16.219  12.618  13.355 -0.3140  0.2170  0.1421
 2598W        W18859   1.281   5.274  12.650 -0.0918 -0.2006 -0.2166
 2599W        W18860   2.172   4.766   1.426  0.0667 -0.2696  0.2252
 2600W        W18861  15.033   8.414   5.287 -0.1216  0.3990 -0.1228
 2601W        W18862   2.055   6.742   0.291 -0.2196  0.0021 -0.2532
 2602W        W18863   7.774  10.143  11.640 -0.0282 -0.1549  0.1384
 2603W        W18864   9.495  12.327   1.157 -0.0621  0.0698 -0.0385
 2604W        W18865   5.228  11.812   1.809 -0.3885 -0.1609  0.1911
 2605W        W18866   2.768   2.639  16.183  0.0258  0.0987 -0.1700
 2606W        W18867  11.611  13.249  14.912  0.1430 -0.0611  0.1935
 2607W        W18868  17.267  14.351   4.477 -0.1829  0.1598  0.0701
 2608W        W18869  17.840  18.059   2.532 -0.1079  0.2572  0.2171
 2609W        W18870   9.415  11.685   2.042  0.2191 -0.3246 -0.1316
 2610W        W18871   0.422   3.773   4.717  0.0754 -0.0365 -0.0341
 2611W        W18872   7.066  15.969   4.795 -0.0323 -0.2030 -0.2174
 2612W        W18873   5.145  17.673   5.493 -0.0969 -0.2481  0.0795
 2613W        W18874   2.563  11.992   0.476  0.0428 -0.0527 -0.0770
 2614W        W18875   6.226  12.597  15.637  0.5610 -0.3011 -0.0045
 2615W        W18876   9.832  15.878   1.346 -0.0291 -0.0570  0.1706
 2616W        W18877   4.503   8.600  14.903 -0.0340  0.0103 -0.0096
 2617W        W18878   0.938  15.707  13.120 -0.0113  0.2315  0.1954
 2618W        W18879   0.511  10.896   6.047 -0.2179 -0.0362  0.1528
 2619W        W18880   7.616  13.029  14.054  0.3821  0.0371  0.1016
 2620W        W18881   5.730   0.772  16.055 -0.0482  0.1924 -0.0175
 2621W        W18882   1.551   8.275  12.667 -0.1693  0.0124 -0.0340
 2622W        W18883  14.254  10.293  11.295 -0.0998 -0.1095 -0.2078
 2623W        W18884   5.160   9.858  15.626 -0.1146 -0.3570 -0.0614
 2624W        W18885   8.828   1.046  12.170 -0.0243 -0.2164  0.0365
 2625W        W18886  11.536   1.596   0.271 -0.0992 -0.0386  0.0506
 2626W        W18887  10.132  17.506   0.255  0.0854  0.0984 -0.1447
 2627W        W18888  10.875   2.644  15.793 -0.1123  0.0839  0.0328
 2628W        W18889   0.133   4.394   6.055  0.4165  0.3001  0.0838
 2629W        W18890  16.290  11.207   2.323  0.0377  0.0768 -0.2064
 2630W        W18891   7.651   3.869  12.033  0.1189 -0.1518 -0.0212
 2631W        W18892  12.572   4.817  15.579 -0.1202  0.0266  0.1570
 2632W        W18893  17.419  16.244   3.656  0.0066 -0.2417  0.1917
 2633W        W18894  13.446   4.955   5.512  0.0646  0.3470  0.2654
 2634W        W18895   2.973   8.121  14.448  0.2785  0.1509 -0.3589
 2635W        W18896   2.959   8.423   0.079  0.0049 -0.0947 -0.2932
 2636W        W18897  14.202   2.337   0.719 -0.0908  0.1514 -0.2525
 2637W        W18898   9.800  16.639  15.223  0.1754 -0.1718  0.2132
 2638W        W18899  12.466  17.821   2.307  0.2241  0.1541 -0.2276
 2639W        W18900  15.889   6.648   2.985 -0.1463  0.2270  0.0250
 2640W        W18901   6.040  11.632  16.551  0.0021 -0.0112 -0.3730
 2641W        W18902   8.620  11.757  13.023  0.2426  0.1944  0.0212
 2642W        W18903   8.524   2.677   4.308  0.0067 -0.2954 -0.2076
 2643W        W18904  15.963  17.707   4.999 -0.0102 -0.1560 -0.1792
 2644W        W18905   6.829  18.052   0.558 -0.1640 -0.0320 -0.0266
 2645W        W18906   8.530   5.774   3.608  0.0185 -0.2555  0.1555
 2646W        W18907   9.813   7.339  14.043 -0.0603 -0.3518  0.0356
 2647W        W18908   5.806   1.346  15.246 -0.0178 -0.3285  0.0152
 2648W        W18909   5.644   8.861   5.048  0.1039 -0.0509  0.0945
 2649W        W18910   0.282   1.823  12.874  0.2146  0.1835  0.2121
 2650W        W18911  13.411  17.950   6.069 -0.0904 -0.0236  0.3237
 2651W        W18912  15.530  14.958   3.851  0.1246  0.0675 -0.0079
 2652W        W18913  17.477  14.667   3.954  0.0590 -0.1269 -0.0035
 2653W        W18914  12.009   5.921   1.515  0.0039  0.0938 -0.4980
 2654W        W18915   7.213   8.029  15.027 -0.2333  0.0621 -0.2803
 2655W        W18916   6.181   4.989   2.067 -0.0445 -0.0032  0.1472
 2656W        W18917   5.198  10.730   1.672  0.3349  0.2917 -0.0443
 2657W        W18918  15.873  17.113   0.160  0.1614 -0.1958  0.2292
 2658W        W18919  17.471   0.326   2.098 -0.0531 -0.1507  0.1795
 2659W        W18920  11.205   8.376   2.557  0.2723 -0.2662 -0.0781
 2660W        W18921  11.815  10.027   3.935 -0.2172 -0.0274  0.0139
 2661W        W18922  10.015  12.773   3.971  0.1364  0.3546 -0.0387
 2662W        W18923  15.165   8.994   4.685 -0.0506 -0.1153 -0.1059
 2663W        W18924  16.692  14.505  12.464 -0.0605 -0.0428  0.1147
 2664W        W18925   9.081  10.677  15.111  0.0601  0.1521 -0.2175
 2665W        W18926   2.595   2.922  15.315  0.0492  0.2243  0.0146
 2666W        W18927   2.955   5.813  11.965 -0.0075  0.4387 -0.0428
 2667W        W18928  16.313   4.712   4.055 -0.0439  0.0039  0.1915
 2668W        W18929  15.648  11.630   4.439 -0.3685  0.1551  0.1073
 2669W        W18930   9.398   3.442  12.516 -0.1574  0.3685 -0.0821
 2670W        W18931  15.548   6.331   4.514  0.0934  0.0226  0.2149
 2671W        W18932   5.428   4.151  13.258  0.1608  0.2630 -0.0247
 2672W        W18933   8.416  13.837  15.053  0.0101  0.6221 -0.0300
 2673W        W18934   9.493   9.513  12.072 -0.1097  0.1261 -0.0383
 2674W        W18935   0.661   2.870  15.158 -0.0192 -0.1488  0.2779
 2675W        W18936   9.096  11.413   4.333 -0.1975 -0.2013  0.1775
 2676W        W18937  17.797   2.551  13.733  0.0996 -0.0697 -0.1201
 2677W        W18938   8.719  11.602   4.711  0.0470  0.0908  0.0366
 2678W        W18939  11.134  15.112   0.211 -0.2428  0.1560  0.0194
 2679W        W18940  14.738   4.121   5.632  0.6072  0.0007  0.0209
 2680W        W18941  11.742   7.300  15.711  0.3300 -0.2267  0.0374
 2681W        W18942   4.466   0.859  12.337 -0.1664 -0.0011  0.1518
 2682W        W18943  12.973   2.562   1.389  0.1900  0.1274 -0.0509
 2683W        W18944  15.421  10.181   5.696  0.1682  0.1161 -0.1339
 2684W        W18945   3.732  10.457   4.954  0.2952  0.2998  0.0417
 2685W        W18946  13.136   0.995  15.775 -0.1705  0.2403  0.0557
 2686W        W18947  17.551  14.575  13.582  0.4210 -0.1745  0.1570
 2687W        W18948   5.473  16.467   0.015  0.2096  0.1455 -0.1114
 2688W        W18949  11.555   8.783   2.617 -0.0695 -0.2342 -0.0498
 2689W        W18950   5.474   6.325   2.022 -0.1794 -0.0427 -0.0206
 2690W        W18951   3.738  17.396   4.897  0.0376  0.1115 -0.0759
 2691W        W18952   7.965  16.980  15.657 -0.0890 -0.2746  0.3874
 2692W        W18953   0.735   9.704   3.513  0.0837  0.4409  0.0400
 2693W        W18954   3.182   9.635  15.766  0.0901  0.1183 -0.3571
 2694W        W18955  14.683  14.227  15.424 -0.2251  0.1657  0.1544
 2695W        W18956   7.712   1.681   3.609  0.2345 -0.0390 -0.1426
 2696W        W18957   8.199   5.194  16.135 -0.1430  0.1904 -0.0580
 2697W        W18958  14.290   1.348  13.037 -0.0418 -0.0992 -0.2263
 2698W        W18959   8.569   5.126   1.182  0.2866 -0.1811  0.1856
 2699W        W18960  10.347   4.437   3.898 -0.1244 -0.4125  0.2201
 2700W        W18961   4.657   4.417  13.840  0.1113 -0.0602  0.1298
 2701W        W18962   2.517  17.458  14.929 -0.1878  0.0430 -0.5269
 2702W        W18963   8.884   8.418  16.273 -0.0947  0.0336 -0.3240
 2703W        W18964  15.693  11.029  13.457 -0.2893  0.0893 -0.1352
 2704W        W18965  14.258   9.792  15.314 -0.1640  0.0723 -0.1169
 2705W        W18966  15.181  12.707  15.802 -0.0306  0.1733  0.0049
 2706W        W18967  13.695  17.154  14.818 -0.3224  0.0356 -0.1573
 2707W        W18968  11.961  14.355  16.416 -0.5599  0.0658 -0.1358
 2708W        W18969   2.575  12.056  16.645  0.2624 -0.0656 -0.4510
 2709W        W18970  17.468  16.296  12.927 -0.2192 -0.1920 -0.3229
 2710W        W18971  14.371   2.837   3.491 -0.1041  0.2958  0.1245
 2711W        W18972   8.685  13.773  16.435  0.2060 -0.2658 -0.1147
 2712W        W18973   7.879   7.746   5.509 -0.0314 -0.4210  0.0740
 2713W        W18974   5.158   8.071  15.309 -0.1415 -0.3105 -0.0412
 2714W        W18975  12.753  15.485   2.849  0.0509 -0.0540  0.0020
 2715W        W18976   7.765   4.264  14.526  0.0483  0.1646 -0.0615
 2716W        W18977   6.585   4.225   3.089  0.1672 -0.3949  0.0588
 2717W        W18978   7.237   1.647  16.180 -0.0283 -0.0266  0.0662
 2718W        W18979   6.416   0.480   4.255  0.1873 -0.0721 -0.1166
 2719W        W18980   7.323   9.791  12.836 -0.1415  0.2046 -0.1404
 2720W        W18981   5.217   8.905  15.516  0.0657  0.1350  0.2823
 2721W        W18982  11.281   9.124   1.772  0.0371  0.2675  0.1566
 2722W        W18983   0.684  11.737  14.974 -0.1568 -0.0594  0.1262
 2723W        W18984   2.106   4.249  13.805  0.0003  0.2596  0.0794
 2724W        W18985   7.191   1.074   2.840 -0.1435  0.2248 -0.0844
 2725W        W18986   8.558   0.603  15.243  0.0150  0.0666 -0.0402
 2726W        W18987  12.937  11.274  12.699 -0.2306  0.1711 -0.1629
 2727W        W18988   3.717  12.172  13.189  0.2783  0.2849 -0.1848
 2728W        W18989   6.787  14.278   1.444  0.0602  0.0865  0.2019
 2729W        W18990   8.776   1.543  12.183 -0.1209  0.2009  0.2899
 2730W        W18991   9.175  13.109  13.698 -0.1121 -0.1278 -0.0106
 2731W        W18992   1.928   9.685   5.388  0.0959 -0.0788  0.3029
 2732W        W18993   9.363   8.368   3.253  0.1348 -0.0155 -0.0415
 2733W        W18994  15.091  12.235   0.636 -0.0323 -0.0097 -0.0718
 2734W        W18995   6.624   5.480  13.150  0.1970  0.2123  0.2552
 2735W        W18996  15.078  17.253  14.580  0.2708  0.2056 -0.0045
 2736W        W18997   0.534   5.878  15.180  0.1677 -0.1420 -0.0286
 2737W        W18998   5.057  13.215  13.487  0.2395  0.0040 -0.4529
 2738W        W18999  13.878   8.321  13.681  0.0322  0.3152 -0.0826
 2739W        W19000   9.862   3.661  13.480 -0.3919  0.1303 -0.2161
 2740W        W19001   6.412  14.424  11.617  0.2095  0.1264  0.1225
 2741W        W19002  13.524  14.989  14.496  0.2928  0.1102  0.3578
 2742W        W19003   5.453  10.209   3.402 -0.0101  0.1124  0.2799
 2743W        W19004   5.592   9.540   0.667  0.0037 -0.1139  0.1331
 2744W        W19005   6.370  17.145  13.335  0.1940 -0.5929  0.3737
 2745W        W19006   3.380   9.715  14.685 -0.1420 -0.1275  0.1228
 2746W        W19007  12.035   9.103   4.112 -0.0240 -0.2695 -0.1806
 2747W        W19008  16.661   4.350   4.189  0.0111  0.0842 -0.1598
 2748W        W19009  14.226  14.823  14.191  0.3181 -0.0822 -0.1918
 2749W        W19010   3.764   4.360   2.273  0.0547 -0.5119  0.0860
 2750W        W19011   1.790  18.041   2.998  0.2589  0.2856  0.1571
 2751W        W19012   5.830  10.524   3.304 -0.1185  0.1669  0.0379
 2752W        W19013   0.376   4.573   5.442 -0.0304 -0.1962 -0.1029
 2753W        W19014  12.672   8.116   5.673 -0.1026  0.0309 -0.1831
 2754W        W19015  10.638  17.003   4.431  0.0328  0.1942 -0.0839
 2755W        W19016  13.110   0.618  15.466  0.0769  0.0079  0.1665
 2756W        W19017   2.503   7.265  14.889 -0.2750 -0.0330  0.0837
 2757W        W19018   1.060   8.770   4.271  0.2685  0.1502  0.0827
 2758W        W19019   0.745  11.774   0.634 -0.1975 -0.0128  0.0623
 2759W        W19020   1.902  14.982   3.066 -0.0655  0.3341  0.1537
 2760W        W19021  10.187   2.428  11.216  0.1285 -0.0005  0.1173
 2761W        W19022  14.811   7.252   1.920  0.1361  0.3659  0.2528
 2762W        W19023  15.258   4.398   4.833  0.3959  0.1392  0.1452
 2763W        W19024   4.515  13.261  16.590 -0.0232 -0.2494 -0.0420
 2764W        W19025  14.916   2.313  15.464 -0.3823  0.1127  0.0790
 2765W        W19026  17.789   4.090   2.600 -0.2269 -0.1178 -0.1638
 2766W        W19027   5.612   6.480  12.651 -0.1198 -0.2834  0.0528
 2767W        W19028   8.813  13.802   1.649 -0.1155  0.4162 -0.1942
 2768W        W19029  16.505   4.403   3.713 -0.0049  0.3951  0.0184
 2769W        W19030  15.262  11.953  16.534 -0.1834  0.1649  0.1946
 2770W        W19031  17.139   0.565  14.851 -0.2400 -0.1373  0.0095
 2771W        W19032   6.941  15.218   3.429  0.1233  0.0246  0.2761
 2772W        W19033   2.826  14.189   0.648  0.0518  0.0856 -0.0436
 2773W        W19034   9.015   5.574   3.494 -0.2900 -0.2948 -0.1395
 2774W        W19035  12.930  15.632   4.301 -0.2846  0.0387 -0.1131
 2775W        W19036  12.114  11.693   4.780 -0.1445  0.2388 -0.1329
 2776W        W19037  15.179   8.882  11.800  0.0901 -0.3710 -0.2404
 2777W        W19038   9.217   7.670   5.780  0.0090  0.2029 -0.1201
 2778W        W19039  13.481  14.907   3.631 -0.2059 -0.0925 -0.4161
 2779W        W19040   7.236  15.579   3.637  0.0829  0.3175  0.2453
 2780W        W19041   1.771   0.636  14.657 -0.0370  0.3080 -0.0957
 2781W        W19042   6.828  12.085   0.142  0.1693  0.2164  0.1304
 2782W        W19043   6.721   8.088   1.240  0.4871  0.1792 -0.2261
 2783W        W19044  15.942  17.275   5.267 -0.1897 -0.4976 -0.0792
 2784W        W19045  13.189  14.553  16.539 -0.1946 -0.3082  0.2483
 2785W        W19046  15.112  17.254  15.534 -0.1739 -0.0517  0.0571
 2786W        W19047   9.556   1.424   3.279 -0.3024  0.1835 -0.0317
 2787W        W19048  14.267  14.004   0.538 -0.2646 -0.1250 -0.2396
 2788W        W19049   0.389   7.959   3.454  0.1156  0.3786 -0.0336
 2789W        W19050  12.922   6.328  10.576  0.1927 -0.0222 -0.3599
 2790W        W19051  14.102  11.013  16.079  0.2195 -0.0530  0.2108
 2791W        W19052  14.049  15.241  12.734 -0.1953 -0.0929 -0.1865
 2792W        W19053   4.751   9.373   2.807 -0.0793 -0.0827 -0.2798
 2793W        W19054   4.716   7.930  12.199  0.0855  0.0024  0.1098
 2794W        W19055   0.717  15.231   4.581  0.0662 -0.6169 -0.3172
 2795W        W19056   7.243  14.028   1.461  0.0265 -0.4229  0.0138
 2796W        W19057  16.567   4.556   5.553 -0.0222 -0.0069 -0.0592
 2797W        W19058   8.647   2.302   3.059 -0.1200 -0.2179  0.0304
 2798W        W19059   1.206  17.564   4.393 -0.1258  0.2125  0.1540
 2799W        W19060   2.362   2.340  13.059 -0.2177 -0.3144  0.0039
 2800W        W19061  10.299  13.105  15.589  0.1147 -0.0579  0.2242
 2801W        W19062  15.071  14.959  16.257  0.0941  0.2564 -0.0900
 2802W        W19063   1.157   8.798  11.905 -0.0624  0.1149 -0.2606
 2803W        W19064   6.286   8.592   1.276 -0.1979  0.0410  0.1542
 2804W        W19065   1.923  17.526  12.276 -0.0668 -0.0355  0.3050
 2805W        W19066   4.607  14.842  12.441 -0.0735  0.0372 -0.0445
 2806W        W19067  13.026  17.761   4.842 -0.2514 -0.0724 -0.1958
 2807W        W19068  13.128  16.861   0.776  0.2371 -0.0693 -0.0157
 2808W        W19069  15.826   9.364   2.114  0.0631  0.1507 -0.1315
 2809W        W19070  16.594   7.024   1.929 -0.0479 -0.1461  0.1114
 2810W        W19071   3.103  12.856   4.273 -0.2195  0.1091 -0.0191
 2811W        W19072  11.758   8.003   4.661  0.1359 -0.1789 -0.2670
 2812W        W19073   7.758   1.308   1.997 -0.2040  0.1126 -0.3191
 2813W        W19074   4.009   3.635  14.551 -0.0477 -0.2347  0.2372
 2814W        W19075  11.081  12.078  12.431 -0.2942 -0.3212 -0.3156
 2815W        W19076   2.915  13.423  13.132 -0.0734  0.1710 -0.6595
 2816W        W19077  12.935   1.770   3.365 -0.1447  0.1147 -0.2052
 2817W        W19078  14.213  11.140  12.337 -0.0161 -0.4066 -0.2306
 2818W        W19079  14.153   5.541  15.853  0.1516 -0.2054  0.3561
 2819W        W19080  18.096   1.818  11.923  0.4140 -0.0493  0.3621
 2820W        W19081   5.377   0.605   4.868 -0.2464 -0.1729  0.2373
 2821W        W19082   1.107   7.974   0.120  0.0711 -0.1380 -0.1421
 2822W        W19083   7.018   9.788   5.674 -0.1146 -0.0448  0.0188
 2823W        W19084  11.445   9.290  16.065  0.0817  0.2707 -0.0237
 2824W        W19085   3.708   7.366  12.475  0.0789  0.2211  0.2455
 2825W        W19086   3.474  11.863  14.753 -0.3098 -0.1266  0.1621
 2826W        W19087  12.571  12.557  15.128 -0.2229  0.1781  0.5073
 2827W        W19088  16.483   9.375  12.377  0.1189  0.2696  0.0528
 2828W        W19089   4.731  17.679   1.168  0.0436 -0.1978 -0.3534
 2829W        W19090  10.733   0.930  14.258  0.1210 -0.0837  0.2275
 2830W        W19091  11.344  16.417   5.776  0.0747 -0.0413  0.1874
 2831W        W19092  17.831   2.195  15.897 -0.1075  0.2655 -0.1634
 2832W        W19093  16.855  12.839  14.054 -0.2823 -0.0031 -0.3362
 2833W        W19094  17.885  14.897  15.657  0.0520  0.3947  0.1376
 2834W        W19095  10.555  15.798  14.784  0.0072  0.1295  0.1550
 2835W        W19096  16.904   9.832  11.471 -0.2098 -0.0294  0.1809
 2836W        W19097   2.935  10.183   3.816 -0.0052 -0.4876  0.0376
 2837W        W19098  11.196   9.115  13.532 -0.2459  0.0218  0.2117
 2838W        W19099  13.170   5.987  11.974 -0.3562 -0.0799 -0.0018
 2839W        W19100  14.448  17.540  13.225 -0.1062 -0.2504 -0.1360
 2840W        W19101   8.215  11.217  16.059  0.0715 -0.0537  0.1961
 2841W        W19102  14.129   6.870   2.656 -0.0533 -0.0535  0.0808
 2842W        W19103  17.304   5.020   3.301 -0.1032  0.0362 -0.1522
 2843W        W19104   5.109   3.729  13.930 -0.0894 -0.1245  0.1220
 2844W        W19105   9.743   4.907  16.561 -0.0237  0.1229 -0.3004
 2845W        W19106  13.803  11.435   1.897 -0.3156 -0.0796  0.1039
 2846W        W19107  10.541   8.262   1.942 -0.0424 -0.1840 -0.2567
 2847W        W19108   3.885   1.058   3.089  0.2244 -0.3609  0.3913
 2848W        W19109  10.262   1.741   0.674 -0.3893  0.1659 -0.4544
 2849W        W19110   2.093   6.283  14.358  0.0025  0.0883  0.0446
 2850W        W19111   6.003  17.012  15.169  0.1392 -0.1395  0.2597
 2851W        W19112   7.673  10.920   5.185  0.2413  0.0147  0.1651
 2852W        W19113   6.220   9.111   3.242  0.2311 -0.0866  0.0013
 2853W        W19114  12.897   0.982   2.178 -0.0117 -0.2004 -0.0342
 2854W        W19115  13.189   0.419   5.051  0.0966  0.2363 -0.0555
 2855W        W19116  12.957   5.622   0.619 -0.1316  0.0963 -0.0928
 2856W        W19117   9.266   7.600  14.252  0.0470 -0.0866 -0.0869
 2857W        W19118  15.475   3.925  15.829  0.3423 -0.0192  0.1170
 2858W        W19119   8.283  11.511   3.324 -0.1967 -0.0391  0.1786
 2859W        W19120   3.145   6.142  12.749 -0.1207  0.2139  0.0326
 2860W        W19121   8.048  12.209  12.691  0.2731  0.0330 -0.1186
 2861W        W19122   3.215   9.594  13.780 -0.0572  0.1249  0.0117
 2862W        W19123   1.029   9.059   5.213  0.1099 -0.1431 -0.0080
 2863W        W19124   6.914   3.516   6.575  0.0740  0.1754  0.2158
 2864W        W19125   6.175  11.870   2.182  0.0439  0.0497 -0.2215
 2865W        W19126  12.818  10.643   4.874 -0.0610 -0.1401 -0.0607
 2866W        W19127  15.737   1.052  12.304 -0.0357  0.1233  0.3908
 2867W        W19128   3.696   6.439  12.838  0.1110  0.1237  0.1053
 2868W        W19129   9.598   2.659   5.272  0.2279  0.0196  0.2974
 2869W        W19130   6.895  13.728   3.825  0.1871  0.0775  0.1917
 2870W        W19131  12.977   4.567  12.023  0.1199 -0.0656  0.0416
 2871W        W19132  11.797  17.227  11.334 -0.2858  0.0773 -0.0713
 2872W        W19133   8.943   4.979  14.095  0.1936  0.0719 -0.0633
 2873W        W19134   2.343   0.401   5.945 -0.0845 -0.1779 -0.0832
 2874W        W19135  17.599  15.105   3.083 -0.0848  0.0883 -0.0334
 2875W        W19136   8.976   8.287   4.092 -0.1554 -0.1483 -0.2768
 2876W        W19137   4.831   2.321   2.621 -0.0146  0.0518  0.0069
 2877W        W19138   3.100  11.467  14.866 -0.0773 -0.1180  0.1118
 2878W        W19139   1.959   3.467   4.775  0.1378 -0.3011  0.0510
 2879W        W19140  16.734   2.076   3.513 -0.4041 -0.2696 -0.0285
 2880W        W19141   2.376  13.566   0.097 -0.0074 -0.2914 -0.0090
 2881W        W19142   1.779  16.282   3.791 -0.0979 -0.0268 -0.1189
 2882W        W19143   6.069   3.232  16.563 -0.0033  0.2275  0.1279
 2883W        W19144  14.065   1.353  15.714  0.0118 -0.0426 -0.0908
 2884W        W19145  17.079  17.961   4.112 -0.1078 -0.0693 -0.0371
 2885W        W19146   5.400  10.195   2.451 -0.1393 -0.0452 -0.1093
 2886W        W19147   6.427  12.945   5.524 -0.1623  0.1708 -0.0304
 2887W        W19148   9.995   3.366  11.400 -0.1371 -0.0801  0.0822
 2888W        W19149  12.888  13.928   1.150 -0.3311  0.0732 -0.0255
 2889W        W19150  16.398   8.615   0.764 -0.0836 -0.0664  0.0860
 2890W        W19151   1.255  16.648  16.476  0.0347  0.2048 -0.2480
 2891W        W19152   4.935   5.758  12.607  0.2407 -0.1958 -0.2299
 2892W        W19153   4.429  17.052   2.777 -0.1686 -0.1473  0.1098
 2893W        W19154   1.207   8.945   3.820 -0.1777 -0.0186 -0.0360
 2894W        W19155  15.834  12.181  16.354  0.1012  0.1168 -0.3253
 2895W        W19156  11.007   9.807  12.397 -0.1158  0.5940  0.1633
 2896W        W19157  11.157  13.982   4.671 -0.0441  0.2305  0.0691
 2897W        W19158  10.880   5.099  12.201  0.0743 -0.3591  0.0483
 2898W        W19159   3.918  12.109   2.728  0.2454 -0.3181 -0.0900
 2899W        W19160   0.751  16.643   1.094  0.1495  0.0214  0.3377
 2900W        W19161   5.537  10.186  14.490 -0.0525  0.1101 -0.0090
 2901W        W19162   6.293  10.982  12.846  0.0426 -0.0741 -0.1888
 2902W        W19163   0.852   0.146   0.568  0.0690 -0.0854 -0.0105
 2903W        W19164  14.833   7.267   5.859  0.0821 -0.0748  0.2049
 2904W        W19165   0.022   4.671   3.342 -0.0328  0.1631 -0.1901
 2905W        W19166  15.299  15.150  11.922  0.0110 -0.0424  0.5715
 2906W        W19167   6.070   7.383  16.209 -0.1845  0.0224  0.1952
 2907W        W19168  15.028  13.353  14.214  0.1757 -0.1268 -0.3269
 2908W        W19169   0.760  15.265  11.287 -0.0305 -0.1892 -0.3161
 2909W        W19170   5.907   7.269   4.243  0.0620 -0.0297 -0.0900
 2910W        W19171   7.615  16.253   0.980  0.0066  0.1545  0.2310
 2911W        W19172  13.309   5.780  15.942 -0.0690  0.0172 -0.0488
 2912W        W19173   3.330   9.599  11.895  0.0397  0.1897  0.2429
 2913W        W19174   8.322  10.981  14.005 -0.0814 -0.0180 -0.1654
 2914W        W19175  10.180  12.662  14.703 -0.0374  0.1616  0.0100
 2915W        W19176   0.019   4.566   4.424 -0.2594 -0.0009 -0.4868
 2916W        W19177  16.140   0.877   5.779  0.0279 -0.0913 -0.1405
 2917W        W19178  15.220   1.387  13.092  0.2635  0.2382 -0.2740
 2918W        W19179  10.598   4.908  13.646 -0.0492  0.1569  0.1502
 2919W        W19180  14.609   0.231   3.842 -0.1365  0.1572 -0.0595
 2920W        W19181   2.868  15.180   1.761 -0.0679  0.1760  0.1418
 2921W        W19182   7.455   8.577  12.580  0.2087  0.1738  0.0429
 2922W        W19183   9.000  13.741  15.329  0.3832  0.0125  0.0031
 2923W        W19184   1.261  17.220   2.963 -0.1221 -0.4365  0.0678
 2924W        W19185  10.252  17.091  16.000  0.1395 -0.3520  0.1182
 2925W        W19186   2.417   1.374  13.470 -0.5465  0.0884 -0.2934
 2926W        W19187   9.496  14.538  15.039 -0.1989 -0.3049  0.1663
 2927W        W19188  16.646  10.984  14.531 -0.1302 -0.0400  0.1770
 2928W        W19189   4.876   6.991   1.700 -0.1775  0.0996 -0.0104
 2929W        W19190   6.230  13.311   1.778 -0.2361 -0.4016 -0.0049
 2930W        W19191  11.840   1.090  11.293  0.0551  0.2136  0.1423
 2931W        W19192   9.117  17.720   2.464 -0.0868  0.0574  0.0531
 2932W        W19193   5.235  15.829   3.243 -0.1086 -0.4165  0.0206
 2933W        W19194   7.958   1.378   3.312 -0.1242 -0.1718  0.1892
 2934W        W19195   1.835  12.349  15.964  0.3069 -0.1996 -0.0728
 2935W        W19196  14.834   1.206   1.126  0.2250  0.3924 -0.1318
 2936W        W19197   2.104   7.968   2.774 -0.2741  0.1271  0.1610
 2937W        W19198   4.165   8.575  14.484  0.0648 -0.0079 -0.2409
 2938W        W19199  16.495  12.230   0.456  0.2601 -0.0451 -0.1273
 2939W        W19200  16.888   3.306  13.954 -0.2239  0.0150 -0.0062
 2940W        W19201   9.424  14.000  15.066  0.1721 -0.0431  0.3347
 2941W        W19202  11.094   1.706   0.754  0.0930 -0.1386 -0.2139
 2942W        W19203  16.990  17.519   0.999 -0.1147 -0.0737  0.1698
 2943W        W19204  16.651   7.494   1.570  0.1754 -0.1983 -0.0234
 2944W        W19205   5.516   8.226  14.182  0.1071  0.0332 -0.0715
 2945W        W19206  14.784   7.430   2.946  0.0166 -0.3324 -0.1885
 2946W        W19207   6.776  13.486  15.251 -0.1163 -0.1736  0.2394
 2947W        W19208  16.935   9.797   0.280 -0.0929  0.1418 -0.2450
 2948W        W19209   4.910  13.859  15.713 -0.0711 -0.2190 -0.0967
 2949W        W19210   8.938  16.294   5.728 -0.0534  0.0159 -0.1116
 2950W        W19211   5.570   8.249  10.737  0.1797  0.0434  0.1938
 2951W        W19212  10.292  12.961  15.067  0.4091 -0.4520  0.2057
 2952W        W19213   1.150   9.658   4.518  0.1602  0.0496  0.2301
 2953W        W19214   6.602   5.379  10.892  0.4511 -0.0370 -0.1733
 2954W        W19215  14.363   1.348  12.467 -0.0583 -0.2163  0.2402
 2955W        W19216  16.485  15.764  16.464 -0.0041 -0.0680 -0.3699
 2956W        W19217   1.903   3.661  15.320  0.2562 -0.0849 -0.0654
 2957W        W19218  16.410  14.137  15.189  0.2351 -0.0995 -0.0716
 2958W        W19219  14.806   3.649  12.793 -0.2964  0.0339 -0.3954
 2959W        W19220   9.874  15.696  16.370 -0.0694  0.0062  0.0843
 2960W        W19221   4.938  15.472   2.425  0.1928 -0.3542  0.0139
 2961W        W19222   9.866   5.775   1.498 -0.3321 -0.2655  0.0861
 2962W        W19223  11.240  10.103  14.446 -0.1862  0.2423  0.3941
 2963W        W19224  13.331  17.512  12.730  0.2957  0.1088 -0.3176
 2964W        W19225  17.932   6.533   5.138 -0.0679  0.0665  0.1114
 2965W        W19226   5.513   8.978  13.226 -0.0377 -0.0304 -0.0398
 2966W        W19227   1.998   7.967   4.266 -0.0577 -0.1646  0.0937
 2967W        W19228   8.790   3.660  11.467 -0.0545 -0.1470 -0.1069
 2968W        W19229  11.011   7.633   5.236  0.2541 -0.0053 -0.2582
 2969W        W19230   2.860  11.120   1.717  0.1013 -0.1508  0.0011
 2970W        W19231  14.226  17.386   4.111  0.1581  0.0189  0.0106
 2971W        W19232  17.235   9.657  12.883 -0.0705  0.0650 -0.0419
 2972W        W19233   1.040  15.508   5.829 -0.1152 -0.3276  0.1811
 2973W        W19234  16.435   1.088   3.288 -0.0078 -0.3520  0.0554
 2974W        W19235  17.833  13.713  14.743 -0.0187 -0.1731  0.0032
 2975W        W19236  16.290   0.097   1.346 -0.0090  0.1364  0.1589
 2976W        W19237  10.298   8.601   0.950  0.0482 -0.1379 -0.1261
 2977W        W19238   2.369  11.486   0.493 -0.3020  0.1232 -0.0050
 2978W        W19239   2.054  12.159   5.087  0.1306  0.2373  0.3786
 2979W        W19240  12.621   8.035  13.170  0.2117  0.2312 -0.1434
 2980W        W19241   8.466   8.464   1.625  0.1093  0.1584 -0.2425
 2981W        W19242  16.043  12.839   4.867 -0.2888 -0.0078 -0.0804
 2982W        W19243   2.486   9.184  16.183  0.1071 -0.0127 -0.0802
 2983W        W19244   8.447   6.944   3.340 -0.1344  0.2028 -0.2329
 2984W        W19245  16.516   3.639   2.898 -0.0579 -0.2734  0.0887
 2985W        W19246  17.869   8.109  11.527 -0.4416 -0.0306 -0.1666
 2986W        W19247  13.987  16.984  12.753  0.0492  0.2350 -0.1530
 2987W        W19248  17.942  16.364   0.294 -0.0572 -0.3223 -0.1915
 2988W        W19249  15.192   7.239   3.909  0.0183  0.1300  0.1341
 2989W        W19250   8.204   2.290  16.590 -0.0820 -0.0354  0.3941
 2990W        W19251   6.281   8.301  13.032  0.2463  0.0067 -0.0029
 2991W        W19252   5.084  13.659   1.299  0.0558 -0.1131  0.0939
 2992W        W19253   3.668   3.079  16.137 -0.2728 -0.0499 -0.3349
 2993W        W19254   8.256   8.898   2.710 -0.0850  0.1071 -0.0978
 2994W        W19255  17.771  18.014   4.377  0.3000  0.0088  0.3002
 2995W        W19256  11.324  12.484   2.430 -0.2703 -0.0609  0.4855
 2996W        W19257  14.363  16.803   3.022 -0.2011 -0.2181 -0.1759
 2997W        W19258   4.569   8.906  12.267  0.1505 -0.0724 -0.0899
 2998W        W19259   7.177   5.737  12.527  0.1136  0.1772 -0.1402
 2999W        W19260   7.457   3.427  14.910  0.1650  0.0798  0.0316
 3000W        W19261  16.513  15.419   5.658 -0.2773 -0.0403  0.1470
 3001W        W19262   5.019   5.472  11.082  0.0479  0.0702  0.2812
 3002W        W19263  16.909  17.628   0.509 -0.1458 -0.3398  0.0267
 3003W        W19264  14.921   3.990  11.379  0.0234 -0.0527  0.0964
 3004W        W19265  17.597   7.866  12.733  0.0074  0.0245 -0.1859
 3005W        W19266  13.072  15.408   3.207 -0.0436 -0.3712  0.2848
 3006W        W19267   7.372  17.310  15.973  0.0077 -0.1282 -0.1571
 3007W        W19268   5.545  13.229  13.845 -0.1382 -0.1085 -0.3389
 3008W        W19269  17.879   0.492  12.676 -0.1398 -0.1197  0.2616
 3009W        W19270   0.198   6.363   4.848  0.2691 -0.3761  0.2669
 3010W        W19271   6.868   7.383  13.004  0.0088 -0.0680  0.0615
 3011W        W19272  12.519  15.250   1.911 -0.2438 -0.1509 -0.4013
 3012W        W19273  13.410  16.468   4.527  0.1478  0.1840 -0.2460
 3013W        W19274   3.801   6.761  15.122 -0.3986  0.1076  0.0126
 3014W        W19275   0.082  11.269  12.575  0.2894 -0.1431 -0.0188
 3015W        W19276   9.054   8.122   4.935  0.0417  0.0873 -0.1017
 3016W        W19277   1.530   1.338  13.475 -0.0547 -0.0499 -0.2989
 3017W        W19278   0.788   7.910  13.442  0.4655 -0.0572  0.0217
 3018W        W19279  17.024   2.966   0.978 -0.0173  0.1061 -0.3837
 3019W        W19280   6.282   0.934   3.667 -0.0249 -0.2609  0.1587
 3020W        W19281  15.487   3.197  11.110  0.1158  0.0090  0.0843
 3021W        W19282  15.777  17.340  11.488 -0.0538 -0.0276 -0.0466
 3022W        W19283   3.578   0.333   3.596 -0.1942 -0.3048 -0.0803
 3023W        W19284  11.025   7.577   1.677  0.2424  0.0967 -0.1888
 3024W        W19285   3.978   7.773  14.044 -0.0738 -0.1543  0.2796
 3025W        W19286   8.065   8.443  14.097  0.2455  0.1327  0.0327
 3026W        W19287   6.093   9.256  14.944  0.0033  0.2821 -0.1871
 3027W        W19288  15.865   1.338   0.992 -0.1490 -0.1346  0.2236
 3028W        W19289   2.609  17.287   3.438  0.2204  0.4027 -0.2151
 3029W        W19290  10.103   4.558   2.896  0.1295  0.1229 -0.1553
 3030W        W19291   5.027   5.020  11.738 -0.2283 -0.1393 -0.0037
 3031W        W19292  14.143   2.034   2.153  0.0738  0.1069  0.1108
 3032W        W19293  15.330  10.479  16.326 -0.2807 -0.2602  0.0774
 3033W        W19294  13.538   2.415   3.975  0.3093  0.0989  0.1002
 3034W        W19295  10.291   0.565   2.580  0.1345 -0.0648  0.2901
 3035W        W19296   7.812   4.562  11.339  0.0891  0.0552 -0.0349
 3036W        W19297   4.875  10.080   0.068  0.0260 -0.2987  0.0714
 3037W        W19298  13.435   8.063   0.293  0.0189  0.0582  0.0613
 3038W        W19299  13.568  14.875  16.435  0.1721 -0.2527 -0.1563
 3039W        W19300  16.959  17.911  14.335  0.0500  0.1277 -0.2532
 3040W        W19301  10.786   0.938  16.487 -0.1183  0.2546  0.0086
 3041W        W19302   0.049   6.816  12.798  0.1723  0.1869 -0.3936
 3042W        W19303   9.231   2.749  15.188  0.0041  0.0111  0.2255
 3043W        W19304   8.394  11.837  14.542  0.0237  0.2838  0.0965
 3044W        W19305   9.888  17.932   0.571  0.0622  0.0536  0.0271
 3045W        W19306   2.842   3.563  12.889 -0.0992  0.0029  0.1318
 3046W        W19307   1.814   6.101   4.104  0.0477  0.1815 -0.2530
 3047W        W19308  18.082  16.916  14.600  0.0295  0.5619  0.0433
 3048W        W19309   7.838   7.931   2.889  0.1571  0.4683 -0.0916
 3049W        W19310   8.532   1.509   0.995  0.1446  0.2873  0.2931
 3050W        W19311  17.690   0.522  14.067  0.1177 -0.1064  0.2459
 3051W        W19312  17.662   6.456  11.966 -0.0169  0.3318  0.1379
 3052W        W19313   1.358   9.795  14.883  0.1797  0.3407 -0.0885
 3053W        W19314  15.754   0.436   2.155  0.0054 -0.1718  0.0607
 3054W        W19315  12.745   8.080  11.854 -0.1007 -0.0798 -0.0266
 3055W        W19316   2.768  10.147  11.964  0.1703  0.0837 -0.0578
 3056W        W19317  15.189  12.616   5.172 -0.0709 -0.0225  0.3178
 3057W        W19318   2.601  10.564   4.008 -0.2178  0.0491 -0.3946
 3058W        W19319   9.535  11.642  11.171  0.0715 -0.2193 -0.0859
 3059W        W19320   7.674  16.818   0.939 -0.0005  0.1858  0.1713
 3060W        W19321  16.127   7.464   5.552  0.0485  0.1519 -0.0936
 3061W        W19322  14.612   6.129  14.590  0.1071 -0.0536 -0.0656
 3062W        W19323  17.078  16.653   3.687  0.2525  0.2178 -0.1061
 3063W        W19324  13.869  10.564   3.078  0.2266 -0.0003  0.0862
 3064W        W19325  18.151   3.529   1.215 -0.2688 -0.1273 -0.1896
 3065W        W19326   2.697  11.466  15.132 -0.2684  0.1890  0.1975
 3066W        W19327   8.348  12.574   5.665  0.2080  0.2580  0.0284
 3067W        W19328   1.211   5.322   0.427  0.1059  0.1685 -0.0729
 3068W        W19329  17.487   0.131  15.558  0.1454 -0.1221  0.2528
 3069W        W19330   2.355   8.399   4.595 -0.0274 -0.0004 -0.1080
 3070W        W19331   0.572   4.739   4.551  0.4695  0.0152 -0.0979
 3071W        W19332  12.370   6.552  14.264 -0.0297  0.0969 -0.1803
 3072W        W19333   1.415   8.539   2.629 -0.1433  0.0709 -0.1346
 3073W        W19334  11.321   8.126   2.981  0.0441  0.0572 -0.3662
 3074W        W19335   8.078  17.551   4.822 -0.0397  0.0947  0.0855
 3075W        W19336  18.003  15.172   0.226  0.1867  0.0364 -0.0229
 3076W        W19337   6.970   3.882   1.684  0.0270 -0.0556  0.0600
 3077W        W19338   8.293   8.130   4.753  0.0842 -0.2715  0.2517
 3078W        W19339   2.546   6.265  15.941 -0.0305  0.2716 -0.4590
 3079W        W19340   0.572  15.248   2.196 -0.0583 -0.1387  0.4120
 3080W        W19341   6.626   2.337   2.821  0.0307 -0.1835  0.0478
 3081W        W19342  12.658   3.525   0.948 -0.0112  0.0627 -0.4682
 3082W        W19343  17.560  13.561  10.605  0.1996  0.0635 -0.3071
 3083W        W19344  14.018  13.101   3.187  0.1216  0.1022  0.0746
 3084W        W19345   5.947   4.205  12.229  0.2198  0.0762  0.3467
 3085W        W19346   1.203   5.972  13.978  0.1372 -0.0726 -0.2013
 3086W        W19347  13.643  12.620  12.252 -0.0264 -0.2548  0.1541
 3087W        W19348   7.724  13.249   0.742  0.0674 -0.1921  0.1899
 3088W        W19349   1.535   5.883   1.006 -0.1607  0.2289 -0.0462
 3089W        W19350   4.060   5.298   4.797  0.2471 -0.1442  0.0270
 3090W        W19351  13.502   6.981  13.072  0.2877  0.3944 -0.1144
 3091W        W19352   3.732  10.247  14.109 -0.1929  0.4693 -0.2213
 3092W        W19353  10.249   1.413  11.154 -0.0240  0.1211 -0.0144
 3093W        W19354   2.570   5.445  14.076 -0.1901 -0.0611  0.0165
 3094W        W19355  12.867   2.497  15.041  0.1477  0.0793 -0.0893
 3095W        W19356   7.781   5.378   2.215 -0.2149  0.1885  0.3401
 3096W        W19357  12.735  13.755   4.854 -0.2287 -0.1447 -0.0709
 3097W        W19358  11.888   8.336   5.042  0.1544 -0.0289  0.0828
 3098W        W19359   7.115  14.782   1.929  0.1896  0.1350 -0.3328
 3099W        W19360   9.895  13.265  15.318  0.2996 -0.1410 -0.3278
 3100W        W19361   0.547   4.241  13.750 -0.1241  0.0062  0.1613
 3101W        W19362  12.397  12.460  15.593 -0.4074 -0.2457 -0.3955
 3102W        W19363   4.552   2.872   0.020 -0.1755  0.0564  0.1370
 3103W        W19364   0.051   6.715  14.372  0.2466  0.2392  0.0053
 3104W        W19365   5.347   9.917  15.090 -0.2565  0.1116  0.0554
 3105W        W19366   9.393  17.682   5.107 -0.1987  0.0452 -0.0736
 3106W        W19367   3.144   3.900   1.640  0.0309  0.1460 -0.1856
 3107W        W19368   8.365   6.953   1.913 -0.0741  0.0863  0.4026
 3108W        W19369  14.410  12.611   2.176  0.3553 -0.0575 -0.2464
 3109W        W19370  13.983  14.581  16.164 -0.2142 -0.0597 -0.1133
 3110W        W19371  10.660  14.128  14.745 -0.0415  0.0827 -0.0357
 3111W        W19372   9.250  16.886   2.306 -0.0347  0.1579  0.0451
 3112W        W19373   5.741   2.081   4.468 -0.0565 -0.1062 -0.1081
 3113W        W19374  10.758   8.083  11.870 -0.2651 -0.1780  0.0199
 3114W        W19375   4.240   6.603  15.293  0.2786 -0.1224 -0.1326
 3115W        W19376   9.196   6.598  12.332 -0.0730 -0.0736 -0.0139
 3116W        W19377  11.183  12.973   3.355  0.3032  0.2017 -0.4442
 3117W        W19378   1.721   0.805   5.556 -0.0582  0.2530  0.2005
 3118W        W19379  12.063  11.856  11.597 -0.1560 -0.2179  0.0790
 3119W        W19380  15.197   7.837  12.472  0.1827  0.1015  0.0838
 3120W        W19381   2.693   1.623  14.704 -0.0097 -0.1600 -0.1392
 3121W        W19382  16.815   1.626   2.076 -0.0925  0.1164 -0.0944
 3122W        W19383  10.415   4.622   5.283  0.1011 -0.0701 -0.1530
 3123W        W19384  17.520   4.003   3.609  0.0045 -0.0630 -0.1997
 3124W        W19385  18.163   6.464  13.760  0.2457 -0.0828 -0.0833
 3125W        W19386  10.125  15.252   4.537 -0.1580 -0.0651  0.0641
 3126W        W19387  11.279   6.101  13.832 -0.1321 -0.0303 -0.1372
 3127W        W19388   9.661   4.656   1.542 -0.2195 -0.1357 -0.2297
 3128W        W19389  12.906   9.802  11.681 -0.0976 -0.0838 -0.0496
 3129W        W19390   4.581   7.087   4.506  0.0746  0.1752  0.2835
 3130W        W19391   9.326   4.418   5.835 -0.0660  0.1461  0.1688
 3131W        W19392  12.454   9.649  12.989  0.1216  0.0035 -0.1049
 3132W        W19393   6.061   2.721   3.369 -0.0883  0.4396  0.1841
 3133W        W19394  15.796  10.569  16.296 -0.1728 -0.0399  0.0765
 3134W        W19395   3.581  17.824  13.209 -0.1850  0.1543  0.3826
 3135W        W19396   5.842  15.292  16.401  0.2105 -0.1357  0.1372
 3136W        W19397   1.221   5.719  11.814  0.1083 -0.2562 -0.2170
 3137W        W19398   0.967  14.884   5.301  0.0902 -0.0756  0.3302
 3138W        W19399  15.195   5.476   5.764  0.0354  0.1271 -0.0166
 3139W        W19400   5.271   0.659  13.034 -0.0369 -0.0205 -0.1842
 3140W        W19401  14.707  16.935  14.307 -0.1036 -0.1187 -0.3081
 3141W        W19402  11.030   7.715  11.474 -0.1291 -0.4013 -0.0545
 3142W        W19403  10.121  11.808  12.922 -0.2724  0.0607 -0.1565
 3143W        W19404  15.931  10.884  15.880  0.0109 -0.0865  0.0948
 3144W        W19405   1.309   3.285   0.808 -0.2227  0.1157  0.1086
 3145W        W19406   7.331   4.056  13.733  0.2187 -0.0246  0.0303
 3146W        W19407  11.863   3.746  13.978 -0.1413  0.0787  0.0304
 3147W        W19408  10.782  12.560  13.296 -0.1784 -0.1778  0.2335
 3148W        W19409  15.515   4.385   2.796 -0.1426  0.0651  0.0797
 3149W        W19410   5.545  10.073   4.801 -0.1699 -0.3887 -0.2951
 3150W        W19411   5.833  10.171  15.589  0.1619 -0.0103  0.1915
 3151W        W19412   4.254  14.997   4.610  0.2604 -0.2459  0.2016
 3152W        W19413   2.267   5.168  14.934 -0.1776  0.0994 -0.0586
 3153W        W19414   7.092  15.563  15.824 -0.1457 -0.0555 -0.0626
 3154W        W19415  13.175   5.981   4.978 -0.0899  0.2680 -0.1439
 3155W        W19416  16.174   1.913   1.501  0.0098 -0.1540 -0.0882
 3156W        W19417  16.162   9.033  12.685 -0.0628 -0.2412  0.3099
 3157W        W19418  12.921  14.338   2.029 -0.0362 -0.1033 -0.3868
 3158W        W19419  13.023   5.979   1.939  0.1401  0.1317 -0.0650
 3159W        W19420  15.253  10.953  14.182 -0.0840 -0.1572  0.0990
 3160W        W19421   6.638   7.592  15.686  0.4313  0.0379 -0.0892
 3161W        W19422  14.560   2.093   1.778  0.0054  0.2506 -0.1144
 3162W        W19423  12.264  15.002  13.364  0.0433  0.0864  0.2326
 3163W        W19424  11.738   0.847  16.265 -0.0418  0.1113  0.3030
 3164W        W19425   6.643  14.154  11.300  0.0460  0.2797 -0.0327
 3165W        W19426   2.555   2.328  14.883 -0.2366  0.2220 -0.3173
 3166W        W19427  10.089   8.593  13.809  0.0410  0.1366  0.0474
 3167W        W19428   6.615   1.016   1.421  0.1631  0.0390 -0.4426
 3168W        W19429  17.047   8.506  14.737 -0.0525 -0.0935 -0.0387
 3169W        W19430  13.805   9.740  15.519 -0.1309 -0.1114  0.1096
 3170W        W19431   3.046   6.388  13.193 -0.0321  0.0473  0.1499
 3171W        W19432   3.136  11.827  13.896 -0.0698 -0.0631  0.1684
 3172W        W19433   7.547   6.764   5.383 -0.2716 -0.2958 -0.0102
 3173W        W19434  16.954  11.023   3.488  0.4261  0.1179 -0.1134
 3174W        W19435   8.848   5.679  12.096 -0.0814  0.0527  0.1742
 3175W        W19436   0.216  16.057  13.008 -0.0538 -0.0957 -0.1741
 3176W        W19437   1.877   8.046  13.048 -0.0508  0.1966 -0.0327
 3177W        W19438  11.588   6.497   0.019 -0.1705 -0.2795  0.1252
 3178W        W19439   5.401  17.390  13.312 -0.0196 -0.0924 -0.0007
 3179W        W19440  10.001  16.367   5.263 -0.0413 -0.0112  0.0739
 3180W        W19441  13.499   0.102   4.782  0.3190 -0.0990  0.4589
 3181W        W19442   9.512   7.692  11.252  0.0824 -0.0436 -0.2781
 3182W        W19443  16.752  16.037   1.669  0.0322  0.0254  0.3389
 3183W        W19444   7.565   2.213   3.675  0.2730  0.1346 -0.0062
 3184W        W19445   6.604   0.585   3.261 -0.0735 -0.2655 -0.3239
 3185W        W19446   9.726  10.230   1.957  0.0881  0.1192  0.0877
 3186W        W19447   1.630   0.804  16.033 -0.0661  0.2398 -0.2720
 3187W        W19448   9.058   9.701  15.324  0.0063 -0.0937 -0.1494
 3188W        W19449   8.081  17.291   0.258 -0.0390  0.0503 -0.1262
 3189W        W19450   6.434   8.072   4.445 -0.1364 -0.2260  0.1184
 3190W        W19451  13.028  16.935   2.494  0.1310 -0.3559 -0.0913
 3191W        W19452   2.603  10.446   0.150  0.3943  0.0518  0.1965
 3192W        W19453  14.278  14.353   4.182  0.0812  0.0400 -0.1532
 3193W        W19454   2.599   6.334   3.672  0.0950 -0.2154  0.2814
 3194W        W19455  12.936   0.163   1.139 -0.2017  0.1152  0.0855
 3195W        W19456  11.624   5.369   4.940 -0.1921 -0.0779 -0.2291
 3196W        W19457   1.319   9.895   2.464  0.0882  0.0065  0.1605
 3197W        W19458   6.222   0.274   3.824 -0.0450 -0.1768 -0.0582
 3198W        W19459   5.279  17.055  12.522 -0.0511  0.1563  0.0506
 3199W        W19460  11.019   2.375  10.874 -0.0171  0.5851 -0.1775
 3200W        W19461   1.045   3.880  13.039 -0.0857  0.0076 -0.1438
 3201W        W19462  15.022  13.200  16.636 -0.0210  0.1640 -0.1932
 3202W        W19463   7.526   2.392   1.146  0.0547  0.1006  0.1540
 3203W        W19464   1.513  16.714   3.897 -0.0984 -0.2404  0.1662
 3204W        W19465  11.594  16.808   1.406 -0.3784 -0.2270  0.1940
 3205W        W19466   7.831   5.959   4.177  0.0305  0.3632  0.0172
 3206W        W19467   8.855  15.349   1.360 -0.1767  0.2046  0.0745
 3207W        W19468   0.331   2.567  14.847 -0.0458  0.0882  0.2097
 3208W        W19469   8.350  11.330  15.463 -0.1477 -0.1583  0.1163
 3209W        W19470   6.836   2.737   3.749 -0.2912 -0.0465  0.2859
 3210W        W19471  12.016   0.788   4.274 -0.2458 -0.0912  0.0161
 3211W        W19472   8.342   1.710  11.986 -0.2097  0.1475  0.0302
 3212W        W19473   2.196  11.506   2.594 -0.1179 -0.2085 -0.0218
 3213W        W19474  16.446  12.563   4.694 -0.0864  0.0250 -0.1587
 3214W        W19475   9.857   3.673   0.736  0.1083  0.1093 -0.0203
 3215W        W19476  14.567   6.739  14.062  0.1474  0.2614  0.1026
 3216W        W19477  16.704   5.141  15.045 -0.1735  0.2385  0.0568
 3217W        W19478  17.200   3.281  14.672 -0.0975 -0.1153  0.0390
 3218W        W19479   6.473   5.070  14.568 -0.0031  0.1562  0.0407
 3219W        W19480  17.942  14.986   4.948 -0.0735  0.0947  0.0759
 3220W        W19481   7.322  16.570  14.221  0.1010  0.1545 -0.0633
 3221W        W19482   8.707   6.786  16.491  0.0532 -0.2326 -0.1934
 3222W        W19483  15.960   2.290  15.246 -0.2115 -0.2305  0.2470
 3223W        W19484   4.549  18.007   0.321 -0.0912  0.1114 -0.3317
 3224W        W19485   5.871  13.067   5.779  0.2345  0.2435 -0.0835
 3225W        W19486   2.159  15.596   0.598  0.0500 -0.2524 -0.0546
 3226W        W19487   3.300  10.860   5.737 -0.1137  0.0209  0.0200
 3227W        W19488   8.230  17.334   4.404 -0.0799  0.1394 -0.0230
 3228W        W19489   2.006  16.733   3.794 -0.1246 -0.1292  0.1581
 3229W        W19490   2.212  15.764   5.469 -0.1089 -0.0978 -0.0264
 3230W        W19491  15.493   0.321  14.817  0.0421  0.1208 -0.1604
 3231W        W19492   9.363   7.119   0.324 -0.1953  0.0544 -0.0561
 3232W        W19493  10.116  16.736   1.854 -0.1838  0.3505  0.0258
 3233W        W19494   5.922  10.233  16.049 -0.0523  0.1412  0.0565
 3234W        W19495  10.727  11.386   1.948 -0.0180 -0.0658 -0.1214
 3235W        W19496   1.271  12.296   5.559  0.3028  0.1677 -0.4237
 3236W        W19497  17.056   0.703  15.915  0.2150  0.4472 -0.1607
 3237W        W19498   9.258  14.747   2.330  0.0941 -0.2894 -0.0853
 3238W        W19499   4.976   5.489  16.438  0.0425  0.0894  0.0011
 3239W        W19500  11.603   6.282   1.451  0.0018 -0.0046  0.1736
 3240W        W19501   8.587  17.566   5.530  0.2344  0.2796  0.0377
 3241W        W19502  10.656  14.059  13.341 -0.0008  0.5070  0.1666
 3242W        W19503   9.238  11.581  14.547 -0.0058  0.0114  0.3633
 3243W        W19504  17.784   5.679  14.046  0.2281  0.1726 -0.3381
 3244W        W19505   5.006  17.339   1.587  0.4167 -0.0025 -0.0440
 3245W        W19506  11.955  11.726   0.039  0.0364 -0.0502 -0.2982
 3246W        W19507  16.759   7.679   3.046 -0.3192 -0.1735  0.0869
 3247W        W19508  14.075   5.123   5.154  0.0620 -0.2333  0.1777
 3248W        W19509   9.741   8.318   5.314  0.0965 -0.0575 -0.0661
 3249W        W19510   8.963  18.105   2.199  0.1607  0.0342  0.0359
 3250W        W19511   2.662  14.432  15.508 -0.0643  0.2775 -0.1247
 3251W        W19512  16.316   2.774  16.524  0.0426  0.3356  0.0766
 3252W        W19513   4.069   1.143   4.041  0.1397 -0.2658 -0.1067
 3253W        W19514  16.834  16.505   1.232 -0.1037  0.3424 -0.0397
 3254W        W19515  18.124  10.775  15.168 -0.1089 -0.3599 -0.1196
 3255W        W19516   3.196   9.099  15.607 -0.1384 -0.2242  0.0509
 3256W        W19517  15.714  15.049   5.219  0.1961  0.0177 -0.0855
 3257W        W19518   2.782   2.636  11.293  0.1358 -0.0022 -0.1726
 3258W        W19519  14.762   3.741  13.305 -0.1926 -0.3057  0.0632
 3259W        W19520  11.472  17.657   3.618  0.2658 -0.3103 -0.0645
 3260W        W19521  13.302  11.383  13.014 -0.0869  0.1374  0.1824
 3261W        W19522  14.608   2.595   0.936 -0.2321  0.1136  0.2792
 3262W        W19523   5.627  15.800  15.448  0.4333 -0.2374 -0.2433
 3263W        W19524   9.765  11.439   1.670 -0.0986 -0.0117  0.0092
 3264W        W19525  13.178  11.733  15.034  0.1450  0.0540 -0.2230
 3265W        W19526  14.624   4.693   2.869 -0.0018 -0.0310 -0.0241
 3266W        W19527  15.189   6.886   3.342  0.1676  0.1640  0.0338
 3267W        W19528   6.067   6.124   0.711  0.3089 -0.1756  0.1513
 3268W        W19529  10.006  12.842  10.521 -0.0350 -0.0991  0.1421
 3269W        W19530  13.120   3.582   1.178 -0.0252 -0.1202  0.1823
 3270W        W19531  10.200  12.392  15.070 -0.5660  0.1034 -0.6019
 3271W        W19532  16.672  13.851   0.439  0.0209 -0.0839 -0.1009
 3272W        W19533   5.140  14.471   0.412  0.1362  0.2148  0.1566
 3273W        W19534   2.152   4.126  16.190 -0.2038 -0.2444  0.1980
 3274W        W19535  12.875  16.873   4.369  0.0852 -0.0041  0.1371
 3275W        W19536  18.144   9.528   3.738 -0.2650 -0.0444  0.0182
 3276W        W19537  17.715   1.516   0.851  0.0060 -0.0698  0.3902
 3277W        W19538  14.466   1.593  14.427  0.0211 -0.0028 -0.0251
 3278W        W19539   8.078  17.813   6.193  0.1868  0.0301  0.3039
 3279W        W19540   3.352  13.283   0.643  0.2910 -0.2754 -0.1352
 3280W        W19541   3.952   8.314   4.013 -0.3770 -0.3465 -0.1357
 3281W        W19542   7.210   1.033  13.371 -0.2523  0.1399 -0.0481
 3282W        W19543  16.285  10.368  13.140  0.0246  0.0755 -0.1841
 3283W        W19544   5.131   9.256   0.667  0.0235  0.0059  0.1099
 3284W        W19545  16.531  10.523   1.709 -0.0898 -0.1128 -0.2245
 3285W        W19546   7.753  10.440   5.473  0.0277 -0.0729  0.2303
 3286W        W19547   5.248   6.700  15.289 -0.0197 -0.3522  0.2396
 3287W        W19548   4.048   9.755  16.389 -0.3527 -0.0371  0.0940
 3288W        W19549   0.895   9.059  14.005  0.2679  0.1788  0.0274
 3289W        W19550   0.487   0.815   0.112 -0.1534 -0.1803 -0.0440
 3290W        W19551   8.799  17.855  14.417  0.1469  0.1425 -0.0496
 3291W        W19552   5.443   6.778   6.315 -0.2112  0.2037 -0.1061
 3292W        W19553   0.448  16.546  11.176  0.1736 -0.3572 -0.0429
 3293W        W19554   7.014   2.456  13.091  0.0086 -0.1144 -0.2292
 3294W        W19555  15.922   1.420   4.651 -0.2131  0.1187  0.0398
 3295W        W19556   8.648  14.371  12.439 -0.2486 -0.0922  0.0806
 3296W        W19557  10.091  14.131  12.888  0.0288  0.0437 -0.0209
 3297W        W19558  17.738  15.844   3.687  0.1207 -0.2616 -0.1311
 3298W        W19559  16.208   1.134  12.210 -0.1045  0.0967  0.0356
 3299W        W19560   0.843  15.987  12.621  0.1451  0.3707  0.1682
 3300W        W19561  15.080   8.828   3.496  0.0323  0.0071  0.0983
 3301W        W19562  10.466   7.180   1.460  0.1481 -0.2255 -0.1504
 3302W        W19563   9.321   3.085  15.689  0.1091 -0.0662 -0.4256
 3303W        W19564   2.493  14.586  14.429 -0.0966  0.0360 -0.0461
 3304W        W19565   7.582  17.912   3.982 -0.1155  0.3290  0.2633
 3305W        W19566   1.274   1.351   4.890 -0.0277  0.1257 -0.0745
 3306W        W19567  13.371  10.740   1.529 -0.5590 -0.0031 -0.0471
 3307W        W19568   2.007   6.151   4.652  0.2451 -0.0995  0.2597
 3308W        W19569  13.617  15.670   0.832 -0.1462  0.3502 -0.1778
 3309W        W19570  17.264   5.657   1.641 -0.1988  0.1473 -0.1902
 3310W        W19571   9.409  10.981  13.123  0.3328  0.0629 -0.1254
 3311W        W19572  10.166  15.688  12.516 -0.2252  0.2004 -0.3599
 3312W        W19573  10.716  16.713  15.115 -0.1436  0.3769 -0.1912
 3313W        W19574  16.911   4.933  16.583  0.0932  0.2036  0.1473
 3314W        W19575   1.605   6.010  14.745  0.1150  0.1581 -0.0139
 3315W        W19576  16.723   4.173   5.852 -0.1700 -0.0728  0.1785
 3316W        W19577   1.502  17.765   2.389  0.1025 -0.0056  0.0781
 3317W        W19578   9.868  16.266   1.043 -0.1239  0.2190 -0.1700
 3318W        W19579   3.264  16.652  15.071 -0.2717  0.1936  0.1866
 3319W        W19580   6.432   8.176   2.109 -0.0445 -0.0260  0.0204
 3320W        W19581  17.949   6.109   3.613  0.0602 -0.1415  0.0586
 3321W        W19582   1.796   6.327  16.446 -0.0752  0.4284 -0.1680
 3322W        W19583  15.840  12.036  13.165  0.1267  0.1969 -0.0434
 3323W        W19584   6.402   9.387   0.816 -0.0025 -0.3236 -0.2364
 3324W        W19585  11.295   4.252  13.938 -0.1389  0.0743 -0.1036
 3325W        W19586  15.218  11.443  14.246  0.2960 -0.1105  0.3473
 3326W        W19587   7.572   4.944   0.088  0.0655  0.1059  0.2030
 3327W        W19588   9.726  15.523  12.660 -0.0679  0.3488  0.0713
 3328W        W19589  17.815   6.864  15.887 -0.0640 -0.0497 -0.1116
 3329W        W19590   7.847  13.171  16.527  0.4047  0.2008 -0.1516
 3330W        W19591  11.740  18.006   4.485  0.3217  0.4150 -0.1578
 3331W        W19592   9.459   1.118   6.435 -0.1539  0.0493  0.3327
 3332W        W19593   9.008  12.550   4.574  0.0128  0.1431 -0.1035
 3333W        W19594   9.704   4.094   0.518  0.1331  0.0822 -0.1094
 3334W        W19595   1.658  13.008   1.597 -0.1203  0.0586  0.3397
 3335W        W19596  10.955  15.774  12.918  0.0534  0.0525 -0.0568
 3336W        W19597  10.947  10.711   2.555 -0.0101  0.2513  0.1527
 3337W        W19598  13.323   3.101  15.724  0.0522 -0.1719  0.0917
 3338W        W19599  14.883   6.215  15.722 -0.0712  0.1497 -0.0349
 3339W        W19600   4.914   5.158   5.850  0.1932 -0.1106  0.0771
 3340W        W19601   7.019   4.300  12.660  0.3864 -0.0218 -0.3678
 3341W        W19602   9.812   8.384   3.499 -0.6170  0.2963  0.0810
 3342W        W19603  11.530  12.136   3.694 -0.3132 -0.1599 -0.0952
 3343W        W19604  10.172   2.890  14.061 -0.0624  0.1862 -0.1186
 3344W        W19605   3.886   6.350  15.506  0.2725 -0.0937 -0.0818
 3345W        W19606   2.010  17.606   2.388  0.2504 -0.0816 -0.0894
 3346W        W19607  14.147   4.208   4.582 -0.0919 -0.1579  0.3407
 3347W        W19608   2.034  16.554   0.241  0.2169  0.1710  0.0205
 3348W        W19609   5.031  14.997  12.677 -0.1376 -0.3066 -0.2272
 3349W        W19610  11.871   2.973   3.805  0.1317  0.1636  0.0390
 3350W        W19611  15.665  13.381   4.382  0.0054 -0.1128 -0.0463
 3351W        W19612  14.419  17.334   5.341 -0.1708  0.1311 -0.0745
 3352W        W19613  17.897  11.524  11.880  0.0691 -0.1194  0.6071
 3353W        W19614   1.626   2.155  14.619 -0.0670 -0.1126  0.3442
 3354W        W19615  12.437   1.328   1.534  0.2393 -0.2765 -0.2347
 3355W        W19616  12.450  10.140   0.643 -0.1609 -0.1713 -0.0705
 3356W        W19617   4.250  11.914   4.196 -0.0159 -0.2903 -0.1290
 3357W        W19618   7.612   4.723  13.983  0.2260  0.0417 -0.3022
 3358W        W19619  11.730   2.276  11.902  0.1256  0.0492 -0.1395
 3359W        W19620   8.645  16.907  16.278 -0.2934  0.1946  0.2760
 3360W        W19621   2.452   3.167   5.879  0.2496 -0.0123  0.0787
 3361W        W19622   7.540  17.901  13.262  0.2485 -0.0778  0.1375
 3362W        W19623  11.873  18.010  13.694  0.0132 -0.2646  0.1310
 3363W        W19624  13.371  16.905   3.072  0.0695  0.0640 -0.1125
 3364W        W19625   3.532  14.162   2.534  0.0659 -0.1226 -0.1654
 3365W        W19626   0.626  17.050   5.578 -0.1824 -0.0652 -0.1793
 3366W        W19627   9.917   4.444  11.854  0.2627 -0.0402 -0.0404
 3367W        W19628  15.142  10.005   3.396  0.1928 -0.0793 -0.3141
 3368W        W19629   3.961  14.256  16.034  0.0154  0.1020 -0.1431
 3369W        W19630   9.378   8.764  14.855  0.1404  0.0041 -0.3543
 3370W        W19631   2.871   7.627   2.684 -0.4195 -0.2183  0.0789
 3371W        W19632  17.210  16.212   1.995 -0.1796  0.0590 -0.0233
 3372W        W19633  14.195   0.111   0.345 -0.0041  0.1597 -0.1043
 3373W        W19634   7.510  17.208   3.992  0.2744 -0.1303  0.0233
 3374W        W19635  18.118  16.188   0.735 -0.1792  0.2518  0.0417
 3375W        W19636   2.605  14.419   3.090 -0.0324  0.4232  0.3380
 3376W        W19637   5.863  13.414  15.714 -0.1659  0.0717  0.1292
 3377W        W19638   6.968  11.573   4.915 -0.2886  0.2657  0.3344
 3378W        W19639   3.252   1.401   3.657  0.1968 -0.2533 -0.1654
 3379W        W19640  15.058  12.329   0.054  0.3109 -0.4993 -0.3834
 3380W        W19641   7.475  10.824  16.468 -0.2462 -0.0232 -0.3915
 3381W        W19642   5.004   2.935   4.446 -0.3254 -0.0916 -0.1618
 3382W        W19643   6.315   9.647  14.195  0.0981  0.0367 -0.2108
 3383W        W19644  12.106   0.686  11.852  0.2740  0.2792  0.0818
 3384W        W19645   4.033  14.968  13.344 -0.0045 -0.0890 -0.1027
 3385W        W19646   5.780   0.040   5.293 -0.0536 -0.1302  0.2140
 3386W        W19647  12.424   7.134  11.427  0.0256  0.0520 -0.2929
 3387W        W19648   1.676  11.338   1.681 -0.1447 -0.0292 -0.0843
 3388W        W19649   2.862  14.772  14.128  0.1222 -0.0923 -0.0457
 3389W        W19650  16.695   2.191   0.202 -0.0261  0.4225  0.0164
 3390W        W19651  17.977   9.955   3.406 -0.4136  0.3381  0.1935
 3391W        W19652   6.709  12.066   0.677  0.0082  0.0024 -0.1251
 3392W        W19653   7.774  17.188   1.276  0.0019  0.1319 -0.1066
 3393W        W19654   0.711   7.736  16.375 -0.3911  0.1559  0.1720
 3394W        W19655  13.310   7.130   1.631  0.3738  0.0001  0.2045
 3395W        W19656  16.136  12.650   3.535  0.1498 -0.1387  0.3387
 3396W        W19657  14.187   6.103  15.800  0.1150  0.0552  0.0024
 3397W        W19658  10.719   1.489  16.548  0.2046 -0.0178  0.5614
 3398W        W19659   7.071  12.069  13.780  0.1105  0.1006  0.2418
 3399W        W19660   1.437   8.554  15.534  0.0162  0.1769  0.0691
 3400W        W19661   4.455   0.934   4.266 -0.0018 -0.2433 -0.0317
 3401W        W19662  14.140  12.045  13.469 -0.2016 -0.2333  0.2532
 3402W        W19663   3.853   3.781  12.441  0.2403 -0.1992 -0.0973
 3403W        W19664   8.044   8.706  13.637 -0.4009 -0.0390  0.1215
 3404W        W19665   5.080  13.882   3.486 -0.2685 -0.0894 -0.2089
 3405W        W19666  15.008  14.378  14.052 -0.0058  0.0722  0.3537
 3406W        W19667  17.935  10.324   4.246 -0.1921  0.0496  0.0681
 3407W        W19668   2.256  17.086  12.284 -0.2171 -0.1134  0.6035
 3408W        W19669  17.739  13.755   3.713 -0.1040 -0.1967 -0.0623
 3409W        W19670  11.826   5.817   4.949  0.2113  0.0180  0.0824
 3410W        W19671  15.457   4.633  11.016  0.3067  0.2066 -0.3191
 3411W        W19672   6.499  12.172  16.398  0.2431  0.2494 -0.0103
 3412W        W19673  16.378  16.311   4.444 -0.2329  0.3334 -0.1539
 3413W        W19674   8.048  11.249   4.360 -0.2452  0.1790  0.0082
 3414W        W19675   5.909   3.711  11.802 -0.0207 -0.3224 -0.1882
 3415W        W19676  13.624  11.383   1.464 -0.2596 -0.0600 -0.1065
 3416W        W19677  17.589  14.554   5.763 -0.5475  0.3363  0.2144
 3417W        W19678   0.483   8.708  11.650  0.0524 -0.1178  0.2284
 3418W        W19679  12.867   3.866  13.891  0.1306  0.0176  0.1429
 3419W        W19680   9.728   3.042   1.277 -0.0259 -0.1747 -0.2668
 3420W        W19681  10.235  14.352   4.006 -0.0918  0.2502 -0.3327
 3421W        W19682   1.232  10.467   1.462  0.2566  0.3223 -0.0149
 3422W        W19683  16.995  12.427   5.026 -0.1415  0.4154  0.1038
 3423W        W19684  14.420   6.448  16.107 -0.1642  0.0530 -0.2232
 3424W        W19685  13.617  13.180   1.215  0.1927 -0.2183 -0.0039
 3425W        W19686  14.777   5.893   0.293 -0.0522  0.0008  0.1197
 3426W        W19687   2.513  10.157   0.618 -0.0046 -0.0411 -0.0010
 3427W        W19688   1.587   0.673   3.839  0.2141 -0.0440 -0.0399
 3428W        W19689  18.104   1.982   4.451  0.1532 -0.0401  0.0527
 3429W        W19690  13.210   6.626   0.586  0.2777  0.1031 -0.0736
 3430W        W19691   5.390   7.692   1.839 -0.0313 -0.1281  0.2623
 3431W        W19692   9.207   7.223   2.740  0.0338  0.1871 -0.0071
 3432W        W19693   8.850  14.887  13.540  0.1783 -0.2256  0.1808
 3433W        W19694  15.508   9.436  11.532 -0.2919  0.0492  0.1588
 3434W        W19695   4.057   3.617   5.583  0.0185 -0.1441 -0.1170
 3435W        W19696   8.378  10.872  13.011  0.4102 -0.1636 -0.0381
 3436W        W19697  11.500  14.574  16.132 -0.1380  0.2574  0.1127
 3437W        W19698   3.614   0.115  11.951 -0.3156 -0.0018  0.0306
 3438W        W19699   2.734  13.074   3.778  0.0674  0.1394 -0.2142
 3439W        W19700   7.549  15.448   2.115 -0.1747 -0.2302  0.2789
 3440W        W19701  11.473   7.937   3.923 -0.0874 -0.1434  0.0804
 3441W        W19702  14.328  16.658   0.670 -0.0953  0.1711  0.2078
 3442W        W19703   0.798   1.104   0.392 -0.3384  0.0342 -0.4486
 3443W        W19704   4.869   7.615   5.329  0.1608 -0.1033  0.3344
 3444W        W19705  10.255   9.893  12.776  0.0100 -0.0761  0.0006
 3445W        W19706   1.417   9.706   5.034 -0.0684  0.1350  0.3550
 3446W        W19707   5.630   5.665  16.123  0.1564  0.0017  0.0085
 3447W        W19708  16.350  18.017   2.213  0.0128 -0.0943 -0.1181
 3448W        W19709  15.217  10.020   4.482  0.0997  0.2441  0.1541
 3449W        W19710  18.090  15.544   5.053  0.0977 -0.1986 -0.4643
 3450W        W19711  14.132  12.885   4.516 -0.1285 -0.1003 -0.1604
 3451W        W19712  13.776   4.211   3.072  0.2045 -0.1294 -0.0031
 3452W        W19713   9.620  14.914  11.719 -0.0740 -0.0197  0.0812
 3453W        W19714   9.855   7.316   4.200  0.0311  0.0146  0.1090
 3454W        W19715   8.353   7.273   1.004 -0.1602  0.1081 -0.0849
 3455W        W19716  12.419  10.888  16.227  0.1785  0.3422  0.0838
 3456W        W19717   0.814   0.676   6.426  0.2631 -0.1904 -0.1918
 3457W        W19718  12.394   3.326   4.117 -0.2129  0.0367 -0.2628
 3458W        W19719  16.992  12.183  11.657 -0.1833 -0.0638 -0.1452
 3459W        W19720  12.702  16.550  15.615 -0.3321  0.2824  0.2299
 3460W        W19721   8.443  13.484   3.225  0.1303 -0.1792  0.0745
 3461W        W19722   2.676  13.190  14.815  0.2040  0.0605 -0.1530
 3462W        W19723  10.207  15.334   3.041 -0.1549 -0.2434 -0.1277
 3463W        W19724   6.098  11.883  12.390 -0.2842  0.3264  0.0602
 3464W        W19725  14.841  17.256   2.756  0.0690  0.1326 -0.4053
 3465W        W19726   6.822   0.592   4.859 -0.0556 -0.0433 -0.1025
 3466W        W19727  14.568   9.696   0.775  0.1436  0.1449 -0.1131
 3467W        W19728   7.512  10.572   1.751  0.1962  0.0765 -0.0052
 3468W        W19729  13.952   3.425  12.248  0.2394 -0.2269 -0.1279
 3469W        W19730   8.797   1.728  14.377 -0.1383  0.1724  0.0686
 3470W        W19731   4.465   1.538  16.561  0.2645 -0.0030 -0.0984
 3471W        W19732   1.585  11.481   5.393 -0.0643 -0.0506  0.0145
 3472W        W19733  11.033   3.354   4.564  0.3294  0.0219 -0.2039
 3473W        W19734   5.075  12.038   3.632 -0.1347  0.0999 -0.2041
 3474W        W19735   3.252   5.580   4.368 -0.2520 -0.2397  0.0632
 3475W        W19736  13.861   9.066   2.425  0.0313 -0.1013  0.6231
 3476W        W19737   7.386   6.323   4.180  0.3213 -0.0537 -0.2238
 3477W        W19738  17.009   6.994   0.093 -0.2634 -0.1408 -0.1220
 3478W        W19739   3.183   6.093   1.923 -0.1116  0.0276  0.3218
 3479W        W19740   9.882   4.067  13.843  0.3967  0.0055  0.2354
 3480W        W19741   3.676   0.215   5.180 -0.0885  0.0715  0.3247
 3481W        W19742  10.332  14.426  13.497 -0.3789  0.3337  0.0143
 3482W        W19743  12.105   6.509   0.013  0.0345  0.1884  0.1693
 3483W        W19744  12.919   1.215  12.895  0.2252 -0.1576  0.0000
 3484W        W19745   4.828  13.714   0.794 -0.3528  0.2317 -0.0630
 3485W        W19746   0.405   7.467   5.458  0.2482  0.2055 -0.0366
 3486W        W19747   6.724   2.424   1.224  0.0366  0.0326 -0.1752
 3487W        W19748   0.756  17.739  15.521 -0.2260 -0.2397  0.0269
 3488W        W19749   9.324  16.843  15.173  0.0247 -0.1395 -0.2876
 3489W        W19750   0.400   3.299   1.211 -0.1029 -0.2418 -0.0470
 3490W        W19751   8.125   9.279   3.586 -0.0033  0.1688  0.4559
 3491W        W19752   3.199  15.321  13.419  0.0888  0.0270 -0.0088
 3492W        W19753  16.229   0.922  13.778 -0.3747 -0.1719 -0.0236
 3493W        W19754   0.724   6.101   4.610 -0.1170 -0.2459 -0.0384
 3494W        W19755  13.307  10.142   5.685 -0.0072  0.0325 -0.0569
 3495W        W19756  17.436   5.699   0.546  0.6485  0.1085 -0.1285
 3496W        W19757  11.987  12.620   2.135 -0.0085 -0.1457 -0.3279
 3497W        W19758  18.124  10.759   2.665  0.0623  0.2058 -0.2628
 3498W        W19759   4.650  16.705  13.910  0.0084 -0.1680  0.1318
 3499W        W19760   8.389   6.972   1.407 -0.0692  0.1981  0.1345
 3500W        W19761  15.886  14.892   2.136 -0.0953 -0.3865  0.0576
 3501W        W19762   0.042  17.817   5.322  0.3436  0.1055  0.3453
 3502W        W19763   7.332   6.218   5.458 -0.1702 -0.0070  0.1185
 3503W        W19764  14.272  15.629   5.687 -0.2491 -0.1473 -0.1401
 3504W        W19765  12.344   8.503  13.264 -0.0425 -0.2569  0.3976
 3505W        W19766   3.976   1.142  12.184 -0.1146  0.4411 -0.2714
 3506W        W19767  10.093  14.553   1.882 -0.1429  0.0222  0.1149
 3507W        W19768   2.657   0.845  16.029  0.0091  0.2197  0.1844
 3508W        W19769  16.764   3.222   0.076  0.2845  0.2307 -0.0541
 3509W        W19770  17.659   9.419   3.576 -0.0196  0.1825  0.0659
 3510W        W19771   8.027  11.458   1.780 -0.0441  0.0703 -0.2053
 3511W        W19772   6.964   2.769   0.868 -0.0802  0.0004  0.2520
 3512W        W19773   6.359   7.130   5.174 -0.1312 -0.2445 -0.2747
 3513W        W19774  13.039   2.631   5.195 -0.0475 -0.2638 -0.2242
 3514W        W19775   2.376   8.631  12.446  0.1763  0.4236 -0.1219
 3515W        W19776   2.383   0.654  11.798 -0.1050  0.2098  0.0846
 3516W        W19777   0.069   4.891   5.684 -0.4294 -0.0928 -0.2202
 3517W        W19778   4.630   2.692   1.081 -0.2060 -0.3127  0.2394
 3518W        W19779  18.100   1.287   1.174 -0.0012 -0.0111  0.0864
 3519W        W19780   6.003   2.524   1.882 -0.1763 -0.3541 -0.1526
 3520W        W19781  17.271   3.701  12.377  0.1374 -0.0614  0.0299
 3521W        W19782   0.368   3.986   3.778  0.2781 -0.1725 -0.2915
 3522W        W19783  10.503   8.097   0.408 -0.0234 -0.0944 -0.3954
 3523W        W19784   0.409   6.540   1.571  0.3080 -0.0238  0.3888
 3524W        W19785   9.925  12.474   4.756  0.2852  0.2539  0.0412
 3525W        W19786   0.607  13.512  11.970 -0.0606  0.1264 -0.2413
 3526W        W19787   7.066   1.134   5.403 -0.1415 -0.3656  0.3442
 3527W        W19788  14.108  12.458   2.611  0.2312  0.0227  0.1522
 3528W        W19789  17.899  12.800   2.250 -0.0267  0.0777  0.1585
 3529W        W19790   7.830   6.091   4.668  0.2443 -0.0182  0.1034
 3530W        W19791   1.666  13.580  12.856  0.0165  0.1799 -0.1364
 3531W        W19792  15.784  12.560   1.877  0.0338 -0.2093  0.1925
 3532W        W19793   5.820  11.163  15.713  0.0409  0.4062  0.1852
 3533W        W19794   9.411  10.162   4.748 -0.0541  0.0763 -0.2030
 3534W        W19795  10.639   5.874   0.724  0.0872  0.1537  0.0751
 3535W        W19796   3.652   4.036  13.406 -0.1770 -0.0943  0.1326
 3536W        W19797  11.839  16.969   0.303 -0.1643 -0.2610  0.4650
 3537W        W19798   2.082   2.851  15.487  0.2483 -0.3355  0.1930
 3538W        W19799   7.097   8.293   0.435  0.2784 -0.0726 -0.0490
 3539W        W19800  10.939  15.751  15.100  0.0551 -0.2237 -0.0268
 3540W        W19801   3.895   6.554   3.974 -0.0005  0.2058 -0.0366
 3541W        W19802   0.971   3.364   5.447 -0.2960  0.1336  0.0149
 3542W        W19803  15.067  13.988  15.649  0.1083  0.2220 -0.1821
 3543W        W19804  17.190   8.602  11.893 -0.1678 -0.3893  0.0013
 3544W        W19805   3.197   8.110  15.888 -0.2048  0.0218  0.2981
 3545W        W19806  12.709  16.683  14.920 -0.2103  0.1043 -0.0687
 3546W        W19807   5.791   7.884   2.079 -0.2679  0.2886 -0.0340
 3547W        W19808   7.129   5.855   3.428 -0.0834  0.2225  0.3019
 3548W        W19809   6.388   7.530   4.223  0.0193 -0.1387  0.3947
 3549W        W19810   3.568  12.702   2.164  0.1135  0.1702 -0.1148
 3550W        W19811   2.409   3.113  14.304 -0.1352 -0.4500  0.2395
 3551W        W19812   4.242  13.487   5.147 -0.0268 -0.2163  0.0247
 3552W        W19813  14.891   2.488  16.278 -0.0767  0.1876 -0.0439
 3553W        W19814  17.387   6.864  11.850  0.0350 -0.3337 -0.0099
 3554W        W19815  14.290  13.760   3.923 -0.0198 -0.0604  0.0603
 3555W        W19816   6.251   9.933   4.778 -0.0643 -0.0011 -0.0075
 3556W        W19817   2.953  11.866   3.990  0.2415 -0.1357  0.1497
 3557W        W19818   2.041  10.865  13.000  0.1161 -0.3118  0.2778
 3558W        W19819   9.690   4.508  13.904 -0.2498 -0.1829 -0.3693
 3559W        W19820  14.779   3.200   2.406  0.2354 -0.0211  0.0589
 3560W        W19821  10.573   2.567  15.399 -0.2633 -0.0442  0.2371
 3561W        W19822   8.796   4.045   1.460 -0.1871 -0.1878 -0.0585
 3562W        W19823  13.403   0.614  14.128 -0.0492  0.3949  0.0288
 3563W        W19824  15.352  15.841  12.429 -0.1970  0.2098  0.1446
 3564W        W19825   5.514  10.619  11.481  0.2836  0.1921 -0.1138
 3565W        W19826   3.389  16.748   3.903  0.1651 -0.1075 -0.1141
 3566W        W19827   4.893   4.613   0.111 -0.0350  0.1083 -0.0320
 3567W        W19828  15.792   0.307  15.999  0.2922 -0.0760  0.0939
 3568W        W19829   4.349  13.981  11.515  0.0553 -0.1856  0.0984
 3569W        W19830  16.492  12.089  11.716 -0.0867  0.0032 -0.0174
 3570W        W19831   4.348  16.391   0.120 -0.2279 -0.1385 -0.1268
 3571W        W19832  16.369   7.215  16.062 -0.2030 -0.1389 -0.4649
 3572W        W19833  12.547  11.200   3.211  0.2768 -0.0346 -0.1293
 3573W        W19834  15.149  10.215   1.325  0.0559  0.1874  0.2710
 3574W        W19835  11.005   5.205  16.583 -0.1197  0.0643  0.0604
 3575W        W19836  15.192   7.755  13.033 -0.0852  0.1032 -0.0788
 3576W        W19837  18.043   2.062   6.626 -0.3211  0.2145  0.5809
 3577W        W19838   9.860  11.569   3.017  0.0732 -0.0018  0.0109
 3578W        W19839   9.710  16.549  14.364 -0.2142  0.2896  0.0583
 3579W        W19840   6.586   6.452   0.017 -0.0348  0.4440  0.1684
 3580W        W19841  12.327  13.526   0.030 -0.1949  0.0554  0.1382
 3581W        W19842  12.016   4.886  11.726  0.0912  0.0353 -0.2383
 3582W        W19843   4.368  14.540  16.130 -0.0283  0.2976 -0.2951
 3583W        W19844   2.819  10.367  15.318  0.0206  0.2358 -0.2566
 3584W        W19845   6.936  11.409   2.743  0.0392  0.2834 -0.2575
 3585W        W19846  12.647   0.456   2.043 -0.1810 -0.0842  0.0873
 3586W        W19847   3.359  10.126  15.920 -0.1855  0.0079  0.0356
 3587W        W19848   7.646   4.833   5.261  0.2623  0.3742 -0.0709
 3588W        W19849  15.943   1.598   2.599 -0.0240 -0.0623  0.0332
 3589W        W19850   6.327  10.308   1.336  0.1721  0.3833 -0.0818
 3590W        W19851   2.793   4.085   6.332  0.1518 -0.3252 -0.1158
 3591W        W19852   8.072   5.319  15.539 -0.2223  0.0196 -0.0123
 3592W        W19853   1.192   7.100   2.864 -0.0231 -0.4985 -0.3974
 3593W        W19854  11.612   2.007   1.594  0.0549 -0.0334  0.0059
 3594W        W19855  16.921   0.697   2.542  0.0673  0.1761 -0.3349
 3595W        W19856  14.867   8.802   0.501  0.0851 -0.3816 -0.2952
 3596W        W19857   5.604   0.397  15.732 -0.0732  0.1643  0.1296
 3597W        W19858   8.839  15.060   0.874 -0.1017  0.0332  0.0410
 3598W        W19859  11.596   3.427   2.072 -0.2847  0.2048  0.1092
 3599W        W19860   2.394  10.671   6.307  0.3371 -0.0191 -0.2204
 3600W        W19861  13.389   4.856   1.782 -0.3581  0.2426  0.1610
 3601W        W19862   3.781   5.946  14.044  0.2013 -0.1100  0.2800
 3602W        W19863   2.794   0.146  16.510  0.1202  0.1934 -0.3810
 3603W        W19864   9.988  15.795  13.349 -0.0562 -0.0881 -0.2965
 3604W        W19865   6.187   7.675  11.756  0.1180  0.0361  0.2310
 3605W        W19866  17.819   4.954   0.442  0.2933 -0.1702  0.0596
 3606W        W19867   9.587  17.548  14.027  0.0258 -0.0957  0.0564
 3607W        W19868   9.069  16.940  12.041  0.1918  0.3285 -0.0599
 3608W        W19869   9.355   2.040  12.369 -0.1909  0.1956 -0.0939
 3609W        W19870  15.004  14.754  15.282  0.1381  0.0390  0.0125
 3610W        W19871  16.887   4.754   3.933  0.0413  0.0757 -0.4000
 3611W        W19872  15.801  11.483  15.148 -0.0201  0.0156 -0.2542
 3612W        W19873   2.382   6.210  14.846 -0.0275  0.0764 -0.0189
 3613W        W19874  11.443  16.202  15.070  0.0265  0.2745  0.1942
 3614W        W19875  16.787   3.494   3.292 -0.0152 -0.2982 -0.1629
 3615W        W19876  13.501  10.135   0.871  0.1844  0.0638  0.3915
 3616W        W19877   8.425  12.585   2.614 -0.3500 -0.2180  0.1279
 3617W        W19878  16.031   5.569   2.019  0.0716  0.3011  0.2798
 3618W        W19879   3.368   3.810   3.974 -0.0492  0.1801  0.2212
 3619W        W19880   9.498   7.532   5.339 -0.0753 -0.0345 -0.1158
 3620W        W19881   5.461  13.000   6.567  0.4514  0.1521  0.0245
 3621W        W19882   0.635  14.524  16.044  0.1175 -0.1026  0.0742
 3622W        W19883   8.760   3.743  11.961 -0.2523  0.4182 -0.0174
 3623W        W19884  10.952  13.752   0.330  0.0258 -0.1996 -0.2350
 3624W        W19885   8.338   5.890   1.837  0.0578  0.0908  0.2770
 3625W        W19886  11.041  15.704   4.318 -0.1388 -0.1181 -0.4032
 3626W        W19887  11.361   1.479   3.187 -0.0295  0.1064 -0.0607
 3627W        W19888   3.884  15.443   4.639 -0.1532  0.3498 -0.0506
 3628W        W19889  14.580   3.837  14.111 -0.4158  0.0118  0.1662
 3629W        W19890  10.885  17.499  11.331 -0.1624 -0.2821 -0.1695
 3630W        W19891   0.614   3.277  14.905  0.2189  0.0864  0.1123
 3631W        W19892   4.535   3.770  12.164 -0.2335  0.0915 -0.0372
 3632W        W19893   9.199   7.605   4.852 -0.2262  0.0558 -0.1289
 3633W        W19894  13.824  17.750  11.619  0.3051 -0.1582  0.1387
 3634W        W19895  14.855   7.628   1.143  0.0301 -0.3629 -0.1006
 3635W        W19896   3.641   1.568   0.630 -0.1529  0.2460 -0.2601
 3636W        W19897   5.223   0.124   0.784  0.1173  0.0950 -0.0440
 3637W        W19898   8.331   7.408  14.223 -0.4720 -0.1573  0.1794
 3638W        W19899   4.754   3.276  16.061 -0.1213  0.1203 -0.0679
 3639W        W19900  18.091  10.731   1.265  0.0255 -0.0624 -0.4150
 3640W        W19901   5.830  12.314  14.759 -0.2837  0.0695 -0.0123
 3641W        W19902   2.133  16.121   2.502  0.0223 -0.3048  0.0546
 3642W        W19903  17.879   7.683   0.415  0.4345  0.3156  0.0128
 3643W        W19904   0.074  12.646   2.515  0.0730  0.0970  0.3169
 3644W        W19905   0.678   5.540   5.233  0.1461 -0.1982 -0.2080
 3645W        W19906  12.413  11.466  15.809  0.2549 -0.3006  0.0700
 3646W        W19907   1.104  11.302   5.839  0.1946  0.2634  0.0459
 3647W        W19908   7.582   5.652   4.791  0.1214  0.3330 -0.2800
 3648W        W19909   8.007  16.159  15.087  0.0173  0.0006 -0.0832
 3649W        W19910   1.162   5.650   2.054  0.1011 -0.3475 -0.0751
 3650W        W19911   0.159   9.376  14.669  0.3715  0.1287  0.2318
 3651W        W19912  15.045  14.916  14.216  0.0531  0.2356  0.1610
 3652W        W19913   1.463   2.233  16.606  0.0819 -0.1405  0.0037
 3653W        W19914   3.730   6.594   3.090 -0.0317  0.1490 -0.0944
 3654W        W19915  14.651  12.417   5.825  0.1767 -0.2700  0.2067
 3655W        W19916   3.619   7.393  14.248  0.0126 -0.2717 -0.1113
 3656W        W19917   3.363  13.155  14.049 -0.2456 -0.0327 -0.3369
 3657W        W19918   1.879  17.499   5.551  0.0668 -0.1705 -0.4356
 3658W        W19919  14.425   6.476   3.112  0.1863 -0.2012 -0.1646
 3659W        W19920   8.663  15.657  13.242  0.1716  0.0520  0.1427
 3660W        W19921   9.703  12.578  13.046  0.1570  0.2728  0.3295
 3661W        W19922  10.578  17.790   0.365  0.0298 -0.1564 -0.1610
 3662W        W19923   7.675   9.192  14.375  0.0279  0.1392  0.1636
 3663W        W19924   3.186   2.422  16.532  0.1831 -0.2367 -0.1700
 3664W        W19925   2.349   0.454  12.790 -0.2402 -0.3206  0.0475
 3665W        W19926   9.433  13.411  15.165 -0.0564 -0.1941  0.0172
 3666W        W19927   4.400   5.304   3.925 -0.1051  0.0087 -0.0173
 3667W        W19928  17.167   7.322   4.370 -0.2636  0.0385  0.1117
 3668W        W19929   7.295  13.772  12.624  0.8126 -0.2607 -0.1396
 3669W        W19930  15.972   6.281  13.568 -0.0872 -0.1925  0.1936
 3670W        W19931  11.422   4.666   5.605  0.0870  0.0351  0.1004
 3671W        W19932   6.216   6.825  15.391 -0.0257 -0.4292  0.0114
 3672W        W19933  15.650  17.583   1.278  0.1755  0.2787 -0.1224
 3673W        W19934  10.040   1.274  13.058  0.1516  0.1822 -0.1825
 3674W        W19935   0.762  13.566   2.692 -0.2998  0.2310  0.1864
 3675W        W19936  10.782  15.407  14.283 -0.0222  0.2720 -0.0824
 3676W        W19937   1.990   7.600   3.827 -0.0822  0.2159  0.1326
 3677W        W19938   1.925   0.402  16.040  0.1326 -0.1547  0.3404
 3678W        W19939   5.347  13.568  15.504 -0.0469 -0.1254  0.4616
 3679W        W19940  15.259   5.301   3.639 -0.0849 -0.0353 -0.1391
 3680W        W19941  12.979  14.199   4.168  0.0443  0.0539  0.0632
 3681W        W19942  15.435   4.722   1.689 -0.1415  0.2842 -0.1014
 3682W        W19943  11.633  11.316  15.635  0.0389 -0.0826  0.2227
 3683W        W19944   1.688   0.198  14.131 -0.0139  0.3779 -0.4915
 3684W        W19945   4.427   1.854   2.595  0.1338 -0.3044 -0.0063
 3685W        W19946   2.719  13.909  15.509 -0.0263 -0.1820  0.0279
 3686W        W19947   8.856   1.629   2.301 -0.1213 -0.2237  0.1874
 3687W        W19948   9.262   6.974   3.533  0.0157 -0.1523 -0.2286
 3688W        W19949   6.445  11.775   4.156 -0.0786  0.0545 -0.0703
 3689W        W19950  14.675  17.093   1.329  0.0652 -0.4395 -0.1312
 3690W        W19951  12.993  15.615   0.034  0.0227 -0.0919 -0.3743
 3691W        W19952  17.078   1.104  11.667  0.1537 -0.2879  0.0601
 3692W        W19953   5.201  17.138  15.509 -0.1891 -0.2226  0.3845
 3693W        W19954   0.194  13.607  11.255  0.1424 -0.2071 -0.2058
 3694W        W19955   1.584  14.028  13.060  0.2899 -0.1117  0.3157
 3695W        W19956  14.759  16.637   1.109  0.0993  0.0772  0.1157
 3696W        W19957   1.526  12.853  15.885  0.1876  0.1506  0.2212
 3697W        W19958  17.292   3.915   0.825  0.1425 -0.0113 -0.0451
 3698W        W19959  10.285   6.592   1.213  0.0785  0.0278 -0.1200
 3699W        W19960   7.026  15.828  12.343  0.0016  0.1391 -0.5327
 3700W        W19961   7.524   0.875   1.721 -0.0019  0.0989  0.0976
 3701W        W19962   4.188   7.998   0.591  0.2445  0.1657  0.2989
 3702W        W19963   4.560  13.671   1.594  0.4277  0.1311  0.1404
 3703W        W19964   9.043  16.054   3.530  0.4294 -0.0970 -0.1598
 3704W        W19965  17.651  16.085   2.282  0.2643 -0.0115  0.0938
 3705W        W19966  12.618  16.197  11.509  0.0651  0.1198  0.1775
 3706W        W19967   7.082  15.270   2.102  0.0067  0.0035 -0.0120
 3707W        W19968  10.041  14.293  13.886  0.1702  0.1150 -0.1158
 3708W        W19969  12.763  15.123   1.428  0.1287  0.1267  0.2577
 3709W        W19970   3.714   9.566   1.737 -0.3181 -0.0159  0.0440
 3710W        W19971  16.325   3.127  15.253  0.1588  0.2603 -0.0824
 3711W        W19972   4.823  16.876  16.003  0.1474  0.0014  0.1413
 3712W        W19973   8.621  11.252   5.168 -0.1846  0.1101 -0.1260
 3713W        W19974   4.366   3.301  16.451  0.3556  0.0289 -0.0270
 3714W        W19975   0.439   6.916  15.307 -0.4248 -0.2445  0.1584
 3715W        W19976   6.236   1.371   5.218  0.0317 -0.5120 -0.0266
 3716W        W19977   8.502   3.514   3.071 -0.0857 -0.1291  0.1285
 3717W        W19978   0.156   0.812   2.913  0.0490 -0.3517 -0.0909
 3718W        W19979   6.584   8.457   1.676 -0.2025  0.0987 -0.1289
 3719W        W19980   5.766   4.787  16.573  0.1170  0.1326  0.1031
 3720W        W19981   0.147   0.265   3.729 -0.4377 -0.3731 -0.0969
 3721W        W19982   4.605  11.438  16.601 -0.0784  0.2126  0.1322
 3722W        W19983  16.057   4.621  16.397 -0.0726  0.0843 -0.0783
 3723W        W19984   5.218  10.210   0.413  0.0597 -0.1108  0.1425
 3724W        W19985  12.075  17.981   3.077 -0.1417  0.2031 -0.2106
 3725W        W19986   3.458  14.527   1.047 -0.4283  0.2194 -0.4172
 3726W        W19987   0.487   4.486   4.100 -0.1599 -0.1883 -0.1402
 3727W        W19988   4.185  12.579   2.877 -0.1844  0.0354 -0.0240
 3728W        W19989  13.320  13.530  14.604  0.1179 -0.0733 -0.0708
 3729W        W19990   0.150  15.455   3.675 -0.0573 -0.0331  0.0588
 3730W        W19991   4.339   4.936   4.613 -0.3132 -0.4037 -0.0458
 3731W        W19992   7.167   5.832   1.290 -0.0475 -0.1099 -0.1420
 3732W        W19993   8.809   1.905  15.786  0.3836 -0.1850 -0.1679
 3733W        W19994   9.934  10.687   5.669 -0.1743  0.2490  0.2728
 3734W        W19995  11.290   8.638   2.992  0.0636  0.1001 -0.0975
 3735W        W19996   2.768  14.256   1.620  0.1228  0.1619 -0.0442
 3736W        W19997  15.913  17.564   3.415 -0.1303 -0.0468  0.1418
 3737W        W19998   9.267  11.074  15.298  0.1547 -0.2670 -0.0896
 3738W        W19999  11.049   1.841  14.860  0.3038 -0.1059 -0.0905
 3739W        W20000   6.532   2.158   2.391 -0.0779 -0.1878  0.2072
 3740W        W20001  13.682  13.284   2.854 -0.1339  0.1491 -0.2830
 3741W        W20002   0.434   3.813   1.139 -0.0831  0.0984 -0.0429
 3742W        W20003   7.963   5.975  12.510  0.0316 -0.0735 -0.3196
 3743W        W20004   1.853  10.517   1.330 -0.0118  0.0128  0.0565
 3744W        W20005   2.647   7.000  15.271 -0.1119 -0.1089  0.2337
 3745W        W20006  10.335   0.639   5.628 -0.1736  0.3212  0.1709
 3746W        W20007  12.083   1.968  14.087  0.2419 -0.0417 -0.1298
 3747W        W20008   8.286   6.792  11.540 -0.1639  0.2076  0.1838
 3748W        W20009  15.654  10.745   2.524 -0.0594 -0.2062  0.1499
 3749W        W20010   9.943   7.051   5.193 -0.0613  0.1282  0.1701
 3750W        W20011  13.458   7.061   3.845 -0.0997  0.1078  0.1015
 3751W        W20012   7.837  15.535  15.405  0.0597 -0.0554  0.2477
 3752W        W20013  17.247   9.401   1.389  0.4488 -0.2247  0.0111
 3753W        W20014  15.298  12.825  16.540 -0.0169  0.0117  0.0006
 3754W        W20015   0.253  15.885   1.566  0.2165  0.1925  0.1895
 3755W        W20016   2.373  11.172   6.355  0.0075 -0.3021  0.0959
 3756W        W20017  11.491  13.358   2.589 -0.0994  0.2081  0.0337
 3757W        W20018  16.136   0.299   2.617 -0.0141  0.0598  0.0341
 3758W        W20019   4.981   3.846  15.828 -0.0193  0.0987 -0.3772
 3759W        W20020   9.768   6.067   3.161 -0.2302  0.0886  0.3976
 3760W        W20021  17.203   7.088  14.328 -0.2997 -0.1925  0.1449
 3761W        W20022   5.393   9.729  11.564  0.3067  0.1368 -0.1331
 3762W        W20023   9.874   5.514   4.823 -0.1776 -0.1819  0.2520
 3763W        W20024   8.309   7.991  14.009  0.0623  0.0905  0.2652
 3764W        W20025   0.797   1.167   5.839  0.0312  0.1445 -0.2099
 3765W        W20026  12.271   7.813   5.746  0.2132 -0.2716 -0.0337
 3766W        W20027   2.274   5.298  13.654 -0.1441  0.0863  0.2087
 3767W        W20028  10.638   1.986   2.596  0.4391 -0.0874 -0.0246
 3768W        W20029   5.686   9.214  11.780 -0.0734 -0.0776  0.1708
 3769W        W20030   5.247  16.116   4.716 -0.1006 -0.1273 -0.1422
 3770W        W20031  12.477  17.078  15.092 -0.5191 -0.0473  0.1176
 3771W        W20032   6.156   4.233   5.294 -0.0607 -0.2400 -0.1631
 3772W        W20033   9.068   2.691  13.906  0.2398 -0.0201  0.0888
 3773W        W20034   2.919  10.841  13.736 -0.0410 -0.0814  0.3763
 3774W        W20035   2.031   1.080  12.146 -0.4806  0.2290 -0.0176
 3775W        W20036  16.627   6.103   2.900  0.1645  0.1132 -0.2312
 3776W        W20037  15.052  16.934   2.119 -0.0040 -0.3856 -0.1104
 3777W        W20038   4.488  16.634   0.932  0.1024  0.0860  0.0628
 3778W        W20039   7.323  13.591   0.719 -0.0627  0.1602  0.3135
 3779W        W20040  15.089  13.941  13.524 -0.0952  0.1122  0.0758
 3780W        W20041  15.210   5.203  12.254 -0.2402  0.1912  0.1760
 3781W        W20042  10.668  15.160   5.692  0.1393  0.0252  0.0974
 3782W        W20043   3.254  17.742   2.945  0.2538 -0.0529 -0.0391
 3783W        W20044  17.511  16.042   5.224 -0.0685 -0.0902 -0.1148
 3784W        W20045   7.391   4.406   2.583 -0.1302 -0.0256 -0.0739
 3785W        W20046   9.708  16.314   2.408  0.0647  0.0482  0.1054
 3786W        W20047  15.681   1.167   0.136 -0.1126  0.1039 -0.3114
 3787W        W20048   7.267   3.927  12.979  0.0177  0.0172  0.1036
 3788W        W20049  16.278   8.618  12.990 -0.1150 -0.0744 -0.0055
 3789W        W20050  16.724   1.349  12.030 -0.5403 -0.3530  0.0249
 3790W        W20051  17.591   0.671  12.328 -0.2974  0.0841  0.2997
 3791W        W20052  10.699   9.140  11.652 -0.1852  0.0666 -0.1554
 3792W        W20053  10.859   7.044  15.704 -0.2947  0.0676  0.1329
 3793W        W20054   0.689   0.797   2.860 -0.0318  0.1302 -0.0261
 3794W        W20055  12.803  11.128   5.777 -0.1842 -0.0351 -0.0758
 3795W        W20056   8.623   4.635   1.448  0.2230  0.1115  0.1557
 3796W        W20057   4.874   7.784   2.106 -0.1807  0.0124  0.1398
 3797W        W20058  11.677   2.733  16.510 -0.0642  0.0641  0.3253
 3798W        W20059   0.812  12.724  13.925 -0.2707 -0.1527 -0.1778
 3799W        W20060   0.713   0.905  11.545  0.1483  0.1632 -0.3116
 3800W        W20061   6.919  12.024   2.881 -0.0245 -0.3050 -0.0236
 3801W        W20062   6.967  11.177  12.943 -0.0810 -0.0091 -0.1009
 3802W        W20063   5.988  15.962   1.019  0.0954 -0.0857 -0.1037
 3803W        W20064  17.109   8.829   0.538  0.0133 -0.2972  0.0974
 3804W        W20065  10.595   9.921   0.647  0.1920 -0.1654  0.1414
 3805W        W20066  15.194  10.255  11.674  0.0437 -0.2871  0.0472
 3806W        W20067   4.307  12.746  15.483  0.2299 -0.0243 -0.0771
 3807W        W20068  15.776  11.151   4.104 -0.0172 -0.3836 -0.0900
 3808W        W20069  17.492  10.948  12.067  0.0459  0.3313 -0.0396
 3809W        W20070  13.439  12.362  12.755  0.0444  0.3313  0.0379
 3810W        W20071  13.680   0.189  12.489 -0.0643 -0.1452 -0.0315
 3811W        W20072  12.580   8.980   4.925  0.1583  0.3617 -0.1943
 3812W        W20073   4.565   8.558   1.076  0.0893 -0.1346 -0.4509
 3813W        W20074   3.702   1.800   3.682  0.1040  0.1289  0.2320
 3814W        W20075   1.488   4.220   0.483  0.1044 -0.0619 -0.0493
 3815W        W20076   4.556  10.564   0.262  0.1947  0.2449  0.1113
 3816W        W20077   6.345  14.141   3.584 -0.2541 -0.6904  0.2523
 3817W        W20078  10.825   2.753   1.937 -0.1119 -0.2182 -0.1640
 3818W        W20079   0.963   0.408  12.328  0.4329 -0.1765 -0.1868
 3819W        W20080  11.521   7.147  13.426 -0.2225  0.1188 -0.4085
 3820W        W20081   0.947  16.525  11.060  0.2480  0.1316 -0.0608
 3821W        W20082  16.140  16.533   4.050 -0.3268  0.1574 -0.0080
 3822W        W20083  17.470   1.004   1.865  0.4359 -0.0930  0.3147
 3823W        W20084  11.996  11.457  13.241  0.0344 -0.0374 -0.3430
 3824W        W20085  13.392   7.767  11.266  0.0197  0.1046 -0.3469
 3825W        W20086   6.616  11.761  12.725  0.0529 -0.1508  0.3657
 3826W        W20087  12.998   8.638   1.267 -0.0077  0.1092  0.0117
 3827W        W20088   6.173  16.198   2.210 -0.1567 -0.0798 -0.0661
 3828W        W20089   7.319  17.952   2.936 -0.0691  0.1960 -0.1940
 3829W        W20090   5.354   7.055   3.463 -0.2909  0.3020  0.0821
 3830W        W20091  11.987   2.162   3.312 -0.4512 -0.1190 -0.0678
 3831W        W20092  17.049  11.297   3.016  0.1093 -0.1224 -0.0470
 3832W        W20093  10.080   1.304  13.532  0.0731  0.2347  0.1010
 3833W        W20094   4.596   1.073   1.894  0.0859  0.0281  0.0731
 3834W        W20095   2.227  11.784  13.444  0.1285 -0.1105 -0.2846
 3835W        W20096  14.717   2.878  12.192 -0.1650 -0.1468 -0.1034
 3836W        W20097  12.553   2.322   3.384 -0.2581  0.0735 -0.2839
 3837W        W20098  11.837  13.568  15.988 -0.0667  0.1581  0.2159
 3838W        W20099   7.939  11.702  15.345 -0.0794 -0.1952  0.2491
 3839W        W20100  15.899   3.007   0.709 -0.0230  0.1716  0.3209
 3840W        W20101   7.712   2.953   2.515 -0.0242 -0.0095  0.1211
 3841W        W20102  12.395   0.415   4.163 -0.0328 -0.0901  0.0210
 3842W        W20103   5.432   5.755  13.616  0.4567  0.1886 -0.0822
 3843W        W20104   6.989   0.907  15.403 -0.0871 -0.0002 -0.0336
 3844W        W20105   4.952  15.578   0.260 -0.3608  0.0625 -0.0659
 3845W        W20106  10.761   5.918  16.411  0.0913  0.2086 -0.1165
 3846W        W20107  15.565   2.591  13.721  0.1449  0.0283  0.0878
 3847W        W20108   2.389  11.219   2.964  0.1909 -0.1111  0.4485
 3848W        W20109   5.594   4.388  11.581  0.0068  0.1978 -0.3355
 3849W        W20110   6.255   0.516  13.258  0.1848  0.0556  0.1903
 3850W        W20111  13.053  16.130  14.223 -0.1566 -0.3396  0.1134
 3851W        W20112   6.277  13.044  16.399  0.1582 -0.1905  0.0091
 3852W        W20113   8.080   8.974   4.985 -0.3968 -0.1462  0.0620
 3853W        W20114   3.294   8.806  12.867  0.0654 -0.1471 -0.0654
 3854W        W20115  16.984  12.362  15.669  0.2493  0.4820  0.6057
 3855W        W20116  17.677  13.356   4.318 -0.1539  0.0826 -0.0088
 3856W        W20117   8.508  17.009  12.959  0.1904  0.1948  0.2518
 3857W        W20118  10.241   4.512   1.529 -0.1653  0.0169 -0.2927
 3858W        W20119  15.221  17.641  12.827 -0.0283  0.2782  0.1948
 3859W        W20120   2.954  12.034   5.381  0.1558  0.0230 -0.1305
 3860W        W20121  10.606   8.897  14.562 -0.0671  0.0948 -0.1578
 3861W        W20122   5.409   8.357  12.827 -0.1025 -0.1672 -0.1396
 3862W        W20123  11.621   1.136   4.353  0.0801 -0.1354 -0.1755
 3863W        W20124  12.085  15.115  13.882  0.0375  0.1439  0.2867
 3864W        W20125  14.326  10.712  12.128 -0.1649  0.1107 -0.3664
 3865W        W20126   6.087  15.044   2.728 -0.0803 -0.0767  0.0409
 3866W        W20127  15.627  15.988  11.910 -0.0434 -0.0806 -0.2137
 3867W        W20128   3.001   9.117   4.035 -0.1041 -0.1292  0.1834
 3868W        W20129  14.137  14.089  13.455  0.0622  0.1587  0.1006
 3869W        W20130   3.719  16.904  16.319 -0.2374  0.3922  0.0730
 3870W        W20131  14.695   4.554  11.598 -0.0529 -0.0974 -0.0716
 3871W        W20132   7.112  18.147   3.774  0.0241 -0.0032 -0.1467
 3872W        W20133   0.495  11.590  16.219 -0.1604  0.2070  0.0150
 3873W        W20134   8.217   9.838  13.936  0.2041 -0.0593  0.1077
 3874W        W20135   0.593  11.671  15.599  0.1152 -0.0510 -0.2065
 3875W        W20136  14.325  12.068   1.353  0.1327  0.1595  0.1336
 3876W        W20137   6.116   1.921   3.565 -0.1952  0.1812  0.0916
 3877W        W20138   5.307   0.132   5.093  0.1243 -0.1769 -0.1598
 3878W        W20139   9.492   7.632   0.505 -0.2510 -0.0047 -0.1879
 3879W        W20140  12.647   0.303  12.656 -0.3385  0.0394 -0.0307
 3880W        W20141   2.092   3.322  13.859  0.0541 -0.2116  0.1553
 3881W        W20142  16.150  13.342   1.495  0.0391  0.2743 -0.2070
 3882W        W20143  13.255  11.485  16.392  0.3798  0.2209  0.0379
 3883W        W20144   5.375  13.282   0.189 -0.1732 -0.1544 -0.1602
 3884W        W20145  14.533   3.946   3.696  0.2637  0.5106 -0.0599
 3885W        W20146   0.686  10.856  13.190  0.1977  0.3013 -0.0143
 3886W        W20147   7.800  12.147   4.620  0.0221  0.2016  0.2927
 3887W        W20148   7.592   9.338   2.087  0.1452  0.0674  0.2104
 3888W        W20149  14.517  16.114  12.285  0.0240 -0.2749  0.0474
 3889W        W20150   9.648  10.697   2.792 -0.2543 -0.0955 -0.2688
 3890W        W20151  14.786  15.099  11.743 -0.0013 -0.1077 -0.1252
 3891W        W20152  16.481  14.878   5.683  0.2674 -0.4655 -0.0049
 3892W        W20153   2.978  17.717  13.558  0.0245 -0.3291  0.2624
 3893W        W20154  12.238  14.439  12.751 -0.2726  0.0365  0.2545
 3894W        W20155  18.006  12.060  11.820 -0.0294 -0.0962 -0.1106
 3895W        W20156  16.491  10.044   4.670  0.0578  0.2376  0.1445
 3896W        W20157  10.313  14.997  15.165 -0.2500  0.0514  0.0277
 3897W        W20158   7.979   1.779   0.157  0.0741  0.0568 -0.0938
 3898W        W20159  13.885   6.874  14.193 -0.1365 -0.0991  0.1725
 3899W        W20160  15.913  11.181  16.249 -0.1232 -0.1792 -0.1134
 3900W        W20161   3.324   4.645   1.502  0.3367  0.0654 -0.1800
 3901W        W20162  10.721  16.039   5.341 -0.2829 -0.0885  0.0827
 3902W        W20163  16.231   0.017  16.012  0.0367 -0.4132  0.0875
 3903W        W20164   3.253   9.130   2.211 -0.0024 -0.0920  0.2263
 3904W        W20165  15.505   0.837  15.009  0.0763  0.0988  0.1865
 3905W        W20166   2.760   4.028   5.708  0.0717 -0.0431  0.1879
 3906W        W20167   8.710   0.972  14.230  0.0253  0.1040  0.2484
 3907W        W20168  12.477  18.067  11.793 -0.6111 -0.1558 -0.3098
 3908W        W20169   8.941   0.569  12.058 -0.2480  0.1727 -0.0882
 3909W        W20170   6.758  13.199  16.358 -0.0887  0.1432  0.2685
 3910W        W20171  12.364   8.349  12.321 -0.1892 -0.0446 -0.0927
 3911W        W20172  13.145   3.251   0.840  0.1160 -0.4672 -0.0742
 3912W        W20173  15.898  14.362  13.521 -0.0918  0.1332 -0.1325
 3913W        W20174   5.080   0.855   1.209 -0.2485  0.2312  0.0612
 3914W        W20175   5.459   2.345   4.112 -0.0378 -0.1196 -0.1155
 3915W        W20176   3.462  13.918  13.270  0.0834 -0.0004 -0.3132
 3916W        W20177  13.358   2.875  12.441 -0.1115 -0.0154 -0.2379
 3917W        W20178  17.675  15.064   5.809  0.0386  0.2696  0.0843
 3918W        W20179  10.829   1.326  12.902 -0.5156  0.3711  0.1310
 3919W        W20180  12.806   3.433  16.518  0.3649  0.2208  0.0476
 3920W        W20181  10.263   3.429   3.187  0.3670 -0.4746  0.0326
 3921W        W20182  10.760  10.208   4.250 -0.1934 -0.1234 -0.1089
 3922W        W20183  13.434  16.104   2.150  0.1295  0.2622  0.2924
 3923W        W20184  18.173   4.042   0.379 -0.1473  0.1677 -0.0364
 3924W        W20185  10.558  10.013   3.053 -0.1987 -0.1155  0.0338
 3925W        W20186   5.039  10.488   5.273  0.0133  0.0320  0.0638
 3926W        W20187  17.431  14.315   4.926 -0.0186 -0.3581 -0.0447
 3927W        W20188   4.186   1.358  15.418  0.1128 -0.4182  0.1548
 3928W        W20189  15.834   5.916  12.416  0.1384 -0.3149 -0.0257
 3929W        W20190   9.184   1.435  11.908 -0.2324  0.2912 -0.0018
 3930W        W20191   9.960   4.126  15.262 -0.0066  0.2383  0.0673
 3931W        W20192  16.526   2.241  13.656  0.0638  0.3387  0.1299
 3932W        W20193   6.530   0.389  15.490  0.1128  0.0917 -0.0836
 3933W        W20194   4.869  13.209   1.620  0.0494 -0.0524 -0.3475
 3934W        W20195   4.530   2.805  15.649  0.0855  0.0689  0.0255
 3935W        W20196   4.751   2.196   1.691  0.2322 -0.0562 -0.0736
 3936W        W20197  12.798   2.836  16.352 -0.0324  0.1300  0.0999
 3937W        W20198  10.991   2.907   1.463 -0.1902  0.0381  0.0582
 3938W        W20199  12.531   3.799   0.460 -0.1551  0.3561 -0.1391
 3939W        W20200   0.317   0.920   1.181  0.2415  0.1937 -0.0761
 3940W        W20201   0.857   4.542  11.092 -0.1821 -0.1231  0.0672
 3941W        W20202   4.090   5.170  16.643  0.0478 -0.0003  0.0435
 3942W        W20203  12.202   5.181   1.005 -0.1035  0.0464 -0.2795
 3943W        W20204  11.479  15.783   1.755 -0.1954 -0.1176 -0.2441
 3944W        W20205  17.298   8.540  16.650 -0.2665  0.1686  0.2376
 3945W        W20206   8.714   5.829   0.012  0.0259 -0.0195  0.1081
 3946W        W20207   7.691  18.172   0.544 -0.0260  0.3435 -0.1818
 3947W        W20208   1.523   8.749   4.559 -0.0437 -0.0122 -0.2144
 3948W        W20209   4.420  12.531  15.030  0.3659  0.2965  0.1664
 3949W        W20210   3.562   1.466  12.739  0.5255 -0.1079 -0.1482
 3950W        W20211   2.778   7.138  16.322 -0.0286  0.0937  0.2404
 3951W        W20212  14.959  12.932   2.949  0.3021 -0.3058  0.0646
 3952W        W20213  11.773   9.965  13.625 -0.1190 -0.2956 -0.1971
 3953W        W20214   1.416   5.442  16.246 -0.1742  0.0872 -0.0226
 3954W        W20215   1.786  10.577  14.841 -0.2833 -0.0018 -0.2482
 3955W        W20216   4.803  14.732  15.009  0.1683 -0.0392 -0.2086
 3956W        W20217   5.317   8.900  11.533 -0.3182  0.0894  0.2086
 3957W        W20218  11.028   4.825  15.667 -0.0828  0.0172  0.0865
 3958W        W20219   1.366  17.599   4.959  0.0738  0.0589 -0.3179
 3959W        W20220  10.116  14.899   3.847 -0.1319  0.1466 -0.1051
 3960W        W20221  12.886   2.798   2.314  0.3360 -0.3028 -0.2189
 3961W        W20222   4.941   6.187   1.410  0.3619  0.2379  0.0396
 3962W        W20223   8.102  16.184   2.819  0.0771  0.0383 -0.0785
 3963W        W20224   0.950   9.225   3.297 -0.0551  0.0420 -0.0750
 3964W        W20225  13.203   6.172   2.661  0.1286 -0.4521  0.0334
 3965W        W20226  13.827   6.577   0.022  0.0328  0.0139 -0.0488
 3966W        W20227  11.003   5.114   3.147 -0.1934  0.1698  0.2250
 3967W        W20228  13.552  17.038  12.986 -0.0367 -0.2627  0.0839
 3968W        W20229  15.121  13.690  14.615 -0.1652  0.0539 -0.0714
 3969W        W20230   7.149   0.846  14.278 -0.0921 -0.1054  0.0607
 3970W        W20231  13.513   2.640   6.238  0.0385  0.0781 -0.1513
 3971W        W20232   7.350  11.981  13.353 -0.0659 -0.1179  0.2837
 3972W        W20233   7.971  17.837  14.857  0.1712  0.1037  0.1551
 3973W        W20234   1.851  13.977   3.912  0.3187 -0.1907 -0.1545
 3974W        W20235   6.097  12.657   0.152  0.0462 -0.0234 -0.0238
 3975W        W20236   0.735  11.939  12.630 -0.1960 -0.2560 -0.3639
 3976W        W20237   7.691  15.936  16.530  0.0004  0.1364 -0.1330
 3977W        W20238   6.191   7.355   1.359 -0.1133  0.0106  0.3157
 3978W        W20239   1.524  15.825  12.169  0.0299 -0.1259 -0.0150
 3979W        W20240  14.800  14.144  13.159 -0.0287  0.3945 -0.1846
 3980W        W20241  16.416  12.001   2.269 -0.0875 -0.3127 -0.0001
 3981W        W20242  17.429   0.175  14.432 -0.0338 -0.2002 -0.0969
 3982W        W20243  15.259  15.489  13.273  0.1480 -0.1672  0.0642
 3983W        W20244   4.994   1.043   5.536  0.0732  0.2071  0.0719
 3984W        W20245   1.967   0.509  13.860 -0.1400  0.2004  0.0730
 3985W        W20246  15.247   7.157  11.892 -0.1300 -0.2442 -0.3642
 3986W        W20247  16.434  11.640  11.972  0.3738  0.1739 -0.0936
 3987W        W20248   1.454  11.282  12.213 -0.2060 -0.2737 -0.0460
 3988W        W20249   6.204   8.427  11.356 -0.0782  0.0739 -0.0436
 3989W        W20250   2.779   9.134  14.951  0.0366 -0.0838  0.2739
 3990W        W20251   7.532   9.995   3.503 -0.2849  0.0651  0.0149
 3991W        W20252   6.502   9.747   0.473 -0.0836  0.1650  0.2780
 3992W        W20253  10.675   9.774   4.407 -0.2505  0.1777  0.5132
 3993W        W20254   8.720   9.241  11.055 -0.4103 -0.3625  0.0320
 3994W        W20255   6.888  12.766  14.080  0.0351  0.0645 -0.2474
 3995W        W20256   8.163  13.965  16.492  0.0842 -0.1216 -0.0407
 3996W        W20257  13.029  13.062   2.249 -0.0605 -0.1881 -0.0078
 3997W        W20258   8.462   9.964   4.051 -0.2012 -0.2289  0.0961
 3998W        W20259   4.907   8.146  13.473 -0.0703 -0.2015  0.0836
 3999W        W20260   7.947  16.238   1.359  0.0191 -0.2956 -0.1346
 4000W        W20261   3.387  11.738   2.184 -0.1084 -0.2657 -0.0939
 4001W        W20262   2.260  17.207   3.831  0.2637 -0.2288  0.1091
 4002W        W20263   7.281  14.577  16.617 -0.0150 -0.1634 -0.2384
 4003W        W20264   1.232  10.655  16.382 -0.1234  0.2828  0.2542
 4004W        W20265  13.847   0.473  16.134 -0.0898  0.3975 -0.0023
 4005W        W20266  13.067   8.325  12.599  0.0164 -0.1247 -0.2638
 4006W        W20267   1.826  14.996   0.295  0.4663  0.2515 -0.2726
 4007W        W20268  16.360   8.136  12.942  0.1580  0.1979  0.2723
 4008W        W20269  13.244   8.812  14.138  0.1917 -0.2482 -0.1546
 4009W        W20270  16.851  14.886   0.840  0.1909  0.0678 -0.5938
 4010W        W20271  17.767  16.842  12.901 -0.0809 -0.1828 -0.1365
 4011W        W20272  10.375  17.441  16.383 -0.1939  0.0723 -0.1789
 4012W        W20273  11.457   1.368  11.585 -0.1390 -0.0009 -0.0208
 4013W        W20274  14.019   6.942   0.272  0.0682  0.0724 -0.1224
 4014W        W20275   5.341  10.836  15.972 -0.0832  0.1578 -0.0839
 4015W        W20276  13.289  12.001  16.604 -0.2177  0.0476  0.0529
 4016W        W20277   3.181   3.371  14.023 -0.1005 -0.1732  0.0180
 4017W        W20278  15.513   8.366   0.983 -0.0994  0.1541  0.0749
 4018W        W20279   5.838   5.700  14.412  0.2583 -0.0525  0.4408
 4019W        W20280  14.323   9.904   3.474  0.1788  0.0417  0.0346
 4020W        W20281   2.536  16.816   3.583  0.2478  0.0649 -0.0922
 4021W        W20282  12.144   3.668   1.390  0.3287  0.2316 -0.0200
 4022W        W20283   2.619   7.471   5.369  0.1588 -0.0349 -0.0782
 4023W        W20284  13.646  14.254   1.058 -0.0665 -0.0864 -0.0994
 4024W        W20285  13.349   2.588  12.938  0.0625 -0.1713 -0.0595
 4025W        W20286   3.232  12.741  16.612  0.0742 -0.0504 -0.0160
 4026W        W20287  15.042   7.712  16.109  0.0611 -0.3016 -0.0471
 4027W        W20288   5.573  16.925   2.345  0.3180  0.2089  0.0649
 4028W        W20289  10.637  17.974  14.098  0.0097  0.0165  0.2571
 4029W        W20290   6.993   4.782  12.354 -0.4619  0.0817  0.1122
 4030W        W20291   1.685   2.814  14.867  0.1095 -0.3556  0.2989
 4031W        W20292  15.997   1.379   3.572 -0.2453 -0.0118  0.0189
 4032W        W20293   9.816   4.428  12.392 -0.0019  0.2559 -0.2833
 4033W        W20294   9.103  16.273   4.410 -0.0421  0.1058 -0.0233
 4034W        W20295   7.358   4.574  14.398 -0.1741 -0.2745  0.1649
 4035W        W20296   6.438   1.242   0.367  0.1893  0.0573  0.1246
 4036W        W20297   2.755   3.895  13.515 -0.0120 -0.2789  0.1931
 4037W        W20298   3.814   7.848   4.738 -0.3407 -0.3089 -0.1276
 4038W        W20299   4.518  10.491  13.569 -0.0686 -0.1057 -0.0504
 4039W        W20300   2.394   4.133   2.299 -0.1107 -0.0663  0.0019
 4040W        W20301   1.984   4.621  13.030 -0.1305  0.0960  0.1347
 4041W        W20302  15.218  13.337   5.582 -0.2422 -0.0294  0.0798
 4042W        W20303  15.980  12.796   1.327 -0.0296 -0.0702 -0.4602
 4043W        W20304  11.681   4.802  14.993  0.2244  0.1217 -0.2439
 4044W        W20305   6.518  11.390  13.049  0.1110 -0.0988 -0.0358
 4045W        W20306  12.827   1.822  10.225  0.1502  0.1780 -0.0433
 4046W        W20307  16.991  14.167   2.835 -0.0434  0.3146  0.1117
 4047W        W20308   3.910  13.898   2.876 -0.1757  0.0273 -0.0530
 4048W        W20309  13.455   6.738   4.198 -0.1792 -0.2266 -0.0823
 4049W        W20310   8.777   9.226   0.051  0.1222  0.1436 -0.1429
 4050W        W20311   1.493   5.852   0.505  0.3078  0.1884 -0.1730
 4051W        W20312  13.705  16.778  15.824 -0.3919 -0.1385 -0.1549
 4052W        W20313  16.992  14.719   5.862  0.0819 -0.2287  0.0093
 4053W        W20314  17.164   5.324  15.174 -0.2073 -0.0681 -0.0794
 4054W        W20315   5.456  16.298   5.247  0.0014  0.0716  0.2231
 4055W        W20316   0.843  15.363  12.685  0.4970  0.1069 -0.2824
 4056W        W20317   6.722  16.353   5.810  0.0002 -0.0778  0.1139
 4057W        W20318   0.613   4.780  14.507 -0.1905  0.2667  0.1325
 4058W        W20319   5.340   3.160  16.142 -0.0658  0.1033  0.1637
 4059W        W20320   5.315  13.089  15.335 -0.0633  0.0520  0.2246
 4060W        W20321  15.812  16.006  15.860 -0.1214 -0.0398 -0.1565
 4061W        W20322   9.302   1.350   2.021  0.1936  0.1263 -0.1255
 4062W        W20323  10.500  13.317  14.695  0.0231 -0.0049  0.0189
 4063W        W20324   2.874  10.571   0.564 -0.0813 -0.0550  0.0902
 4064W        W20325   8.398   1.868   2.949 -0.2580 -0.0276 -0.2089
 4065W        W20326  16.352   1.584  12.532 -0.1703  0.0997 -0.2593
 4066W        W20327  10.337  12.268  16.475 -0.2242 -0.0769  0.3546
 4067W        W20328   3.410  13.303   4.617 -0.1088 -0.1254 -0.0541
 4068W        W20329   1.500  17.183  13.107  0.1005  0.1240 -0.2299
 4069W        W20330  14.210   6.795   0.714 -0.0128 -0.4696  0.0908
 4070W        W20331  14.092  16.610   2.601 -0.1568  0.2026 -0.0280
 4071W        W20332  17.967   2.703  12.629  0.2374 -0.1799  0.0126
 4072W        W20333  10.581  15.716  13.320  0.1018  0.2768 -0.2202
 4073W        W20334  11.619   0.809  13.491  0.0560 -0.0276  0.1410
 4074W        W20335  12.493   1.226   2.051  0.1384 -0.1074 -0.2685
 4075W        W20336  15.972  16.835  15.386  0.0066 -0.2013  0.1862
 4076W        W20337   5.902   4.376  10.241 -0.3494 -0.2366  0.2860
 4077W        W20338   1.066   7.214   5.230 -0.0894 -0.3627  0.3792
 4078W        W20339   5.364  16.427  14.537  0.0615  0.2957 -0.1956
 4079W        W20340   6.971  15.452  14.548  0.0438  0.0047 -0.1980
 4080W        W20341   3.423   0.928  14.496  0.2299  0.0992  0.1559
 4081W        W20342   6.206  16.768   0.432 -0.1934  0.1978  0.0275
 4082W        W20343   0.765   0.811   4.274  0.2346  0.4401  0.0941
 4083W        W20344  11.527   9.539   4.867 -0.0909 -0.0086  0.1714
 4084W        W20345   0.195   6.382   2.016 -0.2341 -0.1247 -0.1990
 4085W        W20346   4.513  11.320  12.299 -0.0456  0.2249 -0.0314
 4086W        W20347   3.959  14.058   2.007  0.0512 -0.1296  0.2579
 4087W        W20348  12.402  15.970   5.013 -0.2060  0.1643 -0.2909
 4088W        W20349  17.322  17.376  15.628 -0.1388  0.0567  0.2357
 4089W        W20350   3.185  11.129  11.636  0.0669  0.6632 -0.1817
 4090W        W20351   6.360   3.203  13.610 -0.0433 -0.2847  0.0281
 4091W        W20352   9.161  14.294   5.334 -0.0631  0.1184 -0.3544
 4092W        W20353   8.002  17.928   1.592 -0.0550 -0.0497 -0.2127
 4093W        W20354   8.883  12.873  16.264 -0.0589  0.1048  0.0345
 4094W        W20355  16.948   6.138   1.489  0.2777 -0.0112  0.0268
 4095W        W20356  15.487   1.171   3.736  0.0792 -0.0776  0.2035
 4096W        W20357  13.920   4.488   2.448 -0.2302 -0.1522  0.0635
 4097W        W20358  16.697  11.907  15.770  0.1556 -0.0167  0.2112
 4098W        W20359   7.395  12.427  16.070  0.3735  0.0046  0.1131
 4099W        W20360  17.773  17.639   4.757 -0.2410  0.3255 -0.0788
 4100W        W20361  14.668  16.380  14.981  0.1462 -0.1423 -0.1119
 4101W        W20362  13.332   2.530   2.425  0.1645  0.0581 -0.1196
 4102W        W20363   8.396   4.766  13.424 -0.2932 -0.1591  0.1751
 4103W        W20364   6.044   4.144  16.638  0.0173 -0.0003  0.0919
 4104W        W20365  17.714   3.721   6.928  0.0858 -0.0185  0.1859
 4105W        W20366  14.526   0.208  15.862 -0.2776  0.2391 -0.0619
 4106W        W20367   2.961  15.063   3.682 -0.0107  0.0042  0.1089
 4107W        W20368   4.234  14.468   0.327  0.1943  0.3949  0.0019
 4108W        W20369   0.162  11.271   5.336 -0.1955 -0.0315  0.0713
 4109W        W20370   7.029  12.108  15.593  0.4411 -0.1154 -0.2624
 4110W        W20371  13.900   7.926   1.751 -0.0376  0.0910  0.1189
 4111W        W20372   3.779   2.972  14.412  0.1209 -0.2080 -0.3002
 4112W        W20373   7.559  15.722  11.689  0.0391 -0.1837  0.0907
 4113W        W20374  18.106   4.496   0.655 -0.2027  0.2148 -0.0998
 4114W        W20375  15.467   4.163   5.623  0.0074  0.0214  0.2102
 4115W        W20376  11.860  15.110   2.772  0.2089 -0.1775  0.4803
 4116W        W20377   4.777   6.598   2.774 -0.1469  0.1888 -0.2355
 4117W        W20378  13.522   8.232   5.425 -0.1276 -0.3561  0.1932
 4118W        W20379  13.948   5.644  14.099 -0.1341  0.0518  0.0718
 4119W        W20380  15.821   8.575  13.203 -0.1525  0.2690  0.1765
 4120W        W20381   9.860  15.224   1.568 -0.0741 -0.2340 -0.2163
 4121W        W20382   3.023   4.776   4.027  0.0881  0.0767 -0.2242
 4122W        W20383   2.674   2.542   1.043  0.1273 -0.3993  0.3426
 4123W        W20384   8.410   2.934  12.732  0.0658 -0.2751  0.1773
 4124W        W20385  15.111   7.868   0.786 -0.0192  0.1902  0.2589
 4125W        W20386  17.414   0.150  15.005 -0.1590 -0.0231 -0.0936
 4126W        W20387  13.268  15.955   1.049 -0.0282  0.0179 -0.1502
 4127W        W20388   4.229  14.501  12.214 -0.6596  0.0450 -0.1652
 4128W        W20389   4.355   3.759   6.205 -0.2590  0.2755  0.1380
 4129W        W20390   9.798  16.997   3.823  0.0141 -0.1331 -0.1806
 4130W        W20391  11.713  17.753   2.709 -0.1639  0.0315  0.3131
 4131W        W20392   7.138   2.098   1.272  0.1029  0.2588 -0.2251
 4132W        W20393  17.681   1.444   1.858  0.2538  0.3411 -0.2141
 4133W        W20394  14.141   9.319  13.980  0.1488 -0.0621  0.1383
 4134W        W20395  13.119  11.703   1.478  0.0275 -0.0016 -0.0213
 4135W        W20396  12.766   1.264   0.527  0.0059 -0.4160 -0.0187
 4136W        W20397  17.361   3.830   5.348  0.0226 -0.1638 -0.0386
 4137W        W20398  10.050   1.819   2.002 -0.0336 -0.0261  0.2117
 4138W        W20399  10.027  15.488   1.081 -0.0539  0.0488 -0.1186
 4139W        W20400  10.579  14.655   1.566 -0.2348  0.1817  0.0928
 4140W        W20401  12.133  16.051   4.282 -0.1125 -0.3228  0.3319
 4141W        W20402  14.208   8.522   1.703  0.1101 -0.0559  0.1370
 4142W        W20403   9.740  17.028   1.558 -0.1395  0.0072  0.0393
 4143W        W20404   4.205  14.138   3.697  0.0723  0.0095 -0.1340
 4144W        W20405   9.336  15.904  15.621 -0.3010  0.0306 -0.2176
 4145W        W20406   4.485   5.963  15.279 -0.0348 -0.1126  0.1449
 4146W        W20407  10.143  13.633   0.670 -0.0426 -0.0695  0.0602
 4147W        W20408  12.407  14.386  12.265 -0.0815 -0.0728  0.1270
 4148W        W20409  12.857  10.889   1.624 -0.0917 -0.4061 -0.2609
 4149W        W20410   9.091   0.950  12.820  0.1592  0.0487 -0.2607
 4150W        W20411  17.187  12.041   3.228 -0.0844 -0.0120 -0.1149
 4151W        W20412  10.741  13.207  15.167 -0.0440  0.0266 -0.3130
 4152W        W20413  15.141   4.749   2.915  0.0719 -0.0512 -0.0190
 4153W        W20414   5.345   7.377  16.119  0.0365 -0.0839 -0.4225
 4154W        W20415  15.415   6.056  15.604 -0.2434  0.0337 -0.4517
 4155W        W20416  11.120   9.131   3.856  0.0896 -0.2625 -0.2959
 4156W        W20417   1.273   0.556   3.070 -0.1517 -0.1375 -0.3473
 4157W        W20418  16.979  17.311   5.364  0.0080 -0.0585 -0.1165
 4158W        W20419   9.197   1.036   0.546  0.0917  0.1118  0.0462
 4159W        W20420   6.827   3.279  13.774  0.0305  0.1414 -0.1111
 4160W        W20421  12.665  13.075  13.420  0.3856 -0.0085 -0.0288
 4161W        W20422   8.063  14.397   3.587  0.0793 -0.2805  0.2135
 4162W        W20423   5.640   2.751  14.706  0.1306 -0.3496  0.2524
 4163W        W20424  16.786  12.900  12.768  0.2463  0.1416  0.2908
 4164W        W20425  14.363  15.329   1.982  0.0300 -0.2870  0.3655
 4165W        W20426   6.840  15.067  13.405 -0.3250  0.0918 -0.0265
 4166W        W20427  16.259  15.980  16.075  0.0494  0.0393 -0.0506
 4167W        W20428   8.439  12.646  13.967 -0.1930 -0.1774  0.5896
 4168W        W20429  14.060  15.059  15.189  0.0354 -0.3590 -0.2578
 4169W        W20430   9.284   2.987   3.921 -0.0682 -0.2228  0.2085
 4170W        W20431   5.382  17.463   4.574 -0.0636  0.0685  0.1415
 4171W        W20432   6.561  17.996   0.137 -0.0873  0.1095  0.1340
 4172W        W20433   1.881   5.322   6.399 -0.0112 -0.0747  0.0390
 4173W        W20434  16.486   5.500   5.766  0.1703  0.0890 -0.0791
 4174W        W20435   5.117  14.549   1.005 -0.4137 -0.0294 -0.1616
 4175W        W20436   5.446  13.168  14.488  0.0415 -0.2715 -0.1150
 4176W        W20437   9.014  16.513  16.545  0.0172 -0.0750 -0.3779
 4177W        W20438  17.825  15.756   1.031  0.0235  0.0427 -0.0470
 4178W        W20439   1.715   6.186   2.832 -0.2277  0.0503 -0.0205
 4179W        W20440   9.099   6.676  11.828  0.2596 -0.0166  0.0027
 4180W        W20441  15.729  13.887   4.725 -0.0143  0.0109 -0.0686
 4181W        W20442   0.778  14.255   0.812 -0.1474 -0.0593  0.1659
 4182W        W20443  17.822   2.273  14.661 -0.0938  0.1557 -0.0831
 4183W        W20444  16.448   2.311  14.718  0.1766 -0.0683 -0.0054
 4184W        W20445   7.999  13.758   4.445 -0.0758 -0.2270 -0.1162
 4185W        W20446   2.877   6.869  14.844 -0.0836 -0.0115 -0.4856
 4186W        W20447  11.090   5.499  14.580  0.0328 -0.2057 -0.3221
 4187W        W20448  13.426  14.973   3.158  0.2739  0.1079  0.0294
 4188W        W20449   3.183  11.289  15.350  0.0374 -0.0386 -0.0129
 4189W        W20450   0.014   0.644   4.750 -0.0850 -0.0476  0.0191
 4190W        W20451   5.040  17.096  13.596 -0.0692  0.2215  0.3029
 4191W        W20452  12.743  11.610  13.036 -0.1709 -0.0831  0.1073
 4192W        W20453   3.486   6.519   3.628 -0.0239  0.3133 -0.1511
 4193W        W20454   1.440  17.127   1.283 -0.0198  0.0536  0.0263
 4194W        W20455  16.402  17.786  15.726 -0.0020 -0.0300  0.0200
 4195W        W20456   7.742  15.519   5.320  0.3888 -0.2176 -0.2663
 4196W        W20457   0.836   6.947   5.692  0.0654  0.0943  0.1380
 4197W        W20458   4.808  13.764   3.099  0.3796 -0.1747 -0.0514
 4198W        W20459  12.828   9.564  10.607  0.4326  0.0311 -0.0301
 4199W        W20460   1.595   8.246   5.296  0.1796  0.1605  0.0965
 4200W        W20461   3.062   7.425   0.856 -0.1204  0.1509  0.1506
 4201W        W20462   9.813  16.785   3.342 -0.2722  0.3802 -0.2333
 4202W        W20463   8.903  12.723  13.665 -0.0244  0.0621  0.1919
 4203W        W20464  15.540  14.166  15.840  0.0254  0.3567  0.2926
 4204W        W20465   4.756  14.955  14.522  0.0210 -0.1533  0.0831
 4205W        W20466   1.267   2.606  11.480 -0.1680  0.1653  0.3234
 4206W        W20467   7.913  12.823  14.576  0.1304 -0.0700  0.1537
 4207W        W20468   9.712  10.210   4.218 -0.0241 -0.1638  0.0144
 4208W        W20469   8.040   9.627  15.388 -0.1136  0.4403  0.2047
 4209W        W20470   5.660  14.411   1.605 -0.2603 -0.2017  0.1088
 4210W        W20471   6.611  16.350  13.431 -0.1168 -0.0543  0.1762
 4211W        W20472  17.433   2.790  11.617 -0.0608  0.2990 -0.0806
 4212W        W20473   1.700   4.514   1.772 -0.1323  0.1028 -0.2429
 4213W        W20474   4.045  18.067   5.008 -0.0774 -0.0099  0.1434
 4214W        W20475  17.982  14.966  13.527  0.1337 -0.3119  0.1523
 4215W        W20476   5.382   0.242   2.983  0.3832 -0.0911  0.1186
 4216W        W20477  11.522   9.824  12.444  0.0151 -0.4361 -0.2903
 4217W        W20478   2.135   7.224   4.792  0.0197  0.2497 -0.1273
 4218W        W20479  14.029  10.010   0.837  0.1025  0.1966  0.1173
 4219W        W20480   8.529   9.028   3.990 -0.1610 -0.1970  0.2041
 4220W        W20481   2.053   2.054  15.432 -0.2538 -0.2127 -0.1536
 4221W        W20482  14.383   9.214  16.069  0.1160  0.1828  0.0762
 4222W        W20483   7.943  11.233   1.312 -0.0010 -0.0830 -0.0394
 4223W        W20484   7.549   7.299  13.917 -0.0831  0.0120  0.2491
 4224W        W20485   5.914   6.334   4.486 -0.1115  0.1173 -0.1655
 4225W        W20486  12.194   5.530   4.820 -0.1614  0.1017  0.2563
 4226W        W20487   8.089   3.649  12.134 -0.0996 -0.0430  0.0059
 4227W        W20488  12.356   3.659  15.336 -0.1898 -0.0021  0.1464
 4228W        W20489  17.846   0.285   3.424  0.0598  0.0149 -0.0253
 4229W        W20490   6.075  18.039  11.685  0.0341  0.0822  0.1509
 4230W        W20491   6.839   7.582   1.398 -0.2745 -0.1597 -0.4726
 4231W        W20492  12.357  10.020  14.177  0.0399  0.1013 -0.1886
 4232W        W20493  16.505   5.932   3.411  0.1753  0.0283 -0.2082
 4233W        W20494   2.339  16.759  14.714 -0.0798  0.2409  0.4390
 4234W        W20495  16.125  13.345   0.053 -0.1934  0.0272  0.1890
 4235W        W20496   1.347   5.716   2.854 -0.0934  0.2076  0.0545
 4236W        W20497   0.671  16.688  14.148 -0.2059 -0.0595  0.3059
 4237W        W20498  12.006   7.350  14.839  0.0410 -0.0126 -0.3310
 4238W        W20499  13.239  11.410   3.903  0.3074 -0.2138  0.1149
 4239W        W20500   8.975   3.303  15.364 -0.0306 -0.1145 -0.2562
 4240W        W20501   6.844  15.318  16.542  0.0232  0.1660  0.0226
 4241W        W20502   7.905   9.785   4.319  0.1291 -0.1809  0.3414
 4242W        W20503  11.238  17.188   4.846  0.0563  0.1592 -0.1414
 4243W        W20504   3.044   9.751   5.475 -0.0678 -0.0196  0.4604
 4244W        W20505   6.763   7.056  11.900  0.3427  0.0310  0.0025
 4245W        W20506   4.184   3.092   0.822  0.3291  0.0513  0.2423
 4246W        W20507   8.121   7.808   3.472  0.0347  0.1516  0.1516
 4247W        W20508   3.544   8.992  16.142 -0.2045 -0.1657 -0.1185
 4248W        W20509   3.205   5.629  10.766  0.1892 -0.0189 -0.0318
 4249W        W20510   1.168   7.179  13.438 -0.1505  0.0214  0.1790
 4250W        W20511  15.720  11.661   2.989 -0.3448  0.1538  0.1646
 4251W        W20512  15.320   5.345   0.611 -0.3487  0.0722 -0.1101
 4252W        W20513  15.886  14.418  15.383  0.1299  0.1412  0.0136
 4253W        W20514  11.887   2.560  13.413 -0.2969  0.0961 -0.0134
 4254W        W20515   6.366   5.869   1.785  0.1208  0.0804 -0.1222
 4255W        W20516   7.909   2.400   1.801 -0.1697  0.1441 -0.2285
 4256W        W20517   9.467   6.056  11.107  0.1910 -0.0388 -0.1490
 4257W        W20518  14.027  10.012   3.157 -0.2733 -0.2174 -0.1916
 4258W        W20519  11.644  12.876  12.678  0.1839 -0.1972 -0.1929
 4259W        W20520  14.156   2.020  11.926 -0.1199  0.0023 -0.1805
 4260W        W20521   0.480   1.129   2.511  0.2972  0.2159  0.1851
 4261W        W20522   6.111   8.711   5.228 -0.5215  0.1982 -0.1747
 4262W        W20523   7.301   5.387   1.139 -0.4231 -0.0327 -0.1701
 4263W        W20524   4.475   1.707  14.053  0.0447  0.0609 -0.1330
 4264W        W20525  11.978   4.423   3.954  0.3027 -0.1988  0.1582
 4265W        W20526   7.553   1.870   4.957 -0.2432  0.2636  0.3051
 4266W        W20527  14.038  13.403   5.766 -0.3807 -0.2920  0.0462
 4267W        W20528  13.110   3.011  12.817 -0.1106 -0.0695  0.2737
 4268W        W20529   2.298   1.103  15.354 -0.2801 -0.0155  0.0179
 4269W        W20530   8.981   0.483   0.489 -0.0016 -0.5263 -0.0358
 4270W        W20531   2.529  15.464   1.488  0.0535 -0.3050 -0.2995
 4271W        W20532  11.018   4.345  14.326  0.0640 -0.0793  0.0514
 4272W        W20533  12.372  12.333   4.046 -0.0449 -0.2064 -0.1383
 4273W        W20534  16.414   9.863   2.625  0.1313 -0.2120 -0.1727
 4274W        W20535  16.973   7.230  12.575 -0.1478  0.2285  0.0184
 4275W        W20536  11.078   1.263  14.981 -0.0136 -0.2757 -0.1250
 4276W        W20537   0.978  16.190   1.080  0.1812 -0.1177 -0.2618
 4277W        W20538  13.553  13.606   4.383  0.0283 -0.1682 -0.2431
 4278W        W20539  10.701   6.232   1.139 -0.0416  0.1262 -0.2356
 4279W        W20540  13.841   3.315   4.757 -0.1562 -0.1311  0.1412
 4280W        W20541   9.373   0.605  14.650 -0.0782  0.0076 -0.2190
 4281W        W20542   8.940  16.850  13.435  0.3364 -0.0661 -0.1476
 4282W        W20543   6.855  13.953   2.779  0.0317 -0.0289  0.1119
 4283W        W20544  13.093   7.580  12.034 -0.0360 -0.2655 -0.1088
 4284W        W20545   3.577   9.173  12.735  0.1828 -0.3513  0.0157
 4285W        W20546   5.162   6.180   5.083 -0.2421 -0.1209  0.1193
 4286W        W20547   9.410   8.245  12.536  0.0941 -0.0411  0.2452
 4287W        W20548   3.354   3.375  15.797 -0.3300  0.1313 -0.1401
 4288W        W20549   0.394   6.032  12.677 -0.2106 -0.0887 -0.1516
 4289W        W20550   7.145  14.774  12.723 -0.0074  0.1244 -0.0113
 4290W        W20551   9.979  14.734  12.221 -0.0272  0.1859  0.4951
 4291W        W20552  12.010   3.678   3.891  0.2226 -0.2875  0.1306
 4292W        W20553  10.638   0.491   0.090 -0.3313 -0.0958 -0.2451
 4293W        W20554   0.270  10.116  13.268 -0.1757 -0.3376  0.4259
 4294W        W20555   5.085  12.717   0.906  0.0991 -0.0136 -0.0415
 4295W        W20556  14.213   5.228  13.858 -0.0068 -0.1168 -0.1465
 4296W        W20557   0.100   8.828   3.431 -0.0001 -0.0528 -0.2282
 4297W        W20558   2.604   2.520  14.129 -0.0090  0.3111 -0.0458
 4298W        W20559  11.022   5.750  14.132  0.1592 -0.1378 -0.1052
 4299W        W20560  13.649  17.440  14.448 -0.1005 -0.2219  0.4670
 4300W        W20561  17.660  11.405   2.335  0.0436  0.0677  0.3624
 4301W        W20562  10.849   7.951  14.522 -0.1320 -0.0828 -0.2353
 4302W        W20563  17.902   2.770   0.951  0.1429 -0.1224  0.3704
 4303W        W20564  12.409  11.574   0.235  0.3380  0.0716  0.0958
 4304W        W20565  16.528  12.929   3.824 -0.0468 -0.0828  0.1782
 4305W        W20566   8.180  17.668   2.056  0.3867  0.0770 -0.0532
 4306W        W20567   7.246  10.579  14.777  0.1838  0.4338 -0.0812
 4307W        W20568   2.970   6.453   4.539  0.0935  0.0797 -0.1899
 4308W        W20569  13.558  14.791   0.772 -0.0156 -0.4762 -0.0660
 4309W        W20570  18.155  17.696   0.898 -0.3692 -0.1851 -0.0169
 4310W        W20571  16.091  17.408   1.372 -0.3972  0.0988  0.1263
 4311W        W20572   6.690  10.063  16.018  0.0759 -0.4767  0.0855
 4312W        W20573   2.998  12.828   0.890 -0.0318 -0.0715 -0.1765
 4313W        W20574  17.328   0.152   3.257 -0.0155 -0.2078 -0.1736
 4314W        W20575   3.936  15.803   3.013  0.1748 -0.1737  0.1263
 4315W        W20576  13.886   2.427   2.418 -0.1378  0.0160 -0.0394
 4316W        W20577  13.644  10.652   4.346  0.4928  0.2654  0.0936
 4317W        W20578  13.841  18.100  14.196 -0.1146 -0.2514 -0.0804
 4318W        W20579  18.059  15.675   3.282  0.0394 -0.0782  0.1378
 4319W        W20580  17.474   5.981   3.143  0.1457  0.2743  0.3638
 4320W        W20581   3.574   7.156   1.581 -0.0746  0.2308  0.3660
 4321W        W20582  18.075   6.251  14.254  0.1376  0.1341 -0.0007
 4322W        W20583   8.820   3.328  12.745  0.3620  0.2513 -0.5162
 4323W        W20584  16.943  15.725  15.437 -0.0012 -0.1349  0.0178
 4324W        W20585  17.193  13.184  13.188 -0.0868  0.3196 -0.1546
 4325W        W20586  16.928  15.691  13.415 -0.0250  0.1216  0.2579
 4326W        W20587  11.373  10.208   2.221 -0.0997  0.0665  0.1948
 4327W        W20588  15.468  18.051  15.880  0.1272 -0.2655  0.1055
 4328W        W20589  18.108  14.534  12.516 -0.1217 -0.0434 -0.3457
 4329W        W20590   7.108   5.942  11.658  0.3832  0.0706 -0.2091
 4330W        W20591  17.132  13.905   2.356  0.2002  0.6382 -0.0320
 4331W        W20592  12.451   6.256  12.365  0.0246  0.4475  0.1884
 4332W        W20593   2.252  16.803   5.052  0.0634  0.1806 -0.1483
 4333W        W20594   9.688   4.919   2.946  0.1480  0.0567 -0.1071
 4334W        W20595   4.604  16.821   4.556  0.1400 -0.1836 -0.0079
 4335W        W20596   2.074   0.524  11.398 -0.3799  0.0721 -0.3268
 4336W        W20597  15.850   5.166  15.725  0.2207 -0.1337  0.0295
 4337W        W20598   1.584  13.774  11.588 -0.1495  0.0369 -0.0376
 4338W        W20599   0.095   2.156  14.808  0.2625  0.1421  0.1753
 4339W        W20600   4.460  15.500   3.432 -0.2258  0.1009 -0.1728
 4340W        W20601   5.716   3.269  15.704 -0.2523 -0.2091  0.0304
 4341W        W20602  10.529   5.258  16.425  0.0296  0.4035 -0.0550
 4342W        W20603   9.979   0.411  13.172 -0.2508  0.1495 -0.0156
 4343W        W20604  17.865  13.292  15.076  0.1867  0.2045 -0.0583
 4344W        W20605   6.004   5.609   1.616 -0.2916  0.1879 -0.0012
 4345W        W20606  11.498   8.018   5.088 -0.0255 -0.3037 -0.0335
 4346W        W20607   9.748   8.847   0.550  0.1448 -0.0618 -0.1124
 4347W        W20608  12.291  10.499  10.670  0.1403  0.2320  0.2209
 4348W        W20609   6.004   0.520   0.994  0.0075  0.1152  0.0089
 4349W        W20610  16.819   1.198   5.438  0.0588  0.0263  0.2169
 4350W        W20611  13.895  11.895   4.019  0.2123  0.3093 -0.2494
 4351W        W20612  14.758   8.532  15.313  0.2210 -0.4818  0.2482
 4352W        W20613   3.172   4.213  13.557  0.3347 -0.0823  0.1338
 4353W        W20614   1.771  17.092   3.637 -0.3193  0.0394 -0.0385
 4354W        W20615  15.862  11.115   2.068  0.0507 -0.0888  0.4581
 4355W        W20616   4.141   7.396   3.407  0.2778  0.0829  0.0038
 4356W        W20617   8.077  10.675  14.341 -0.0908 -0.0877 -0.2182
 4357W        W20618   1.521   3.734  14.940  0.2432 -0.0814  0.0413
 4358W        W20619  16.345   8.834   3.957 -0.0032  0.0711 -0.2196
 4359W        W20620  11.003   4.842   1.373 -0.0017  0.1057  0.2988
 4360W        W20621  12.404  10.445  14.960  0.0668  0.3363  0.0122
 4361W        W20622  12.905   4.622   3.586  0.2182  0.3554  0.2709
 4362W        W20623   9.122  10.152  14.308  0.2809 -0.1210 -0.2001
 4363W        W20624  15.693   9.068  16.155  0.2525  0.4653  0.0485
 4364W        W20625   2.259  11.356   3.413  0.2458 -0.1136  0.0547
 4365W        W20626   9.231   1.584  16.453  0.0108  0.0451  0.0387
 4366W        W20627  11.984   4.871   5.610 -0.4083 -0.1726  0.1072
 4367W        W20628   2.233  14.487   1.565 -0.0903  0.0727 -0.2078
 4368W        W20629  12.257   3.799  16.391 -0.1193 -0.2373  0.2403
 4369W        W20630  10.532   9.263   4.622 -0.2582  0.1391  0.2903
 4370W        W20631  11.994  12.523  15.279 -0.3876  0.0371  0.2894
 4371W        W20632  12.704   6.023  13.608  0.0432 -0.1684 -0.0463
 4372W        W20633   5.235   1.214   0.286  0.0534  0.2744 -0.0692
 4373W        W20634  12.347  10.230   2.778  0.0460  0.1149 -0.2339
 4374W        W20635  10.885   7.770   0.347  0.1750 -0.0041  0.0316
 4375W        W20636   6.451   7.725  16.192 -0.0303  0.2213  0.0745
 4376W        W20637  12.132   9.627  14.350  0.1382 -0.1417 -0.0060
 4377W        W20638   7.662  17.710   1.961 -0.3183 -0.0106  0.0179
 4378W        W20639  15.040  17.400   4.694 -0.2323  0.2120 -0.1698
 4379W        W20640   2.636   2.728   3.645 -0.1855  0.1269  0.2245
 4380W        W20641   5.126   4.141   0.175 -0.0727 -0.1003  0.2254
 4381W        W20642  15.514  15.618  13.761 -0.2667 -0.2408 -0.3363
 4382W        W20643  12.362   5.515   1.475 -0.1603 -0.0457 -0.1847
 4383W        W20644  15.867   8.634   4.239 -0.0894  0.3025  0.2146
 4384W        W20645   5.607   6.663   3.344 -0.3201 -0.1821 -0.1065
 4385W        W20646   0.209  11.853  12.728 -0.1167  0.4583  0.3303
 4386W        W20647   5.193   5.601   0.751  0.3066  0.0186 -0.2598
 4387W        W20648   6.354  11.538  15.678  0.2222 -0.1649  0.0810
 4388W        W20649   7.392   4.001  14.957  0.0996 -0.0206  0.1601
 4389W        W20650   2.129   8.903   5.743  0.0484  0.1568 -0.1892
 4390W        W20651   7.123  11.043  14.480  0.3228 -0.2734  0.4001
 4391W        W20652   4.502   0.265  14.386 -0.1853  0.1112 -0.0083
 4392W        W20653  15.243   6.367  12.997 -0.0308  0.2859  0.5004
 4393W        W20654  12.956   6.146  11.473  0.1286 -0.1334  0.0618
 4394W        W20655  15.536   3.709   4.540 -0.1695 -0.0272  0.1177
 4395W        W20656  13.513   4.999  15.214 -0.0443 -0.1032  0.0114
 4396W        W20657  10.183   0.356   1.317  0.1379 -0.0775  0.2625
 4397W        W20658   7.546  10.581   4.252 -0.0965 -0.2097 -0.3619
 4398W        W20659   8.613   0.319   1.890  0.1419 -0.1048 -0.1125
 4399W        W20660  14.350  13.342   4.955 -0.0899  0.0806  0.1600
 4400W        W20661   6.592  14.164  13.924  0.0936  0.0319 -0.2723
 4401W        W20662  14.374   3.101  13.988 -0.2362  0.1061 -0.2630
 4402W        W20663   3.726  15.120  12.078  0.2489 -0.3205 -0.4388
 4403W        W20664  17.319  17.209   1.456 -0.0282  0.0838  0.0327
 4404W        W20665   2.137   2.989   0.542  0.1594  0.2817 -0.0451
 4405W        W20666  18.117  13.963   4.137  0.2113  0.2318 -0.0914
 4406W        W20667  15.036   1.491  10.965 -0.0566  0.1404  0.0933
 4407W        W20668  10.292   4.560  13.254  0.2032  0.1001  0.1607
 4408W        W20669   1.780  16.024  11.695  0.0657  0.1893 -0.0019
 4409W        W20670   0.327  14.685  14.408 -0.2611  0.2885  0.1940
 4410W        W20671  15.682   5.699   5.205 -0.2132  0.0031 -0.2344
 4411W        W20672   8.962   6.685   3.241 -0.0036  0.2384 -0.0429
 4412W        W20673   6.300   1.422  16.523  0.0438 -0.4146 -0.0515
 4413W        W20674   8.830   4.275   2.708 -0.1777 -0.2114  0.0500
 4414W        W20675  16.157   8.906  14.814  0.1850 -0.1212 -0.1065
 4415W        W20676  18.068   1.380   5.264  0.3619 -0.3058 -0.2212
 4416W        W20677   3.909  16.299   1.510  0.4016  0.5340  0.0525
 4417W        W20678   1.541   0.841   1.671 -0.1830  0.3088  0.0596
 4418W        W20679  14.667   9.626  15.091  0.0895 -0.0448 -0.0149
 4419W        W20680  11.249   6.284   5.178  0.1024  0.3087  0.0668
 4420W        W20681  14.891   8.043   2.912 -0.1569 -0.0389  0.1037
 4421W        W20682   4.326   7.710   5.997  0.0145 -0.1525  0.0123
 4422W        W20683   4.284   1.979  12.565 -0.1164 -0.0918 -0.1743
 4423W        W20684   7.324  14.562   4.991  0.0253 -0.0378  0.2513
 4424W        W20685  12.002  11.267  14.642  0.3335  0.1413 -0.1421
 4425W        W20686   3.395  10.623  15.978  0.2074  0.4943 -0.0851
 4426W        W20687   6.298  13.711  15.884 -0.2602  0.0175  0.3159
 4427W        W20688  14.866  12.783   0.194  0.2316  0.1468 -0.1626
 4428W        W20689   9.894  14.480  11.766 -0.2164  0.0594 -0.2116
 4429W        W20690   9.175   5.086  13.616  0.1560 -0.1109 -0.0810
 4430W        W20691   5.837   0.496  12.840 -0.0407  0.0470  0.5101
 4431W        W20692   5.976   4.156   3.440  0.0100  0.0141 -0.3480
 4432W        W20693  14.424   4.328  14.147  0.2858 -0.0324 -0.3869
 4433W        W20694  12.706  16.221   3.607 -0.1469  0.0358 -0.2062
 4434W        W20695  17.620  14.101  15.362 -0.0111 -0.0548 -0.0264
 4435W        W20696  17.370   9.673   0.133  0.0559  0.1935  0.0476
 4436W        W20697   2.281   3.391   1.356 -0.1532 -0.1895 -0.1222
 4437W        W20698  16.705  14.150   6.542  0.1234  0.0948 -0.1521
 4438W        W20699  14.843  10.959   3.496  0.3144 -0.4087  0.0171
 4439W        W20700  15.522  13.565   1.713 -0.1296 -0.1116 -0.0871
 4440W        W20701   1.299  16.133  15.431  0.1851 -0.2021  0.2138
 4441W        W20702  16.358   0.910   2.877 -0.0239  0.2629  0.0129
 4442W        W20703   2.602   0.716   3.393 -0.3342 -0.1218 -0.1322
 4443W        W20704  12.790   6.573  12.416 -0.3419 -0.2838  0.0703
 4444W        W20705   8.183   7.771  13.224  0.2228  0.0068  0.1501
 4445W        W20706  16.376  16.602  13.862 -0.0239 -0.0610  0.2960
 4446W        W20707  14.955   0.018  13.149  0.0129  0.1712  0.2139
 4447W        W20708   2.638   6.003  15.247 -0.0739  0.1109 -0.1095
 4448W        W20709  15.396  13.817  16.414  0.1418 -0.0960  0.3930
 4449W        W20710  16.801   2.178   4.366 -0.3361  0.3212 -0.0827
 4450W        W20711  16.153   2.615  13.581 -0.0496 -0.3136 -0.1221
 4451W        W20712   6.334   9.162  15.754 -0.0423  0.3093 -0.1282
 4452W        W20713   8.172   0.215  16.230  0.1509  0.0770  0.2170
 4453W        W20714   8.861   4.723  11.466  0.3664 -0.1548 -0.2411
 4454W        W20715   6.681  14.978   2.044 -0.0536 -0.1228 -0.0102
 4455W        W20716   0.446  14.509  13.934 -0.0227 -0.0868 -0.5712
 4456W        W20717   3.194   3.888   6.063 -0.1902  0.1168  0.1175
 4457W        W20718   7.984   0.861   0.623  0.1428  0.1323 -0.1156
 4458W        W20719  16.734   3.206  12.693 -0.0468 -0.3935  0.0811
 4459W        W20720   5.854  12.822  15.972 -0.0633 -0.1385  0.1319
 4460W        W20721  17.187  13.439   0.766  0.3495  0.0255  0.0293
 4461W        W20722   9.693   3.958  12.514 -0.1304 -0.0050  0.1038
 4462W        W20723  14.879  10.195  13.163  0.0278 -0.0648  0.1626
 4463W        W20724  16.029   1.049   0.524 -0.2059  0.0705  0.0407
 4464W        W20725   1.960   2.035   3.152  0.3475 -0.0640 -0.1195
 4465W        W20726  10.157  10.263   3.245 -0.1563  0.1290  0.0947
 4466W        W20727  17.504   9.926  14.849 -0.1462 -0.0313  0.0447
 4467W        W20728  10.785   3.881  14.326  0.3759 -0.1166  0.1937
 4468W        W20729  14.485  18.142  12.990  0.1884  0.0580 -0.2279
 4469W        W20730   6.129  13.163  14.946  0.0248  0.1828 -0.2861
 4470W        W20731   9.611   6.634  14.502  0.1210 -0.0010  0.0524
 4471W        W20732   0.874  10.537   2.940 -0.2770  0.2953  0.2992
 4472W        W20733   5.993  11.608   2.641  0.0972 -0.1198 -0.1140
 4473W        W20734   5.481  16.304   3.368  0.0978 -0.0054  0.0611
 4474W        W20735  10.361  14.335  10.945 -0.0222  0.0055  0.0539
 4475W        W20736  17.136  13.246  14.068 -0.0292 -0.0315 -0.0003
 4476W        W20737  11.972   3.193   1.175 -0.1451  0.4268  0.2053
 4477W        W20738  11.077   3.046   5.424  0.0799  0.1503 -0.1854
 4478W        W20739  13.398   8.640   2.170 -0.0667  0.1905  0.0555
 4479W        W20740   5.760  11.562   1.743  0.1878  0.0962 -0.1949
 4480W        W20741   5.701  15.318   2.416 -0.1517 -0.3125 -0.2985
 4481W        W20742   0.233   5.430   5.046 -0.3745 -0.1341 -0.0362
 4482W        W20743   8.979   7.464   4.398  0.1160  0.4193  0.0903
 4483W        W20744   3.075   9.653  16.276  0.2087 -0.1875  0.2633
 4484W        W20745  11.921  14.080   6.042 -0.0540  0.1423  0.0857
 4485W        W20746   1.918   4.041   4.785 -0.0386 -0.0883  0.0110
 4486W        W20747  17.511   0.829  16.192  0.1196 -0.1015 -0.3597
 4487W        W20748   9.868   8.401   1.021  0.0613 -0.2321  0.1977
 4488W        W20749  11.566  17.246   2.672 -0.0151  0.4826  0.0241
 4489W        W20750   3.375  17.770  15.959  0.0049 -0.2819 -0.0772
 4490W        W20751   9.367   8.680   1.862 -0.0113  0.1416  0.1730
 4491W        W20752   7.100  17.534  14.287 -0.0339  0.0943 -0.4930
 4492W        W20753  10.527   6.566  12.939 -0.2905 -0.1267 -0.0157
 4493W        W20754  12.836  13.220   2.691 -0.0796 -0.2481  0.3593
 4494W        W20755   0.569   2.526   2.223  0.0715 -0.3488  0.0560
 4495W        W20756  10.706   4.385  15.964  0.4693  0.0183 -0.2032
 4496W        W20757   0.997  10.258   2.214  0.1430  0.3219 -0.0991
 4497W        W20758   0.652   4.165   6.114 -0.1774 -0.0999 -0.1129
 4498W        W20759  14.324  15.542  15.487 -0.0964 -0.1495 -0.3486
 4499W        W20760   9.226   4.220  10.772  0.2311 -0.3190  0.1594
 4500W        W20761   0.522   3.479  14.261 -0.1827  0.2121 -0.1107
 4501W        W20762  15.352  13.997  14.241  0.2726  0.1757  0.0336
 4502W        W20763   7.332   3.413   5.022  0.0694  0.2953  0.1666
 4503W        W20764  12.692  12.701  16.430 -0.1464 -0.0885  0.1196
 4504W        W20765   5.157   2.931  13.825  0.0242  0.1465  0.3406
 4505W        W20766  13.734   3.882   2.699  0.1367 -0.0703 -0.0608
 4506W        W20767   9.419   5.266   3.886  0.1132 -0.3386  0.1106
 4507W        W20768   1.407   5.628  11.350  0.3087 -0.0074  0.0884
 4508W        W20769   1.700  12.705   3.660  0.0077 -0.0293 -0.1997
 4509W        W20770   5.564   0.943   2.163 -0.1356  0.0880 -0.1779
 4510W        W20771   2.581   0.705   3.884  0.2272  0.0694 -0.2056
 4511W        W20772  10.001   0.047  16.219 -0.0240 -0.1441  0.1673
 4512W        W20773  11.595   6.758   5.127 -0.3262 -0.0984  0.3170
 4513W        W20774   4.656   4.910   5.121  0.1027 -0.1013 -0.1293
 4514W        W20775   3.546   1.866   4.946 -0.0588  0.2201 -0.3856
 4515W        W20776   7.781   6.454   0.807 -0.0377  0.5205  0.2014
 4516W        W20777   9.780  12.425  16.353 -0.2094  0.2149 -0.3196
 4517W        W20778   4.786   9.154   4.122 -0.1707  0.0290  0.0632
 4518W        W20779  11.120  16.567   1.146 -0.0034  0.1728  0.0724
 4519W        W20780  17.832   6.143   0.423  0.1620 -0.4745 -0.1730
 4520W        W20781  18.191   1.195  14.205 -0.0551 -0.1628  0.0992
 4521W        W20782  17.115   3.529  12.815  0.2116  0.3204 -0.1336
 4522W        W20783  10.717   4.455  15.484 -0.3498  0.1334  0.0593
 4523W        W20784  10.016   9.244  13.270  0.0593 -0.0900 -0.1808
 4524W        W20785  14.805  11.258  13.093 -0.1180  0.1560 -0.0428
 4525W        W20786   8.271   4.251  13.012 -0.1229  0.0609 -0.2473
 4526W        W20787   9.861   9.869  16.210 -0.1156 -0.1654 -0.3000
 4527W        W20788   4.391  14.002  14.975 -0.2254  0.0258  0.0495
 4528W        W20789  12.623   8.955  13.081 -0.1200  0.3440  0.0716
 4529W        W20790   4.701   3.070   4.064  0.1776 -0.3642  0.2502
 4530W        W20791   7.432  11.029   2.601  0.1737 -0.3884  0.0174
 4531W        W20792  11.879   6.876   0.200  0.0371  0.2186 -0.2729
 4532W        W20793   8.030  14.470   0.107  0.2206 -0.0703  0.0955
 4533W        W20794  11.460  15.082  12.415  0.0527  0.1482  0.1193
 4534W        W20795   8.747  17.173   6.323 -0.0433 -0.0872  0.0773
 4535W        W20796  11.609  10.924  14.919 -0.2188 -0.1161 -0.0823
 4536W        W20797  10.422   1.847   1.582  0.1012  0.0255  0.2199
 4537W        W20798   2.434   8.469   5.579  0.2435 -0.1528 -0.2664
 4538W        W20799  14.150   1.175  14.495 -0.2066 -0.1874 -0.0932
 4539W        W20800   3.385   8.210  15.457  0.2842  0.0639  0.0652
 4540W        W20801   3.947   6.794   0.300  0.0712  0.1384  0.0588
 4541W        W20802   0.826   2.008  16.258  0.1390 -0.0199  0.2996
 4542W        W20803   7.516   9.987   2.626  0.0563  0.0860 -0.0677
 4543W        W20804  14.013   1.645  12.724 -0.0727 -0.1590 -0.2887
 4544W        W20805   8.916   2.065   3.740  0.0605  0.3401  0.0177
 4545W        W20806   7.792  17.334  13.089 -0.0464 -0.0733 -0.0973
 4546W        W20807   1.610   2.983  15.603 -0.1007  0.1800 -0.0311
 4547W        W20808  12.516  16.979   4.719  0.2639  0.0331 -0.2161
 4548W        W20809  11.531   1.478  14.604  0.1517  0.1249 -0.1283
 4549W        W20810  13.920   8.875  15.811 -0.0490 -0.2197 -0.0681
 4550W        W20811   5.404   2.472  11.521 -0.0067 -0.1873  0.0682
 4551W        W20812   5.247  16.471   4.342 -0.1420 -0.0263 -0.3222
 4552W        W20813   3.541   6.336  14.197  0.1340  0.1127 -0.3640
 4553W        W20814  14.906   0.348  13.972  0.0061 -0.0974 -0.1865
 4554W        W20815   4.107  18.167  15.693 -0.0122 -0.4062 -0.1817
 4555W        W20816   8.674   7.672  16.142 -0.0042  0.1725 -0.1422
 4556W        W20817   8.237  17.905   0.797 -0.2261 -0.1429  0.3044
 4557W        W20818  11.056   8.206   5.343 -0.1710  0.1287 -0.1009
 4558W        W20819  12.983   8.356   3.092 -0.2271  0.2093  0.2252
 4559W        W20820   4.546  14.462   1.216 -0.1110  0.0017  0.0520
 4560W        W20821   2.879   5.577   3.054 -0.1307 -0.0142  0.0943
 4561W        W20822   1.820   1.731   1.656  0.0142  0.0424  0.0678
 4562W        W20823   2.179  16.320  14.366 -0.0856 -0.0778  0.1681
 4563W        W20824   8.006   1.840  12.418  0.1669 -0.1450  0.2891
 4564W        W20825  11.165  10.193  15.492 -0.0076  0.0209 -0.1039
 4565W        W20826   4.345  12.240  15.422 -0.2294  0.3265 -0.3777
 4566W        W20827   1.402   1.166   3.071  0.0030  0.0109 -0.0393
 4567W        W20828  15.116   0.248   2.929  0.2278  0.0269  0.1623
 4568W        W20829  11.516  17.598   2.227  0.0449  0.1619 -0.3022
 4569W        W20830  11.708   9.281   1.503  0.0873  0.1618  0.0450
 4570W        W20831   5.913  18.135  14.982  0.1479 -0.0742  0.2439
 4571W        W20832   6.717  16.976  14.750  0.0061  0.1027 -0.2664
 4572W        W20833   4.374  12.785   3.462 -0.0953 -0.1093 -0.2393
 4573W        W20834  15.173   3.057   0.530 -0.3429  0.0405 -0.0391
 4574W        W20835   9.404  11.611   2.610 -0.2714 -0.1075  0.0270
 4575W        W20836   4.744   1.243   4.648  0.0268 -0.0488 -0.0908
 4576W        W20837   2.855   1.787  12.241  0.2124  0.0633  0.0940
 4577W        W20838  13.255  17.100  16.109 -0.2045 -0.1639 -0.0751
 4578W        W20839   2.262  15.333  11.535  0.1263  0.0009  0.3444
 4579W        W20840   1.035  10.592   4.375  0.1730  0.2143  0.0342
 4580W        W20841   9.475   3.283  15.220  0.2343 -0.0034  0.0180
 4581W        W20842  17.451  11.801  11.783  0.4435 -0.2328 -0.1988
 4582W        W20843  16.962   2.518   3.055  0.0680 -0.2136  0.0017
 4583W        W20844   2.672   0.475  14.627 -0.0724  0.1878 -0.3367
 4584W        W20845  10.441  13.552  13.393 -0.4718  0.2625  0.0465
 4585W        W20846  16.377   5.909  13.424 -0.1442 -0.2874 -0.1346
 4586W        W20847  16.846   4.847  16.093  0.3930 -0.0452 -0.0280
 4587W        W20848   5.928   0.265  13.682  0.2406  0.2489  0.4385
 4588W        W20849  10.588  16.086   3.772  0.3127  0.2034 -0.0289
 4589W        W20850  11.546  15.920  12.344 -0.1009  0.3671  0.1221
 4590W        W20851  17.591   1.994  15.403  0.1612  0.0359  0.1123
 4591W        W20852  13.329  13.985   0.613  0.0206  0.2224 -0.3402
 4592W        W20853   9.865   8.874   1.785  0.0746  0.2987 -0.0826
 4593W        W20854   9.737  15.055  15.764 -0.1963  0.0593 -0.0054
 4594W        W20855  17.151  11.305   0.224  0.1806 -0.1795  0.1251
 4595W        W20856  17.349  15.421  12.945 -0.2094 -0.1537 -0.4073
 4596W        W20857   0.822   2.971   2.150  0.0593  0.0035 -0.1791
 4597W        W20858  10.514   8.210   5.501 -0.0077  0.0517  0.0644
 4598W        W20859  17.763   0.783   3.507 -0.1469 -0.3164 -0.1886
 4599W        W20860   2.516  16.450   2.297  0.2948 -0.1904  0.1058
 4600W        W20861   6.503  17.245   2.492 -0.0112 -0.2007 -0.1884
 4601W        W20862   4.188   0.631   2.924  0.0818  0.1786 -0.0856
 4602W        W20863   5.222   1.271   3.686  0.0127 -0.2317 -0.1968
 4603W        W20864  11.548   2.903   0.294 -0.0592 -0.0831 -0.0958
 4604W        W20865   5.785   9.248   2.984  0.1196 -0.1115  0.1231
 4605W        W20866   1.811   3.182  15.154 -0.2876  0.0830 -0.2468
 4606W        W20867   6.008   7.822   4.645  0.2273  0.0602 -0.0223
 4607W        W20868   9.997   2.826  12.976  0.3034  0.0486  0.1055
 4608W        W20869   2.397   4.324   4.417 -0.3745 -0.1403  0.1777
 4609W        W20870   4.140  10.100  16.044 -0.3017 -0.0449  0.0428
 4610W        W20871   7.848  10.998   3.817 -0.2023 -0.0075  0.0640
 4611W        W20872   2.812  12.877  13.966  0.2320  0.1234 -0.1240
 4612W        W20873   9.949   1.007  11.337  0.0304 -0.2414  0.2182
 4613W        W20874  16.449   2.360   1.581 -0.1170 -0.0153  0.0493
 4614W        W20875  12.975  11.628   1.980  0.1630 -0.0279 -0.0403
 4615W        W20876  15.638   1.221  13.769 -0.1839  0.1226 -0.1453
 4616W        W20877  16.235  14.415   1.355  0.1004 -0.0580  0.0055
 4617W        W20878  14.054   1.111  13.977  0.1661 -0.2167 -0.0937
 4618W        W20879   7.044  15.253   6.128  0.2292 -0.1062 -0.0253
 4619W        W20880   0.977   0.571   2.521 -0.1011  0.0857 -0.2486
 4620W        W20881  13.805   8.000  11.970  0.1030 -0.0113  0.1010
 4621W        W20882  12.860  14.592   2.547  0.1404 -0.1968 -0.0990
 4622W        W20883   7.327  15.372   1.638 -0.3565  0.1058  0.1940
 4623W        W20884  16.306   7.758   2.025  0.2401 -0.1165  0.1414
 4624W        W20885   9.571  13.527  16.092  0.0620 -0.3423 -0.0103
 4625W        W20886  13.378   0.573   0.784  0.1367  0.1811  0.2032
 4626W        W20887   5.762   8.484   1.395 -0.0353 -0.3929 -0.0799
 4627W        W20888   1.703  13.577  13.428  0.0733  0.1614 -0.2253
 4628W        W20889   2.672  12.508   2.934  0.0600  0.2203 -0.0551
 4629W        W20890  10.766   1.639  15.189  0.2061  0.0318 -0.1644
 4630W        W20891  11.606  14.059  16.216 -0.0675 -0.0666 -0.4375
 4631W        W20892   0.851  10.308   3.515  0.0955  0.2606  0.1946
 4632W        W20893   9.168   2.536  13.461  0.0220  0.0284 -0.0380
 4633W        W20894   5.843   6.259  14.918 -0.2634  0.1634 -0.3909
 4634W        W20895   8.861   1.285  14.649  0.0232 -0.0321 -0.0616
 4635W        W20896  12.082  13.893  16.350  0.1298  0.0838  0.0456
 4636W        W20897   1.872   8.387   2.531 -0.0437 -0.0494  0.1378
 4637W        W20898   5.529   9.676  12.094  0.1779  0.0018 -0.1486
 4638W        W20899   8.058   3.791   0.663  0.1295  0.0834  0.3330
 4639W        W20900  17.123  17.885   3.130 -0.2520  0.1719  0.2711
 4640W        W20901  17.477   1.099   3.078  0.0148  0.1705  0.1970
 4641W        W20902   2.040  10.405   0.008 -0.2065  0.4634  0.0730
 4642W        W20903  12.093   2.812  15.390  0.2488 -0.1751 -0.0417
 4643W        W20904   3.922   9.902  11.322  0.0380 -0.0546  0.2098
 4644W        W20905   1.392  12.356  11.570 -0.1846 -0.0498  0.0290
 4645W        W20906  16.281  12.876  12.922  0.0675  0.0066 -0.1090
 4646W        W20907   4.508  12.933   5.817  0.1585 -0.0899 -0.1270
 4647W        W20908   0.627   2.166   1.837 -0.1583 -0.2139  0.1685
 4648W        W20909  14.325   6.321   0.845  0.0282  0.2870  0.1976
 4649W        W20910  14.647   6.131   2.811 -0.0829  0.0071 -0.1081
 4650W        W20911  15.003   0.988  15.230  0.1716  0.2079 -0.4212
 4651W        W20912   6.651  16.017   2.289  0.2554 -0.0708 -0.0283
 4652W        W20913   4.832  15.951   2.468  0.1869  0.0243  0.0604
 4653W        W20914  16.466   0.172   0.907  0.0346 -0.0807  0.1327
 4654W        W20915   5.684   9.052   0.771 -0.0325 -0.1523 -0.1961
 4655W        W20916  12.400   8.047   3.461 -0.3327  0.1697 -0.2359
 4656W        W20917   4.956   5.906  15.543  0.0468 -0.0368  0.1946
 4657W        W20918   0.568   5.014   5.413  0.0427  0.1471  0.4233
 4658W        W20919   8.746  14.787   4.209 -0.0081  0.3220 -0.2793
 4659W        W20920  15.050   1.924  13.657  0.2210  0.1555  0.1300
 4660W        W20921  17.517  10.526   0.577 -0.1125 -0.0412  0.5505
 4661W        W20922  11.070  14.498  14.657 -0.0013 -0.0114 -0.2277
 4662W        W20923   3.612   5.707  12.268 -0.0809 -0.0367  0.3892
 4663W        W20924   9.967  10.585   5.186 -0.1870  0.1299  0.2219
 4664W        W20925  18.191   0.060  12.641  0.2528 -0.2551  0.1689
 4665W        W20926   6.384   9.156  16.317  0.0667  0.2591  0.1481
 4666W        W20927   2.117   6.798  13.697 -0.1581 -0.1186 -0.0981
 4667W        W20928  18.140  17.720  15.511  0.0236  0.1305 -0.1717
 4668W        W20929  15.268  12.384  16.195 -0.0068 -0.3109 -0.0321
 4669W        W20930   3.841   4.302  12.415 -0.2177 -0.0340  0.0311
 4670W        W20931  17.503  15.968  13.906  0.0722  0.0667  0.1587
 4671W        W20932   6.474  17.794  14.478 -0.0097 -0.1997  0.4336
 4672W        W20933   8.463   0.342   4.062 -0.0465  0.7577 -0.5243
 4673W        W20934  11.670   7.933   0.880 -0.2048  0.0489 -0.0713
 4674W        W20935  15.680  10.103  16.258  0.1316  0.1267 -0.1893
 4675W        W20936   9.163  13.679   3.530 -0.0237  0.2120 -0.1332
 4676W        W20937  13.447   5.352   3.755  0.1370  0.2014  0.0334
 4677W        W20938  15.088  16.902   1.576 -0.2014  0.0971 -0.1661
 4678W        W20939   9.539  11.687  16.589  0.1307 -0.1025 -0.1467
 4679W        W20940  12.829  11.719  13.601  0.0604  0.0643 -0.0258
 4680W        W20941  15.444   8.425  12.007 -0.2095 -0.3259 -0.0333
 4681W        W20942   3.528   7.129   5.756  0.0133 -0.0131  0.4128
 4682W        W20943  12.218  10.262   4.267  0.2116  0.1036 -0.1642
 4683W        W20944   8.175  15.062   4.770  0.0901 -0.3656 -0.1120
 4684W        W20945  13.531   7.230  12.628 -0.1506  0.1471 -0.1098
 4685W        W20946   1.755   9.085   4.813  0.0217 -0.3460  0.2723
 4686W        W20947  16.582   4.400   0.875 -0.0296  0.0599 -0.3322
 4687W        W20948  15.337   9.890   5.302 -0.3384 -0.5357  0.0390
 4688W        W20949  18.113  13.425   4.140  0.0979 -0.1684  0.2281
 4689W        W20950  10.965   8.939   0.349 -0.0081 -0.0672  0.2078
 4690W        W20951  11.626   6.897   2.545  0.0055 -0.1216  0.2649
 4691W        W20952  11.625   8.554   3.289 -0.1277  0.2362 -0.0487
 4692W        W20953   0.388  12.437   4.108 -0.1853  0.3815  0.0596
 4693W        W20954  16.374  15.802   0.680  0.1327 -0.0637  0.0806
 4694W        W20955   6.740  13.382  15.905  0.3321 -0.1831 -0.0015
 4695W        W20956   4.550   6.705   4.941  0.1054  0.0149  0.0481
 4696W        W20957   3.104  12.610  12.652 -0.1917 -0.0642 -0.2289
 4697W        W20958   0.170   0.818   3.737  0.0776 -0.0338  0.0118
 4698W        W20959   4.432   3.235  15.122 -0.4051 -0.1941  0.4195
 4699W        W20960   9.368   7.377  15.325  0.0624 -0.1850  0.0119
 4700W        W20961   7.114   4.282   3.917  0.5468 -0.1291 -0.1819
 4701W        W20962  17.372   5.977  15.528 -0.1661  0.0640  0.0443
 4702W        W20963   6.199  14.380  14.055 -0.0035  0.0039  0.3545
 4703W        W20964  10.320   6.227   3.240 -0.2113 -0.3516 -0.0330
 4704W        W20965  16.973   5.166  12.006  0.0699  0.1385  0.1757
 4705W        W20966  12.793  11.127   4.765  0.2176 -0.0450 -0.0100
 4706W        W20967   4.402  15.069   3.685 -0.0650  0.0055  0.0221
 4707W        W20968   5.719  14.612  14.241 -0.2808  0.2467  0.0298
 4708W        W20969  12.216   4.866   4.648 -0.2266 -0.0369 -0.0959
 4709W        W20970   4.363  15.449  14.749  0.1153  0.1437  0.2445
 4710W        W20971  13.136  13.670   0.233 -0.2186 -0.2966  0.2119
 4711W        W20972  13.118   9.348  11.818 -0.2674  0.0924  0.2470
 4712W        W20973   4.995   6.465  14.901 -0.0869  0.3909  0.0013
 4713W        W20974  13.291   5.111  10.119 -0.0297 -0.1891 -0.2417
 4714W        W20975   4.858   2.736  12.594 -0.0526  0.1105  0.1565
 4715W        W20976  13.422  10.302  15.251 -0.2726 -0.0455 -0.1232
 4716W        W20977   7.446   1.979   0.871  0.4366  0.5063 -0.2253
 4717W        W20978   5.035  11.676   4.120 -0.2144  0.0794  0.0756
 4718W        W20979  17.956   6.640   4.637 -0.1832  0.2295  0.1121
 4719W        W20980  13.255   0.989  11.526  0.0733  0.1784  0.2233
 4720W        W20981   0.500  11.254   1.979  0.2451 -0.4520  0.1654
 4721W        W20982   2.016   3.062   0.061 -0.0419  0.2117  0.2181
 4722W        W20983   9.001   2.196  14.276  0.0227  0.0182 -0.2154
 4723W        W20984  16.174   1.656  13.057 -0.2307 -0.1119 -0.2653
 4724W        W20985  16.810   0.211   5.831  0.1707 -0.1611 -0.3896
 4725W        W20986  17.722  14.754   4.419  0.2044  0.5650  0.2918
 4726W        W20987  12.433  16.426  14.277 -0.1998  0.0618 -0.2853
 4727W        W20988  16.318  14.347  13.280  0.1084 -0.2894  0.2405
 4728W        W20989   7.738  10.764   2.247 -0.1747  0.0612  0.0297
 4729W        W20990   9.929   4.943  11.903  0.0127  0.0094 -0.4737
 4730W        W20991  12.737  17.126  11.228  0.1953 -0.0252  0.0012
 4731W        W20992   8.300   5.103   0.422  0.1918 -0.1339 -0.1382
 4732W        W20993   3.935   2.707  15.978 -0.1997 -0.1221  0.0776
 4733W        W20994  13.929   7.223   2.235 -0.0141  0.2020 -0.0323
 4734W        W20995   8.791   2.268  13.716  0.2187 -0.0648  0.0270
 4735W        W20996  16.495  12.030  13.745 -0.0492 -0.0808 -0.0306
 4736W        W20997  17.775   1.252  16.013 -0.1575 -0.2578  0.0380
 4737W        W20998  17.570   3.096   3.290 -0.1150  0.0328  0.0259
 4738W        W20999   1.452  12.275  13.351 -0.1569  0.1833  0.1286
 4739W        W21000  13.793  14.175   1.537  0.3250  0.0041  0.1489
 4740W        W21001   0.768  14.667  11.939  0.1338  0.1771  0.0299
 4741W        W21002   3.504   6.124   3.010 -0.1876 -0.0157  0.0714
 4742W        W21003  14.093   5.962  12.479  0.0163 -0.0840 -0.5782
 4743W        W21004   3.624   8.121  15.032  0.2782  0.0834  0.0376
 4744W        W21005  10.308   0.021  11.429 -0.2495 -0.1023 -0.1162
 4745W        W21006  12.925   6.905  16.494  0.0106 -0.0950  0.2087
 4746W        W21007   9.148  14.291   3.361  0.1666 -0.2186 -0.1521
 4747W        W21008   0.742   5.558   5.747  0.0382  0.1719  0.0196
 4748W        W21009   6.719  17.592   2.898  0.0480 -0.0895  0.4317
 4749W        W21010  13.847  16.213   4.578 -0.2237  0.1454  0.1306
 4750W        W21011  13.204  10.917   3.697 -0.5725  0.0689  0.0627
 4751W        W21012   9.333  14.801   0.259  0.2009 -0.0767  0.1354
 4752W        W21013   0.084   0.979  15.905  0.0115 -0.2124 -0.2093
 4753W        W21014  11.826   9.362  13.718  0.0112  0.0433 -0.1901
 4754W        W21015  16.345   1.904  16.084 -0.0499  0.1189  0.1221
 4755W        W21016  16.322  15.632  12.262 -0.0087  0.1269  0.4194
 4756W        W21017   2.573   8.992  13.528 -0.1564  0.2072 -0.0721
 4757W        W21018  10.109   5.535  14.258  0.0870  0.2741 -0.4778
 4758W        W21019   1.819  16.244   6.107 -0.0326  0.0397  0.3691
 4759W        W21020  16.689  17.833  11.567  0.0139 -0.3179 -0.2799
 4760W        W21021   3.980   5.054   3.747  0.1286 -0.0613  0.2327
 4761W        W21022   1.967   3.127   3.514  0.2375  0.1326  0.3999
 4762W        W21023  17.447  12.770  16.650  0.0865 -0.3089  0.0560
 4763W        W21024   0.407   9.442   1.622 -0.2259 -0.1562  0.1194
 4764W        W21025   2.917   3.079  16.414  0.0912 -0.0192  0.0775
 4765W        W21026   8.545  13.711   5.413  0.2047  0.1095 -0.0883
 4766W        W21027   3.756   9.620  14.335  0.0651 -0.3284  0.0346
 4767W        W21028  16.250   3.362  12.314  0.0723 -0.1882 -0.0819
 4768W        W21029  11.965   3.057   3.287  0.1594  0.4415  0.1607
 4769W        W21030  14.029   2.477   4.204 -0.2331 -0.2808 -0.0075
 4770W        W21031  17.203  11.675  12.723 -0.1910  0.0259  0.0015
 4771W        W21032   2.036  15.955   0.177  0.0340 -0.1623  0.0168
 4772W        W21033   7.059  13.662  14.614  0.1789 -0.2166  0.1578
 4773W        W21034   7.514  16.702  13.626  0.1094  0.1166 -0.4247
 4774W        W21035  11.460   3.632  12.171  0.1423 -0.1239  0.1796
 4775W        W21036  13.691  10.213   2.795  0.1196  0.0025 -0.0738
 4776W        W21037  14.614   5.352   0.943  0.0129 -0.0101 -0.0743
 4777W        W21038   8.851   4.703   0.127 -0.0908  0.1220  0.2127
 4778W        W21039  12.615  16.675   3.394  0.0581  0.0505  0.1445
 4779W        W21040   9.130  12.366   2.203  0.1019 -0.1972  0.1522
 4780W        W21041   0.896   7.717   4.075  0.1317  0.3342  0.0463
 4781W        W21042   1.931   3.833  13.990 -0.0621  0.0505  0.1061
 4782W        W21043   4.315  12.981  11.507 -0.0007  0.0669 -0.0084
 4783W        W21044   9.311  11.711  14.055 -0.5389  0.1888 -0.0695
 4784W        W21045  13.101  16.774   5.927  0.0944  0.0350 -0.2889
 4785W        W21046  12.334   6.166   0.673  0.0298  0.0460  0.0977
 4786W        W21047   3.422  17.585  12.438  0.2770  0.0998 -0.1849
 4787W        W21048   4.779  14.188  15.270 -0.1023  0.0687  0.4199
 4788W        W21049   1.098  12.049  15.684  0.0910  0.0200 -0.0753
 4789W        W21050   2.876  14.655   0.910  0.3185  0.0021 -0.4955
 4790W        W21051   0.454   9.596   5.294  0.1528  0.0086  0.0480
 4791W        W21052  16.604  14.958  16.552 -0.2625  0.0452  0.4111
 4792W        W21053  13.339   3.211   1.495 -0.0683  0.0085  0.2708
 4793W        W21054  14.322   6.600  16.568 -0.2320  0.3538  0.0098
 4794W        W21055   6.597   0.662   1.058 -0.0228 -0.1491 -0.2345
 4795W        W21056  14.444   1.807   2.812  0.2279  0.1553 -0.0972
 4796W        W21057   1.635   3.390   3.825 -0.1138 -0.0214  0.1200
 4797W        W21058   5.457   6.585  12.021 -0.0061 -0.0263 -0.0882
 4798W        W21059   9.004   8.059  15.464 -0.2707 -0.1941  0.0465
 4799W        W21060   3.995   2.078   4.914 -0.0377  0.1006  0.0232
 4800W        W21061   5.124   4.268  16.219  0.1471  0.1055  0.1772
 4801W        W21062  17.043  16.952   4.066  0.0953  0.0920  0.1479
 4802W        W21063   1.562   1.243  14.363 -0.2626 -0.2936 -0.2293
 4803W        W21064   6.643  13.879   4.667 -0.0165 -0.1525  0.0483
 4804W        W21065   5.600  10.107  11.288  0.2653  0.1729 -0.1084
 4805W        W21066  13.645  12.113   0.279  0.2974 -0.3698  0.1053
 4806W        W21067  12.561   2.971  14.214 -0.2579  0.1788 -0.0746
 4807W        W21068   2.134  12.191  15.192 -0.2443  0.0775 -0.0687
 4808W        W21069   3.791  11.422   2.328  0.2068 -0.1753 -0.2374
 4809W        W21070  12.740  11.220  15.431  0.0771  0.0781 -0.2039
 4810W        W21071  16.417  13.061   2.906  0.1003 -0.1113 -0.1780
 4811W        W21072   2.239  12.260  15.683  0.0464  0.1137  0.3494
 4812W        W21073  14.033   9.533  12.180  0.0501  0.0788 -0.2088
 4813W        W21074   4.236  16.618  13.245  0.0712  0.0293  0.3912
 4814W        W21075   7.841  14.227   5.181 -0.2573  0.2584 -0.2603
 4815W        W21076   2.646  17.718   0.523 -0.1375 -0.0564 -0.1798
 4816W        W21077   5.331   9.742   1.436 -0.3341  0.1466 -0.0082
 4817W        W21078   5.131   6.560  12.453 -0.0057  0.0554 -0.2498
 4818W        W21079  17.468   9.617   1.035  0.1749 -0.1064  0.0398
 4819W        W21080  10.298  13.283  12.315 -0.1239  0.1467  0.0303
 4820W        W21081  11.466   8.382   0.550 -0.1516  0.0031  0.2744
 4821W        W21082  11.651  16.414  13.661 -0.0469  0.1737 -0.2430
 4822W        W21083   6.844   0.672  14.674  0.1188 -0.1727  0.2334
 4823W        W21084   3.629   2.977  15.659  0.2591 -0.2341  0.0454
 4824W        W21085   4.545  14.835   0.339  0.3292  0.6510 -0.3233
 4825W        W21086   6.480   5.216   2.456 -0.4656 -0.1957  0.1937
 4826W        W21087  14.206   3.489  14.245 -0.0328 -0.0072  0.0817
 4827W        W21088   7.730   8.700  15.458  0.0529  0.0568  0.1937
 4828W        W21089   4.486  15.851   5.451  0.1418  0.0504 -0.0569
 4829W        W21090  12.992   9.123   4.426  0.0017  0.0500 -0.1278
 4830W        W21091  16.678  13.040   0.678  0.0944  0.1445 -0.3250
 4831W        W21092   2.929   7.274   4.857 -0.0905 -0.1357 -0.4115
 4832W        W21093  10.636   0.556  13.327  0.0705 -0.2337 -0.0936
 4833W        W21094  18.121   2.305  13.399  0.0236 -0.1000  0.0333
 4834W        W21095   5.883  16.074  14.452  0.0866  0.1794  0.1237
 4835W        W21096   7.699   9.973   1.851  0.0510 -0.3628 -0.1323
 4836W        W21097  17.032   9.427  12.171 -0.0835  0.1526  0.2022
 4837W        W21098   0.752   0.220  16.122 -0.0625 -0.0567 -0.1814
 4838W        W21099   0.166   7.398   0.298 -0.1159  0.1425 -0.1607
 4839W        W21100  16.277  11.320   0.871  0.2431 -0.3176  0.0582
 4840W        W21101   0.211  17.915  14.270 -0.0413 -0.3809  0.1457
 4841W        W21102   2.396   4.690   4.777  0.3382  0.2312 -0.0121
 4842W        W21103   6.731  18.150  13.684 -0.0657  0.1369  0.0593
 4843W        W21104   4.650  11.575   5.665 -0.0051  0.2748  0.3499
 4844W        W21105  10.060  13.718  12.552 -0.0546  0.2548 -0.1079
 4845W        W21106   9.330   1.869  15.949 -0.0737 -0.2177  0.2060
 4846W        W21107   7.583  12.591  16.604 -0.1659  0.1908  0.2316
 4847W        W21108   1.246  11.275   5.101  0.1085  0.0617  0.0215
 4848W        W21109  15.585   4.948   2.729  0.0353  0.0844  0.0984
 4849W        W21110   6.864   0.465  11.781  0.3313 -0.1671  0.0174
 4850W        W21111  14.542  15.950  11.835 -0.2111 -0.2287 -0.2605
 4851W        W21112  17.044  13.607   1.491 -0.0649  0.0311 -0.0868
 4852W        W21113   5.811   0.315   4.813  0.1230  0.0409 -0.0312
 4853W        W21114   0.753  13.197   3.697  0.0234 -0.3024  0.0286
 4854W        W21115  15.920  15.114  15.582 -0.1378 -0.3186  0.1272
 4855W        W21116   7.481  16.723   3.863 -0.1099 -0.0693  0.0604
 4856W        W21117   0.647  17.094   2.802  0.4542 -0.1069 -0.0862
 4857W        W21118   8.569  14.362   3.403  0.2395  0.0641  0.3104
 4858W        W21119  12.736  13.041  13.974  0.0390  0.2584  0.4291
 4859W        W21120   7.914  12.195  12.013 -0.3405  0.1682  0.4157
 4860W        W21121   0.022  14.018  14.579  0.2606 -0.1225  0.0259
 4861W        W21122  12.596   7.621   0.537  0.0064  0.1425 -0.1397
 4862W        W21123   3.940  12.721   4.964 -0.4446  0.0115  0.2553
 4863W        W21124  13.461   9.238   3.256 -0.1273 -0.0970 -0.1048
 4864W        W21125   9.816  10.260   0.377 -0.4662 -0.0962  0.1201
 4865W        W21126  11.602   8.934  12.763  0.1951  0.0654  0.0712
 4866W        W21127  10.670   1.709  12.697  0.0115  0.1042 -0.0066
 4867W        W21128  13.221   6.817  15.752  0.1522 -0.1691  0.1266
 4868W        W21129   6.538   1.660  12.281 -0.0173  0.0691  0.1830
 4869W        W21130   8.990   7.125  15.532 -0.1335 -0.1319 -0.0050
 4870W        W21131   6.977  13.713  13.019 -0.0811 -0.1163  0.1764
 4871W        W21132   3.585  17.434   4.323  0.0254 -0.1194  0.1478
 4872W        W21133  17.005   1.621  15.709  0.1512 -0.0738 -0.1024
 4873W        W21134   0.805   8.291   1.033  0.0121 -0.0340 -0.1825
 4874W        W21135  17.555  12.302  15.577 -0.4028  0.2501 -0.1616
 4875W        W21136  17.726   9.826  13.637 -0.1137 -0.0150  0.1787
 4876W        W21137   8.417   2.029   3.566  0.0400 -0.0521  0.1606
 4877W        W21138  14.209   4.287   4.056  0.0386 -0.1188 -0.2699
 4878W        W21139   4.136   5.239  12.650  0.3923 -0.2573 -0.2760
 4879W        W21140   5.392  12.010   5.600 -0.2307 -0.0120  0.0503
 4880W        W21141   6.648   3.111  15.491 -0.1011 -0.0730 -0.1206
 4881W        W21142  16.773   5.833  12.621 -0.4267 -0.1080 -0.0881
 4882W        W21143  12.076   7.980  13.313 -0.2104 -0.3317  0.0596
 4883W        W21144   1.824   0.153  12.166  0.0471  0.0664  0.1606
 4884W        W21145  13.115   2.712   1.869 -0.0320  0.0979 -0.1268
 4885W        W21146  11.418  11.086   1.375  0.1566 -0.1019 -0.2600
 4886W        W21147   1.996  12.849   0.915  0.3606 -0.0566  0.1972
 4887W        W21148  15.299   6.488  15.826 -0.0262  0.1781 -0.2066
 4888W        W21149  16.524   2.237   3.965 -0.1296  0.5516 -0.0655
 4889W        W21150  15.115  10.485   0.222 -0.5874  0.0419 -0.0122
 4890W        W21151  13.255   2.638  15.419  0.0556  0.0699  0.1876
 4891W        W21152   2.736   1.565  14.126 -0.1400  0.0600  0.3332
 4892W        W21153  16.217  16.162  12.223 -0.4770 -0.3084  0.2078
 4893W        W21154  16.425  17.439   5.215  0.0261  0.1428  0.3617
 4894W        W21155  12.019   1.310  13.608 -0.0055  0.0125  0.0026
 4895W        W21156   9.088   8.450  13.803 -0.1482 -0.0354 -0.0600
 4896W        W21157  16.515   7.631   5.882  0.2253 -0.4619  0.0902
 4897W        W21158   6.433   8.440  15.346  0.1339  0.0235  0.2429
 4898W        W21159  13.527   9.902  13.604 -0.1041  0.0815  0.0499
 4899W        W21160  17.773   7.318  11.906  0.3048 -0.1548 -0.0265
 4900W        W21161   3.223  11.752  12.106 -0.1631  0.2364  0.1270
 4901W        W21162   0.064  11.798  15.714  0.2428 -0.0732  0.2115
 4902W        W21163  15.978  16.312   2.717  0.0404  0.1520  0.0347
 4903W        W21164   5.043  13.205   1.059 -0.4082 -0.1596 -0.0008
 4904W        W21165  11.392   4.418  16.571  0.2390 -0.2842 -0.1678
 4905W        W21166   7.603   4.129  11.167 -0.1373 -0.1480 -0.0992
 4906W        W21167   4.961   1.175   4.128  0.2252 -0.0463  0.1126
 4907W        W21168   0.193   8.146  15.794 -0.2919 -0.1878 -0.3343
 4908W        W21169  16.581   4.503   5.025 -0.2580  0.0438 -0.0134
 4909W        W21170  13.892   1.751   5.893 -0.0783 -0.2639  0.0821
 4910W        W21171  11.517  17.716   0.438  0.1610 -0.0564  0.1490
 4911W        W21172  11.001   1.762   3.799  0.0851  0.1302 -0.0640
 4912W        W21173   9.840   5.331  11.630  0.1603  0.1823  0.2045
 4913W        W21174   1.024  16.002  15.868  0.2649  0.4312  0.0542
 4914W        W21175  16.403   8.516  15.927  0.3221 -0.1223  0.0400
 4915W        W21176   6.225  15.653   5.400 -0.2095 -0.0713 -0.2287
 4916W        W21177   8.379  15.961  12.771 -0.0268 -0.3805  0.1056
 4917W        W21178  15.723   7.896   0.836  0.2949 -0.3755 -0.2271
 4918W        W21179  16.385  15.360   0.358  0.0617 -0.0160 -0.0473
 4919W        W21180  12.626  10.011  14.929  0.0812  0.2481 -0.1072
 4920W        W21181  10.080  11.824  12.395  0.0486 -0.2873  0.0292
 4921W        W21182  16.374  11.830   0.215  0.0085  0.0938  0.0454
 4922W        W21183  11.978   5.268  12.019  0.3279  0.0669 -0.0013
 4923W        W21184   5.263  15.317   5.573  0.1022  0.0375  0.1851
 4924W        W21185   3.681   7.018   4.104 -0.1675  0.1168 -0.4036
 4925W        W21186  17.494  12.307   5.667 -0.1387 -0.2134  0.0933
 4926W        W21187  10.218   4.496  15.965 -0.0720 -0.0147 -0.0371
 4927W        W21188   5.352   0.269   3.490  0.1328 -0.3000 -0.1802
 4928W        W21189   8.322   9.182   4.530  0.1926 -0.0682  0.5062
 4929W        W21190   2.508   1.682  16.093 -0.2497 -0.0474  0.2536
 4930W        W21191   1.692   5.411   3.041 -0.1288 -0.3555  0.2612
 4931W        W21192  11.414  10.931  15.890 -0.0427  0.0015  0.3499
 4932W        W21193  15.979   4.308   5.556  0.0664 -0.0289  0.0962
 4933W        W21194   6.089   1.006  13.428 -0.1382 -0.0050 -0.1424
 4934W        W21195  11.245   5.236  15.810 -0.0598 -0.0321  0.2722
 4935W        W21196   7.327  13.343  13.005 -0.2699  0.0765 -0.1519
 4936W        W21197   1.974   1.433   4.326  0.0461 -0.2184 -0.0964
 4937W        W21198  10.555   5.736  10.944  0.1294  0.0644  0.2387
 4938W        W21199  11.557   8.935   4.015  0.0206 -0.0688  0.1987
 4939W        W21200   4.133   6.107  14.549  0.2872  0.3605  0.2043
 4940W        W21201  10.033   2.277  13.790 -0.0957  0.3839 -0.2165
 4941W        W21202   0.839   1.535   0.048 -0.0503 -0.1557  0.1647
 4942W        W21203  12.338   2.785   4.052  0.1418 -0.0522 -0.1352
 4943W        W21204   0.019   8.065  14.298  0.1638 -0.3734  0.1171
 4944W        W21205  11.001  17.501  12.861  0.0623  0.0271  0.1751
 4945W        W21206   6.870   2.068   3.197  0.1525 -0.0994  0.3445
 4946W        W21207   9.974   6.579   4.615 -0.2010  0.1618 -0.0583
 4947W        W21208   8.637  11.234  15.862 -0.2044 -0.3394  0.0139
 4948W        W21209   4.751  16.919  15.465  0.1466  0.1416  0.1563
 4949W        W21210  18.027   8.453  13.976 -0.0479 -0.4073  0.2769
 4950W        W21211  11.747   6.818  14.990  0.1538 -0.1783  0.1940
 4951W        W21212  15.262  13.966   4.687  0.0920 -0.1141  0.0500
 4952W        W21213   7.794  14.540  12.617 -0.1084  0.2466 -0.2532
 4953W        W21214   8.313   5.486   1.493 -0.2357  0.3807 -0.0451
 4954W        W21215   5.898   8.885   2.109  0.0854 -0.2251 -0.1373
 4955W        W21216   1.330   1.702  15.195 -0.0285 -0.1022  0.1199
 4956W        W21217   6.632   3.794  15.402  0.0110 -0.0255 -0.2474
 4957W        W21218  11.194   5.693  16.563 -0.3491  0.0967 -0.0848
 4958W        W21219  11.543   3.495  10.771  0.1439  0.1260  0.0390
 4959W        W21220   0.597   6.572  16.165  0.3294 -0.1208  0.2527
 4960W        W21221  15.931   0.594  13.043  0.0198  0.2575 -0.1247
 4961W        W21222   5.113  14.454   1.585 -0.1169 -0.0428  0.1957
 4962W        W21223   8.040  11.666   2.356  0.3211 -0.1118  0.2147
 4963W        W21224  10.872  16.554  12.632 -0.1197  0.2923  0.0108
 4964W        W21225   5.628   4.390  16.116 -0.0410 -0.0155 -0.3409
 4965W        W21226   1.514  13.222   2.446 -0.0129 -0.1126  0.2664
 4966W        W21227  13.199   2.731  13.374  0.0020  0.2069  0.0848
 4967W        W21228   0.526  16.721   1.746  0.0198  0.0923 -0.0114
 4968W        W21229  17.368  13.349  15.792 -0.0690 -0.1710  0.2547
 4969W        W21230   6.613   6.775  13.763 -0.0861  0.0904 -0.0163
 4970W        W21231  10.906   7.047   4.899 -0.0115  0.1092 -0.2333
 4971W        W21232   0.572   3.722   0.528  0.0708 -0.1023  0.3630
 4972W        W21233   9.561  17.443   2.999  0.1342 -0.0191  0.1273
 4973W        W21234  10.009   6.465   5.977  0.2174 -0.1395  0.0098
 4974W        W21235   8.916  17.448  12.081 -0.1712 -0.2886 -0.0563
 4975W        W21236  12.431   4.294  12.127  0.1684 -0.1434  0.2428
 4976W        W21237   6.639   3.514  14.499 -0.0169  0.2893 -0.0486
 4977W        W21238   7.280   8.631  11.557  0.0102  0.1782 -0.0548
 4978W        W21239   3.626   8.461  15.998 -0.0738  0.0176  0.0910
 4979W        W21240  12.955  12.663   0.866 -0.1805 -0.2317 -0.3121
 4980W        W21241  13.300  17.274  15.100  0.0085 -0.1482 -0.2595
 4981W        W21242   1.458  10.787   4.046  0.0447 -0.1935  0.1645
 4982W        W21243  15.390  13.512   4.912 -0.0341 -0.2277  0.0060
 4983W        W21244   6.520  16.133   0.240  0.1920  0.0740 -0.0151
 4984W        W21245  11.364  12.049  12.815 -0.0075  0.1381 -0.1097
 4985W        W21246   0.361   0.832  15.526  0.2203 -0.1551 -0.1699
 4986W        W21247  11.867   5.467   2.683  0.0493 -0.0995  0.2867
 4987W        W21248  14.838   3.027   4.602 -0.3279  0.0146 -0.3382
 4988W        W21249  11.745  11.768  14.567  0.0331  0.0507  0.0381
 4989W        W21250  15.656   5.991   3.312  0.0235 -0.0741  0.0881
 4990W        W21251  17.010   1.166   0.305  0.1215  0.0070 -0.3802
 4991W        W21252   1.910   4.335  14.247  0.1055  0.2291  0.2254
 4992W        W21253   5.616  15.983   0.319 -0.2542 -0.1066  0.1850
 4993W        W21254   9.753   8.608  13.311 -0.1000  0.3259 -0.0136
 4994W        W21255   9.538   9.593   1.525 -0.2588  0.4968  0.0273
 4995W        W21256   4.038  14.447   4.376 -0.0356 -0.0568  0.2199
 4996W        W21257   3.616  13.567   4.096 -0.0200 -0.3995 -0.0324
 4997W        W21258   5.313   6.384   0.921 -0.0668 -0.0165 -0.1101
 4998W        W21259   3.659  13.039   0.332  0.1750 -0.1875 -0.2635
 4999W        W21260   3.934  16.276  14.972  0.1577 -0.2963 -0.0213
 5000W        W21261   6.959   6.787  12.760  0.1914 -0.1365 -0.4380
 5001W        W21262   0.020   0.696   0.291 -0.0074 -0.2082  0.0805
 5002W        W21263   1.132   3.497   2.192 -0.1789 -0.1376  0.1675
 5003W        W21264  15.964  14.955   3.052  0.0901  0.1404  0.1956
 5004W        W21265  16.279  17.829   1.097 -0.1396 -0.2328 -0.0436
 5005W        W21266   7.609   9.003   0.988 -0.1848  0.0229 -0.3122
 5006W        W21267   3.410   8.456   0.306  0.3837 -0.2055  0.0078
 5007W        W21268  12.719   6.583  13.466  0.3754  0.2575  0.0890
 5008W        W21269   4.713  11.077   2.486 -0.2507 -0.4526  0.0708
 5009W        W21270  16.072   3.752  11.313  0.0323  0.0322 -0.0090
 5010W        W21271  17.172  10.187   1.005  0.1936 -0.1465 -0.0292
 5011W        W21272  17.761  15.496   6.092 -0.1116 -0.0096 -0.1844
 5012W        W21273   0.271   0.312   1.172 -0.0173 -0.0217  0.1432
 5013W        W21274  13.674   2.738  14.732 -0.3504 -0.0074  0.2264
 5014W        W21275  15.203   1.229  14.192  0.0787  0.1747 -0.3245
 5015W        W21276  14.644  10.111  15.801  0.0967 -0.0241  0.2728
 5016W        W21277   8.339   8.883  14.040  0.1371 -0.0473 -0.0498
 5017W        W21278   2.553   5.757   6.100 -0.0029 -0.2057 -0.1752
 5018W        W21279   8.908  11.766  13.803 -0.0080  0.0399  0.0495
 5019W        W21280  12.918  11.030  11.672 -0.2106 -0.3154  0.2077
 5020W        W21281   5.898  15.783  16.471  0.1314 -0.0209  0.2684
 5021W        W21282   2.657  17.154   4.260 -0.3280 -0.0779 -0.3575
 5022W        W21283  10.900  17.039  11.762  0.0472  0.0157 -0.0092
 5023W        W21284   0.911   0.065   0.079  0.0569 -0.0515 -0.0747
 5024W        W21285   7.587   1.831  13.753 -0.3388  0.0527  0.2106
 5025W        W21286   0.811  13.362   3.172  0.0684 -0.1996 -0.2854
 5026W        W21287   2.011   6.588   2.886  0.0979 -0.2973 -0.2927
 5027W        W21288   4.835   5.341   4.768  0.0439  0.3233  0.0916
 5028W        W21289   2.327   8.977   2.850  0.2661  0.0971 -0.2280
 5029W        W21290   2.183   7.299  14.487 -0.3199  0.1103 -0.0993
 5030W        W21291  10.924   8.509   4.578 -0.2023  0.2051 -0.0635
 5031W        W21292   5.610   3.431  16.503 -0.0169  0.0730  0.0695
 5032W        W21293   8.621   1.961   4.577 -0.1725 -0.2069  0.0765
 5033W        W21294  14.670   1.140   1.617  0.0577 -0.1507  0.0115
 5034W        W21295  13.996   4.724   3.814 -0.0534  0.1998  0.3596
 5035W        W21296   0.662   0.790  12.496  0.1293  0.3850 -0.3223
 5036W        W21297   5.772  15.868   2.605 -0.1675  0.0283  0.0025
 5037W        W21298   0.688  16.106   3.621  0.3860  0.0772  0.1542
 5038W        W21299   7.453  17.256  10.859  0.2207  0.0024 -0.4339
 5039W        W21300  12.968   3.144   1.838 -0.2501 -0.3362  0.0327
 5040W        W21301   4.324   8.246   3.709 -0.2057 -0.0865  0.0740
 5041W        W21302   9.316   0.997  15.927  0.1785  0.0196  0.0167
 5042W        W21303  12.509  12.776  12.594  0.2097 -0.0029 -0.2212
 5043W        W21304  14.389  12.847   4.986  0.0121  0.0208 -0.1876
 5044W        W21305   0.583   4.120  12.901  0.1610  0.3136  0.2779
 5045W        W21306  10.673  17.313  14.842 -0.1068  0.1310  0.1940
 5046W        W21307  15.126   2.911   2.260  0.1344 -0.0179 -0.3668
 5047W        W21308  18.104   2.211   0.610 -0.0936  0.0308 -0.3760
 5048W        W21309  17.839  16.241  14.104 -0.4926  0.1419  0.0027
 5049W        W21310  17.588   0.969   1.040 -0.2259 -0.2482  0.1727
 5050W        W21311  13.881  12.759   5.139 -0.1007 -0.5741 -0.0759
 5051W        W21312  13.530   8.532   0.499  0.1468 -0.3366  0.1787
 5052W        W21313  13.550  14.426  15.649 -0.2466 -0.0781  0.3148
 5053W        W21314   0.054   1.082   1.782  0.1695  0.0045 -0.0678
 5054W        W21315   2.956   7.805  15.512 -0.2036  0.0636 -0.1889
 5055W        W21316   9.070   5.265   1.432 -0.0709 -0.1567 -0.1757
 5056W        W21317  15.901  16.103  14.602  0.2603 -0.1564 -0.0330
 5057W        W21318   1.317  10.790  11.972 -0.0896 -0.2912 -0.2986
 5058W        W21319   0.662  13.616  11.452  0.1737 -0.0767  0.1525
 5059W        W21320   4.337  11.360   0.803 -0.3839  0.0485 -0.0211
 5060W        W21321   8.534   9.101  10.626 -0.2858  0.2374 -0.0787
 5061W        W21322  10.906   8.145   1.603  0.0341  0.3679 -0.0567
 5062W        W21323  12.315   8.901   3.111 -0.1665  0.0923 -0.0435
 5063W        W21324   2.400  12.615  15.245  0.0129 -0.1891  0.4479
 5064W        W21325   1.326   5.324  14.094  0.1201  0.5360  0.0926
 5065W        W21326  16.389  10.463   2.844  0.1894  0.0100  0.1604
 5066W        W21327  11.892   0.203   3.515  0.0343  0.1923 -0.0710
 5067W        W21328   7.766  10.629  12.716  0.1242  0.0670 -0.0247
 5068W        W21329   8.119   7.041  13.819  0.3417 -0.1109  0.2116
 5069W        W21330   3.265  17.670   4.007 -0.0394  0.2490 -0.2361
 5070W        W21331   2.563  13.893   5.120 -0.1238 -0.2187 -0.1436
 5071W        W21332  15.162  13.949   1.042  0.1159  0.1020 -0.2793
 5072W        W21333   6.020   1.813  13.379 -0.3055  0.0974  0.3775
 5073W        W21334  13.092   9.228  15.469  0.1683 -0.0283 -0.1763
 5074W        W21335  17.477   1.038   4.711 -0.1068  0.1901 -0.2416
 5075W        W21336  15.126   5.466  14.165  0.3342 -0.0552 -0.2304
 5076W        W21337   3.973   2.491  14.750 -0.1160  0.0731  0.1945
 5077W        W21338   3.956  12.260   5.548  0.2302  0.1473 -0.2196
 5078W        W21339  11.103  16.744  14.237  0.0321 -0.1592  0.1150
 5079W        W21340  14.255  10.322   0.415  0.4203  0.0624 -0.0834
 5080W        W21341   6.140  17.014   4.008 -0.2300 -0.1602 -0.1138
 5081W        W21342  10.667   6.619  16.178  0.1341 -0.1666  0.3847
 5082W        W21343   8.397  13.586   1.863 -0.0495  0.2450  0.0598
 5083W        W21344   4.532   6.730  16.004 -0.1830  0.0183  0.2647
 5084W        W21345   1.045   1.210   1.851 -0.1611  0.2692  0.2756
 5085W        W21346  17.542   5.993  11.888  0.0816 -0.0729  0.1047
 5086W        W21347  17.894   8.611  12.182  0.0281 -0.1948 -0.0279
 5087W        W21348  17.997   5.851  11.935  0.0455 -0.0492  0.0850
 5088W        W21349  10.083   0.324   3.878 -0.1825  0.3602 -0.1815
 5089W        W21350   7.285  10.392  14.019  0.1038  0.0455 -0.0323
 5090W        W21351   2.030  10.573  14.364 -0.0145 -0.0091 -0.0097
 5091W        W21352  17.431  18.000  13.320  0.0733  0.0346  0.2392
 5092W        W21353  13.843   2.034   1.717 -0.1538 -0.0654 -0.2447
 5093W        W21354   9.358  17.427  16.426 -0.0300 -0.2052  0.0608
 5094W        W21355  11.061  13.190  12.213  0.2648 -0.5796 -0.0555
 5095W        W21356   7.495   1.419   3.191 -0.1724 -0.1196 -0.1574
 5096W        W21357   2.237  12.668   5.136 -0.4405  0.0510 -0.4435
 5097W        W21358   9.973  17.392   2.551  0.4404 -0.0677  0.1410
 5098W        W21359  16.115   7.235  14.579 -0.2472 -0.3367 -0.0744
 5099W        W21360   5.298   5.149  14.336  0.1802  0.2869  0.1615
 5100W        W21361   0.335  12.716  15.510  0.0310  0.0056  0.0400
 5101W        W21362  15.971  16.370  16.158  0.2499 -0.3251  0.1310
 5102W        W21363   2.694   1.287   5.176 -0.2957 -0.5834 -0.2088
 5103W        W21364   5.307  12.734  16.549  0.2405  0.1373 -0.2560
 5104W        W21365   7.122   1.164   4.595 -0.2897 -0.1391 -0.1575
 5105W        W21366   0.103  13.610   2.267  0.0185  0.0482 -0.0796
 5106W        W21367  14.115  16.791  13.748  0.0484 -0.1341 -0.2944
 5107W        W21368   7.391   4.107  11.643 -0.1950  0.2322  0.0181
 5108W        W21369   5.078   6.638   3.276 -0.3183 -0.2059 -0.1345
 5109W        W21370  17.677   1.711  14.110  0.1070 -0.0491 -0.0628
 5110W        W21371   2.496  15.129  14.084 -0.0499  0.0911 -0.1298
 5111W        W21372   8.075   8.247  15.433  0.2788  0.0541  0.0778
 5112W        W21373   1.970   9.088   5.284 -0.3294 -0.2020 -0.2333
 5113W        W21374  11.205  10.173  16.532 -0.1773  0.0206  0.0719
 5114W        W21375   1.263  11.464   2.235 -0.0192 -0.0972  0.0396
 5115W        W21376  16.254  17.139  16.440 -0.1595 -0.0222  0.2372
 5116W        W21377   4.746  11.816  12.319 -0.1149  0.1020  0.1445
 5117W        W21378   0.472  14.186  14.323 -0.0900 -0.1354 -0.0011
 5118W        W21379  13.528   4.970  15.753 -0.2951 -0.2011  0.2435
 5119W        W21380   0.515  15.690   5.962 -0.2628  0.1241  0.0313
 5120W        W21381  13.410  10.996  12.600 -0.0849 -0.1130 -0.3305
 5121W        W21382   0.488   9.183  11.530 -0.0282 -0.0757  0.0302
 5122W        W21383  14.487   3.574  11.188 -0.2695  0.2717  0.0305
 5123W        W21384   6.023  16.875  16.629  0.0432 -0.2508 -0.2511
 5124W        W21385   3.978   8.845   5.040 -0.0550  0.1446  0.1323
 5125W        W21386  11.647   4.563  11.761  0.1090 -0.1444 -0.0441
 5126W        W21387   6.552   1.155   5.575 -0.3115  0.0237 -0.1253
 5127W        W21388   9.477  16.741  15.675  0.2739 -0.0325 -0.2830
 5128W        W21389   5.407  11.607  14.397  0.0966  0.1694 -0.0801
 5129W        W21390   0.636  17.977   3.052 -0.3138  0.2532 -0.1878
 5130W        W21391  11.883   3.339  14.591  0.2304  0.1929  0.2000
 5131W        W21392   8.130  15.803   2.493 -0.1338 -0.0586 -0.2993
 5132W        W21393  11.626  13.882  14.458 -0.3406 -0.0927 -0.0296
 5133W        W21394  18.022   9.072   0.880  0.1568  0.1428  0.1927
 5134W        W21395   4.928   7.493   1.637 -0.1460 -0.0296 -0.3014
 5135W        W21396  12.885  15.967   2.373  0.1419 -0.2223 -0.2033
 5136W        W21397  16.184  17.019  14.570 -0.0646  0.1766  0.0604
 5137W        W21398   3.761  16.486   4.995 -0.1246  0.0284  0.0082
 5138W        W21399   4.701   9.153  14.741  0.0498  0.0798  0.2533
 5139W        W21400  15.333   3.199  11.639  0.0874  0.2674  0.2179
 5140W        W21401  15.683   6.682   1.584  0.3491  0.0541  0.1958
 5141W        W21402  10.446   1.547  13.737 -0.1306 -0.0594  0.3295
 5142W        W21403   2.357   0.524   1.777 -0.0047  0.1602 -0.1248
 5143W        W21404  11.768  16.587  14.960 -0.1226 -0.1034 -0.0769
 5144W        W21405   7.045   5.639  15.327 -0.0220  0.2562 -0.0992
 5145W        W21406   0.621   2.780  10.762  0.0169 -0.0035 -0.3608
 5146W        W21407   3.313   0.857  11.929  0.3490 -0.1581  0.1452
 5147W        W21408  11.163  17.204   2.312 -0.2784  0.2215 -0.0704
 5148W        W21409  15.697  12.302   0.813  0.0682 -0.2413  0.2916
 5149W        W21410   7.703   0.027  16.297 -0.2309  0.0512 -0.0180
 5150W        W21411  11.200   0.068  16.397  0.1503 -0.0907 -0.0942
 5151W        W21412   7.605   1.712  11.476  0.3407 -0.2965  0.0163
 5152W        W21413   7.032   7.577   0.879  0.2518 -0.0458  0.1193
 5153W        W21414  15.330   2.285   3.531 -0.0528  0.0190 -0.2046
 5154W        W21415   4.803   7.167   4.939  0.1223  0.0971  0.0655
 5155W        W21416  11.252  15.308   2.059  0.0681 -0.1602  0.0233
 5156W        W21417   0.957   6.827  12.312  0.0985 -0.4208 -0.1346
 5157W        W21418   1.163   4.900  15.693  0.4519 -0.0331 -0.0189
 5158W        W21419   1.999   7.580  15.299 -0.0109 -0.0226  0.4751
 5159W        W21420  17.984  16.655   0.948  0.1993  0.1113 -0.2170
 5160W        W21421   5.875  13.088   0.058  0.1221 -0.2762  0.0088
 5161W        W21422   1.550   0.113   4.938 -0.3172 -0.0746 -0.1364
 5162W        W21423   8.727  12.477  15.754 -0.0277  0.0109  0.1367
 5163W        W21424   1.262   2.188  15.367 -0.0372  0.1597  0.1042
 5164W        W21425   4.505  16.367   3.674  0.0468  0.1464 -0.0250
 5165W        W21426   8.681   7.388  15.262 -0.0719  0.0426 -0.0367
 5166W        W21427   8.176   7.481  12.312 -0.2231  0.2037  0.1803
 5167W        W21428   3.553   5.220   4.693 -0.0253  0.0421 -0.0476
 5168W        W21429  12.601  11.796   1.718 -0.0429  0.2791 -0.3296
 5169W        W21430   4.259   7.684  14.658  0.1378 -0.2867  0.0118
 5170W        W21431   7.015   0.371   5.769  0.0161 -0.2333 -0.0028
 5171W        W21432  11.906   6.256  15.197 -0.0629 -0.0113  0.2803
 5172W        W21433   7.588  12.948  16.201 -0.0460 -0.0196  0.0053
 5173W        W21434  13.541   9.999   5.172 -0.0742 -0.1374  0.1783
 5174W        W21435  11.091   6.520  15.662 -0.1049  0.2444  0.2861
 5175W        W21436  11.742  11.455   2.502 -0.1383 -0.0647 -0.1038
 5176W        W21437   1.050   1.404  13.388 -0.2836 -0.0854 -0.1469
 5177W        W21438  16.881  16.981   1.127 -0.2840 -0.3113 -0.0045
 5178W        W21439   7.527   6.841  14.335  0.4053  0.2457 -0.1738
 5179W        W21440  17.730   4.733   4.329  0.1501 -0.5911  0.3669
 5180W        W21441  11.108   6.893   2.723 -0.1256  0.0460  0.0599
 5181W        W21442  11.567   0.522  15.857 -0.1247 -0.1312 -0.0454
 5182W        W21443   0.287   0.575  14.514  0.0348 -0.0156  0.2910
 5183W        W21444   0.119  10.550   4.384 -0.2975 -0.0201  0.1850
 5184W        W21445  13.347   8.609  12.835 -0.0808 -0.0073 -0.1538
 5185W        W21446  11.900   0.982  10.141 -0.2191 -0.0292  0.2102
 5186W        W21447  17.704   8.281  13.593  0.2374 -0.1496  0.2331
 5187W        W21448  12.625  11.603   4.530 -0.1589  0.0022 -0.5136
 5188W        W21449  11.067   9.624   3.521 -0.2940 -0.1085 -0.0464
 5189W        W21450  17.879   9.410   0.185  0.0978  0.2250  0.1525
 5190W        W21451  12.261  12.020   3.177 -0.2725 -0.2386  0.0203
 5191W        W21452  10.873   0.133  13.118  0.0015  0.0440  0.3160
 5192W        W21453  15.285   5.471  15.254  0.1362 -0.2064 -0.1730
 5193W        W21454   2.480  15.519   5.847 -0.2223  0.0102 -0.0221
 5194W        W21455   8.813   7.765  11.251 -0.1290 -0.3362 -0.1397
 5195W        W21456  11.702  14.022   1.071 -0.1714 -0.1086 -0.4560
 5196W        W21457  16.315  16.173   1.902  0.0340 -0.0238  0.0101
 5197W        W21458  16.968  10.651  14.299  0.3159 -0.0684  0.0584
 5198W        W21459   4.553  16.415   5.485 -0.0694  0.2693  0.1036
 5199W        W21460  14.796  12.888   3.727 -0.0640  0.0071  0.0374
 5200W        W21461   6.574  13.859  14.868  0.1500  0.2693 -0.0430
 5201W        W21462  16.406   6.746  13.787 -0.3490  0.0317 -0.2363
 5202W        W21463  17.781   9.862   3.860 -0.2218 -0.0244  0.1470
 5203W        W21464  10.452  10.168   5.189 -0.1591  0.2775  0.0590
 5204W        W21465   7.918  10.975  14.734 -0.2074 -0.0923  0.0436
 5205W        W21466   5.093   2.087   0.920 -0.1565 -0.4372  0.3384
 5206W        W21467   6.999  16.280   2.047 -0.1296 -0.2757  0.1304
 5207W        W21468  17.144  11.556   1.826  0.3777 -0.2749 -0.1093
 5208W        W21469   0.664   6.531   5.474  0.1574 -0.0382  0.2845
 5209W        W21470  14.364   5.221   2.710  0.1705  0.0073 -0.4181
 5210W        W21471  11.390   2.822   3.658 -0.1456  0.1167 -0.0420
 5211W        W21472   1.547  10.311   0.020  0.1498 -0.1916 -0.0302
 5212W        W21473  16.946  12.183   4.533  0.1215  0.0870  0.1291
 5213W        W21474  15.227  13.197  12.886 -0.0226 -0.1337 -0.2214
 5214W        W21475  16.685   8.502   1.378  0.0742  0.2826 -0.0288
 5215W        W21476  12.610   5.016   5.013  0.1279 -0.1528 -0.0627
 5216W        W21477   5.973  11.679  13.557  0.1581 -0.0498 -0.2621
 5217W        W21478   3.544   5.712   6.511  0.1393  0.0470 -0.2833
 5218W        W21479   2.327  10.956   4.142  0.2301 -0.0127 -0.1051
 5219W        W21480  10.508   9.934  14.487  0.1470 -0.1685 -0.0495
 5220W        W21481   5.304   5.177   4.541 -0.1266  0.4236 -0.0082
 5221W        W21482  13.248  11.822  11.715  0.2420 -0.4258  0.1078
 5222W        W21483   1.763   5.826  11.666  0.2485 -0.2240 -0.3041
 5223W        W21484   4.253   1.262   4.577 -0.1903  0.0772 -0.1353
 5224W        W21485  14.125   7.906  16.062 -0.1551 -0.0185 -0.3669
 5225W        W21486  11.240   6.159  13.207  0.1166 -0.3914 -0.2663
 5226W        W21487   5.795  12.424   1.332  0.1057  0.0944 -0.1689
 5227W        W21488   6.135  11.953  14.980 -0.1666  0.0104  0.0733
 5228W        W21489   9.655  16.668  16.132  0.1110 -0.0913  0.1821
 5229W        W21490  13.945   5.987  13.740 -0.0070  0.4629 -0.2071
 5230W        W21491   9.624  12.301   3.214  0.1428 -0.3660  0.0107
 5231W        W21492   1.827   9.539  14.824 -0.1274 -0.1548  0.2382
 5232W        W21493   7.848   9.603   3.286 -0.2010 -0.3033 -0.0523
 5233W        W21494   8.808   7.168  14.338 -0.0041 -0.3309  0.0224
 5234W        W21495   8.278  16.174   6.883  0.0831  0.1383 -0.1971
 5235W        W21496  14.979   4.088   1.592  0.1317 -0.1653 -0.0334
 5236W        W21497   8.965  16.148  14.053  0.0715  0.2180 -0.0558
 5237W        W21498   1.256  15.649   1.586 -0.0721  0.1813  0.1406
 5238W        W21499  16.043   7.137  16.512  0.1827  0.1566  0.0118
 5239W        W21500   8.593  16.470   2.001 -0.1118  0.2577  0.3811
 5240W        W21501   9.262   7.905   4.521  0.1697 -0.0574  0.0668
 5241W        W21502   0.250  15.701   5.491 -0.0048 -0.2328 -0.0329
 5242W        W21503   0.703   1.916   2.792 -0.4068 -0.2644  0.1706
 5243W        W21504   9.650   8.168   4.359  0.0633  0.1253  0.1483
 5244W        W21505   6.300  15.094  13.523  0.0223  0.0276  0.1821
 5245W        W21506   7.588  13.082   2.314 -0.0848  0.1795 -0.1415
 5246W        W21507   8.931   3.611   3.264 -0.1525  0.1148 -0.1248
 5247W        W21508   9.579   4.543   5.411 -0.7119 -0.2238 -0.2965
 5248W        W21509   9.316   0.473  13.235 -0.1053  0.2719 -0.1898
 5249W        W21510  12.747   4.960   3.205  0.0982  0.0724  0.2485
 5250W        W21511   7.084  10.537   1.439  0.0596 -0.0514  0.0151
 5251W        W21512  12.903   7.272   1.324 -0.0011  0.0823  0.2654
 5252W        W21513  10.102   3.071   4.940 -0.1547  0.0550  0.0158
 5253W        W21514  15.364   1.192  11.605 -0.2317  0.0105  0.1492
 5254W        W21515  17.256  17.275  11.847 -0.1392  0.1519 -0.1289
 5255W        W21516   8.356   2.403  13.540 -0.1318  0.0613  0.0435
 5256W        W21517   9.825   6.612   5.432  0.4267 -0.3310  0.0451
 5257W        W21518   9.886   3.587   3.746 -0.3686 -0.0564 -0.1099
 5258W        W21519   1.903  16.604   1.400  0.0016  0.2688 -0.2906
 5259W        W21520  17.959  13.043  12.239 -0.2837  0.1246 -0.1224
 5260W        W21521   9.606   6.155   3.738 -0.0773  0.1461  0.0291
 5261W        W21522   7.739   9.795   1.272  0.0464  0.3205 -0.1918
 5262W        W21523   5.816   0.837  13.863 -0.1176  0.1377 -0.3379
 5263W        W21524   5.199  13.556  13.099  0.4172  0.1864 -0.0681
 5264W        W21525   8.253  15.320  16.248 -0.0174  0.0858 -0.1556
 5265W        W21526  12.949  14.461  14.098 -0.1298  0.0141  0.2843
 5266W        W21527   9.938   4.690   2.324  0.1783  0.1727 -0.2676
 5267W        W21528   2.669   1.637  11.759 -0.0856 -0.1930 -0.4589
 5268W        W21529   3.426  14.982  14.858  0.0340  0.1390  0.2808
 5269W        W21530  13.999   9.277   0.283 -0.1262  0.2711  0.0549
 5270W        W21531   8.328   9.765  12.969 -0.0059 -0.0113  0.1630
 5271W        W21532   6.799  12.844  15.017  0.0466  0.3549  0.2033
 5272W        W21533   1.667   1.132   3.608 -0.1181  0.1353 -0.0373
 5273W        W21534   7.283  11.896  15.994 -0.1945 -0.0270 -0.1050
 5274W        W21535   8.178  16.916  16.161  0.1025 -0.0487 -0.0461
 5275W        W21536  14.583  12.135  14.132 -0.1210 -0.0470  0.0367
 5276W        W21537   6.138   3.777   2.390  0.2427  0.0477 -0.1827
 5277W        W21538  16.011  10.390   2.418 -0.1967 -0.2573  0.1152
 5278W        W21539  15.484  10.975  16.374 -0.2507  0.2587 -0.1283
 5279W        W21540  11.445  12.991   5.859  0.0671 -0.2308 -0.0209
 5280W        W21541   1.695  17.924   0.198 -0.2277 -0.1869  0.0192
 5281W        W21542  11.167   6.287   0.224  0.1789  0.1418  0.2145
 5282W        W21543   8.044  10.067   3.274 -0.2388 -0.0129  0.1470
 5283W        W21544  12.713  11.886  12.625 -0.1357 -0.2215  0.1544
 5284W        W21545  11.449   6.096   5.627 -0.2158 -0.0876 -0.3679
 5285W        W21546   2.851   8.976  12.597 -0.0248  0.1382  0.1232
 5286W        W21547  16.116  16.183  15.418  0.2620 -0.1935  0.2673
 5287W        W21548   5.396   3.755   4.953  0.0176  0.2029  0.0716
 5288W        W21549  15.075  10.294  14.978  0.3393 -0.0483  0.1235
 5289W        W21550  13.901   5.584  14.623 -0.2397 -0.1201  0.2139
 5290W        W21551   6.335   9.117  14.535 -0.0930 -0.3193  0.3016
 5291W        W21552  11.508  17.383   1.332  0.0871 -0.0638  0.0862
 5292W        W21553  17.986   1.652   3.933  0.2639 -0.1114  0.1957
 5293W        W21554   2.037   3.464  14.746 -0.1863  0.0223  0.0398
 5294W        W21555   9.827   2.167  13.022 -0.1815  0.2113 -0.0384
 5295W        W21556   0.896   8.625   2.908 -0.0142 -0.0337 -0.2626
 5296W        W21557   9.931  14.360  15.744 -0.0635 -0.0268  0.1994
 5297W        W21558  11.845   4.438  15.798  0.1952 -0.2663 -0.0243
 5298W        W21559   4.866   0.826  12.745 -0.1097 -0.1271  0.1874
 5299W        W21560  12.621  15.860  14.270 -0.1048 -0.1456 -0.0669
 5300W        W21561  13.166   9.052  14.914  0.2134 -0.0951 -0.0517
 5301W        W21562   0.869  11.529   4.817  0.0894 -0.1530 -0.1993
 5302W        W21563  15.277   1.368   5.735 -0.1005 -0.2421 -0.0012
 5303W        W21564   5.690   3.950   0.966  0.2993 -0.2744  0.3978
 5304W        W21565  11.524   1.978  14.779 -0.0733 -0.0315 -0.0711
 5305W        W21566   8.076   1.120   4.390  0.1703  0.0703 -0.0305
 5306W        W21567  13.545   3.531   0.792  0.0806  0.0654 -0.1473
 5307W        W21568   2.905  17.353  15.359 -0.0730  0.0611 -0.2098
 5308W        W21569   5.642   1.375  14.654 -0.0943  0.2112  0.0716
 5309W        W21570   9.553  12.131  15.848 -0.0424  0.0598  0.0819
 5310W        W21571   0.551   7.700   0.188 -0.0315  0.1169  0.0397
 5311W        W21572   5.257   1.308   5.880 -0.0478 -0.1247 -0.1190
 5312W        W21573  14.274  12.076  12.948 -0.1818 -0.2154 -0.2288
 5313W        W21574   9.339   4.477  13.554 -0.0944 -0.1037  0.0995
 5314W        W21575   9.991  13.236   3.739 -0.1387  0.0278  0.0783
 5315W        W21576  17.767  16.990   1.314  0.0373 -0.0365 -0.3028
 5316W        W21577   1.739  16.956  12.145  0.1475 -0.1288 -0.1437
 5317W        W21578   3.377   7.979  11.913 -0.1247  0.0193  0.3602
 5318W        W21579   2.865  10.649  11.923 -0.1444  0.2550  0.1287
 5319W        W21580   5.293   1.921   4.361 -0.0183 -0.1633  0.3018
 5320W        W21581   9.695  12.752   0.391  0.1280  0.0811  0.2010
 5321W        W21582   8.054   0.863   2.559  0.1738  0.1238  0.0347
 5322W        W21583   9.571   2.646   4.270  0.0924 -0.0320  0.0822
 5323W        W21584  13.589   9.365   2.709 -0.0294  0.0777 -0.0244
 5324W        W21585  13.874   1.455   5.482 -0.2810 -0.2334  0.0439
 5325W        W21586   7.246   6.167   2.071  0.1482  0.1537  0.1965
 5326W        W21587   6.878   6.075  15.731  0.0839  0.3281 -0.2161
 5327W        W21588  11.748  10.429   4.299 -0.3255  0.3738 -0.4899
 5328W        W21589   6.325   5.581  11.863  0.1275 -0.0691 -0.1461
 5329W        W21590   7.664   2.856  13.762  0.1406 -0.1222  0.2130
 5330W        W21591   7.091  13.911  14.018  0.1279 -0.0212 -0.0769
 5331W        W21592  15.315   9.231  12.569  0.0679 -0.0054 -0.3000
 5332W        W21593   6.013  16.637   4.372  0.0979  0.0946 -0.0816
 5333W        W21594  10.729   2.543   3.075  0.0206 -0.0857  0.0399
 5334W        W21595   9.050   1.876  13.906 -0.4110  0.0607  0.2667
 5335W        W21596  17.712   0.065   0.841 -0.0610  0.0005  0.1040
 5336W        W21597  10.515  10.641  14.819  0.4197  0.4699 -0.0154
 5337W        W21598  17.383  11.607   3.368  0.0274  0.0591 -0.0487
 5338W        W21599   7.038  15.129  14.966 -0.3159 -0.1947 -0.1169
 5339W        W21600   6.322   7.852   1.494 -0.0914  0.0138 -0.0469
 5340W        W21601   3.358   8.070   4.799 -0.2181  0.2675 -0.1686
 5341W        W21602  16.825  10.580  12.822  0.0119 -0.0551  0.1259
 5342W        W21603   0.228  11.782   0.758  0.1645 -0.1327  0.2084
 5343W        W21604   4.978   4.538   5.075  0.2585 -0.2427 -0.3144
 5344W        W21605  15.359  17.334   0.361 -0.0286 -0.2258  0.1465
 5345W        W21606   6.301  14.425   3.208  0.1056 -0.1013  0.0070
 5346W        W21607   9.970   2.818  12.254  0.4663  0.0875  0.2028
 5347W        W21608   9.334   4.157  11.236  0.2794  0.0464  0.1560
 5348W        W21609   4.407  13.865  12.206  0.1945 -0.1443 -0.0942
 5349W        W21610   1.439  18.161  16.420 -0.0592 -0.0968 -0.0406
 5350W        W21611  12.488   4.099   0.074 -0.1421 -0.1562 -0.1630
 5351W        W21612   5.744   1.904   2.708 -0.0841  0.6774  0.0209
 5352W        W21613   0.557   6.986   5.279 -0.0343  0.2380 -0.0999
 5353W        W21614   0.289  12.160   3.092 -0.1644  0.0268  0.1622
 5354W        W21615  18.159   1.170  12.214 -0.2830  0.2971 -0.0746
 5355W        W21616  12.010   3.780  13.254 -0.0744  0.1599  0.1460
 5356W        W21617  17.249  15.634   0.526 -0.1473  0.0319  0.1666
 5357W        W21618   5.779   8.149  14.985 -0.2534  0.0669  0.3579
 5358W        W21619   7.599  15.575  12.408  0.1964 -0.2915  0.1622
 5359W        W21620  15.833  10.256   0.569 -0.2099  0.1548 -0.0088
 5360W        W21621   2.840  13.687   2.547 -0.0836 -0.1293 -0.1780
 5361W        W21622   1.335  16.848  11.369 -0.2339 -0.0649 -0.1673
 5362W        W21623  16.740   0.492  13.210 -0.0206 -0.3861  0.1301
 5363W        W21624  15.161   5.545   4.062  0.0787 -0.0458  0.0032
 5364W        W21625  15.563  17.651   2.268 -0.0877 -0.1707  0.0701
 5365W        W21626   5.404  11.856   1.336 -0.3481 -0.0557  0.0217
 5366W        W21627  14.809  14.944  13.409  0.0785 -0.1256  0.1391
 5367W        W21628   7.597   1.308  15.423  0.1325  0.0579 -0.1937
 5368W        W21629  11.450  17.217  14.101 -0.2666 -0.1333 -0.1296
 5369W        W21630   2.093   5.879  12.195 -0.1915  0.0022  0.0005
 5370W        W21631  10.976  17.291   5.293 -0.1352  0.0177  0.1885
 5371W        W21632  18.139   6.362  15.709 -0.3655  0.2967  0.2724
 5372W        W21633   1.530  16.171   0.170 -0.0391 -0.2401  0.0639
 5373W        W21634  10.439  13.247   1.677  0.2693  0.2925 -0.0357
 5374W        W21635   3.728  12.155   0.820 -0.2074  0.0305 -0.0864
 5375W        W21636  12.001   5.764  15.344 -0.0345  0.1791  0.1495
 5376W        W21637  15.351  13.632  13.830 -0.0946  0.2119  0.0340
 5377W        W21638   8.034   9.274  13.896  0.0517  0.1733  0.1602
 5378W        W21639   2.272  16.535  16.443 -0.2510 -0.2264  0.2658
 5379W        W21640   3.598  15.357   1.115  0.0112  0.0339  0.2969
 5380W        W21641   7.843  10.848  12.100  0.3874  0.0642  0.3586
 5381W        W21642  16.519   8.947   3.460  0.2265 -0.3469 -0.1586
 5382W        W21643   7.994  17.433  12.441 -0.2913  0.0241 -0.1112
 5383W        W21644  14.568  11.055   1.834  0.1469 -0.3017 -0.1406
 5384W        W21645  16.002  15.179   1.037 -0.5160  0.1533  0.0705
 5385W        W21646   3.128   7.647   5.181 -0.1189  0.0363 -0.2198
 5386W        W21647  18.177  11.373  13.581  0.0596 -0.0366 -0.2052
 5387W        W21648   3.920   9.762   1.258  0.2577 -0.1945  0.3399
 5388W        W21649   5.661   8.178  16.509  0.3169  0.2795 -0.0519
 5389W        W21650   2.245   9.417   0.841  0.0794 -0.0681 -0.1243
 5390W        W21651   9.179  13.435  13.176  0.1458  0.0491  0.2442
 5391W        W21652  16.190   3.484   3.427 -0.0387 -0.0049 -0.2373
 5392W        W21653   4.573   9.264   1.649  0.0115 -0.1981  0.3859
 5393W        W21654   4.058   6.604  15.951 -0.3396  0.3052  0.2323
 5394W        W21655  11.374  11.607  15.255 -0.1016 -0.0737 -0.4283
 5395W        W21656  10.781   5.306   1.288  0.2267 -0.0220  0.0908
 5396W        W21657   3.970   1.673  11.835 -0.2273 -0.1011  0.1038
 5397W        W21658  17.120   0.802   4.999  0.0166  0.2608 -0.0617
 5398W        W21659   4.252   9.481  13.544 -0.0731  0.0125  0.4919
 5399W        W21660  13.242   5.381  12.688  0.0549 -0.0494 -0.1328
 5400W        W21661   9.867   0.243   4.928  0.1451  0.2038  0.3588
 5401W        W21662   3.939  15.589  12.143 -0.2272  0.2854  0.3358
 5402W        W21663   7.767   8.588   4.941  0.3437 -0.1939 -0.2077
 5403W        W21664   6.815  13.125  12.197  0.0275 -0.0972  0.2643
 5404W        W21665   7.259  13.721   5.727 -0.0083 -0.0320 -0.0939
 5405W        W21666  11.443   9.538  13.450  0.0766  0.0369  0.1165
 5406W        W21667   7.612  14.224   5.614 -0.3416  0.1602  0.1106
 5407W        W21668   6.419  14.866   4.596  0.5053 -0.1484 -0.1090
 5408W        W21669  14.054   3.743  15.536 -0.2748 -0.3194 -0.3151
 5409W        W21670   8.083  13.227   2.056 -0.1258  0.0429 -0.1389
 5410W        W21671  17.720  16.969  14.978  0.5178  0.0749 -0.2251
 5411W        W21672   1.305   3.688  12.278 -0.0240 -0.1072 -0.1667
 5412W        W21673  15.052  11.427  15.629  0.2837 -0.0373  0.1576
 5413W        W21674  15.197   5.709   4.934 -0.0347  0.0195 -0.2777
 5414W        W21675  11.863  16.851  11.617  0.3293  0.0475 -0.2574
 5415W        W21676   2.592  12.209   4.386 -0.2082 -0.2861  0.1995
 5416W        W21677  15.754   1.658   5.963 -0.1125 -0.0391  0.0302
 5417W        W21678  15.093  11.361   1.455 -0.0871 -0.0828  0.2506
 5418W        W21679   9.474   7.115  11.070  0.0320  0.1655  0.1914
 5419W        W21680   9.916  13.944   1.148 -0.3424  0.0237  0.0090
 5420W        W21681  15.552  11.247   0.670  0.1269 -0.0754  0.1032
 5421W        W21682  14.549   2.459   1.424  0.0890  0.1357 -0.1008
 5422W        W21683  17.297   3.570   1.241  0.0512  0.2015  0.0727
 5423W        W21684  15.023  16.312   1.598  0.0631  0.1337 -0.1880
 5424W        W21685  15.869   2.185  14.743  0.3489 -0.2803 -0.4125
 5425W        W21686   6.433  11.819  13.727 -0.2588 -0.0711  0.0654
 5426W        W21687  16.315  14.816  12.414 -0.0051 -0.0310  0.0392
 5427W        W21688  16.218   2.524   5.811 -0.0028  0.0130  0.1568
 5428W        W21689   3.780   8.203  12.695 -0.1246 -0.1806 -0.1522
 5429W        W21690   9.426  17.650  11.220  0.2032 -0.1088  0.2993
 5430W        W21691   2.979  10.018  14.486 -0.0136  0.0662  0.1471
 5431W        W21692  10.434   0.904  15.628  0.3600 -0.1221 -0.1775
 5432W        W21693   4.672  14.210   3.519 -0.1788 -0.2185 -0.0097
 5433W        W21694  14.396   4.545  13.715  0.3469 -0.1458  0.3005
 5434W        W21695   1.847   1.188  16.277  0.0501 -0.0802 -0.1831
 5435W        W21696  16.926   8.710   0.943  0.3358 -0.1056 -0.4412
 5436W        W21697  14.758   7.768  15.375 -0.2939  0.0134 -0.0803
 5437W        W21698   1.141  15.246  13.047  0.1445 -0.2900 -0.2328
 5438W        W21699   6.479   8.733  13.422  0.1987 -0.1327  0.0676
 5439W        W21700  17.383  12.089   3.737  0.2377  0.3159  0.0722
 5440W        W21701  16.533  12.496  12.559 -0.2383 -0.0525  0.3069
 5441W        W21702  16.643  16.814  14.401 -0.0845  0.0089 -0.2533
 5442W        W21703   2.419  13.303   6.467  0.2859 -0.1744 -0.5198
 5443W        W21704  13.968  14.335   4.676  0.1286  0.1200 -0.0223
 5444W        W21705  14.768   4.327   4.900  0.0178  0.0707  0.2983
 5445W        W21706   7.988  10.292   2.509 -0.0583 -0.3734 -0.1409
 5446W        W21707   6.912   2.510  12.572 -0.4053 -0.3700 -0.1759
 5447W        W21708  12.611   4.331  11.573  0.0700 -0.0065  0.0380
 5448W        W21709  10.470   9.147   1.081  0.1634 -0.1924  0.0177
 5449W        W21710   8.665   7.541  13.501  0.3324 -0.2612 -0.2799
 5450W        W21711   0.211  10.405  12.915 -0.1325  0.1867  0.0836
 5451W        W21712   6.382   2.078  12.099 -0.1043  0.0102 -0.0928
 5452W        W21713   1.989  10.648  12.094  0.0310 -0.1983 -0.0988
 5453W        W21714  16.762  16.122  15.184 -0.2005 -0.4395 -0.2252
 5454W        W21715   8.367  15.597   0.603  0.2264 -0.0945  0.0045
 5455W        W21716   3.999  15.309  16.513  0.1715 -0.1403  0.1037
 5456W        W21717   5.240   5.635   5.176  0.0698  0.0053  0.0570
 5457W        W21718  11.239  13.445   2.023  0.0577  0.0660  0.2318
 5458W        W21719   9.798   9.404  14.121 -0.0217  0.2536 -0.2053
 5459W        W21720  10.257   5.153   2.144  0.0097  0.0484  0.1557
 5460W        W21721  10.876  12.118   2.875 -0.1387 -0.0479 -0.0296
 5461W        W21722   0.241   9.154   3.903  0.2548 -0.2000 -0.0787
 5462W        W21723   4.020   3.006   0.024  0.1479  0.0486  0.0612
 5463W        W21724   5.137   0.247   4.546 -0.1428 -0.0454  0.0663
 5464W        W21725   4.912   2.598  13.584 -0.2920 -0.1329  0.0544
 5465W        W21726  12.256   2.182  12.275  0.0483  0.0108  0.0518
 5466W        W21727  10.536  16.815   0.542  0.0784  0.0990  0.0425
 5467W        W21728  16.175  10.316   3.382 -0.0972  0.2899 -0.0214
 5468W        W21729  14.330   0.607   4.072 -0.2014  0.1692 -0.1260
 5469W        W21730   7.487  11.522  11.591 -0.1023 -0.1301  0.0699
 5470W        W21731   6.090  14.809   1.836  0.2146 -0.3510  0.3037
 5471W        W21732   9.751   8.532  15.072 -0.1704  0.1595  0.0042
 5472W        W21733   7.233   2.636   1.431  0.0999  0.0068 -0.0201
 5473W        W21734   1.298  12.787   5.054 -0.3369  0.3463 -0.0889
 5474W        W21735  13.879  12.700  14.101 -0.0971  0.0371  0.0775
 5475W        W21736   2.102   2.467   3.006 -0.1717  0.1190  0.1454
 5476W        W21737  13.541  14.127  13.522  0.0632 -0.1872 -0.0711
 5477W        W21738   6.113  12.650  12.973 -0.1303  0.0683 -0.5051
 5478W        W21739   9.381   4.648  15.985  0.1207  0.2967 -0.1355
 5479W        W21740   2.988  11.523   1.301 -0.0780  0.1949  0.0665
 5480W        W21741   2.889  17.747   4.906  0.3107  0.0052 -0.0240
 5481W        W21742  14.366  11.098  12.824 -0.0990 -0.0635  0.1345
 5482W        W21743   8.010   8.431  16.389  0.1064  0.1592 -0.1547
 5483W        W21744  12.045  16.518  15.703  0.0329  0.1175  0.0419
 5484W        W21745  13.931  11.250   3.890 -0.1166  0.0618  0.3921
 5485W        W21746  10.829   9.400   0.469  0.0214  0.0148  0.2225
 5486W        W21747   9.882  15.259   2.111 -0.0605  0.1433  0.0531
 5487W        W21748   3.159   9.562   4.842  0.1148  0.2220 -0.0078
 5488W        W21749  11.705  16.330  12.624 -0.0235 -0.0956 -0.0294
 5489W        W21750  12.235  17.997   1.001 -0.1253 -0.0252  0.2576
 5490W        W21751   4.457  12.386  13.893  0.3843 -0.1956  0.0558
 5491W        W21752  11.734   8.687  15.890  0.0381  0.3415 -0.2045
 5492W        W21753  11.315   8.844   3.499  0.3138  0.0702  0.0047
 5493W        W21754  16.215  12.483  14.530  0.1227 -0.2595 -0.0172
 5494W        W21755  17.086   5.478  15.736  0.0506 -0.1518 -0.2697
 5495W        W21756   5.008  12.836  11.185 -0.3379 -0.1034  0.0644
 5496W        W21757   2.734   3.737   6.805 -0.1476 -0.1920  0.2216
 5497W        W21758  12.118  15.707  14.430  0.0856 -0.1576  0.0694
 5498W        W21759  17.934   2.327   0.126  0.4466 -0.1276  0.1918
 5499W        W21760  16.851   9.460   2.358  0.0247 -0.0935 -0.1886
 5500W        W21761   7.247   8.014  13.369 -0.1473  0.0091  0.0055
 5501W        W21762   8.192  16.918   0.581  0.0704  0.0569 -0.0492
 5502W        W21763  17.871   8.987  13.996 -0.3574 -0.2585 -0.1015
 5503W        W21764   8.901  16.489   0.540  0.0088  0.1397  0.0006
 5504W        W21765  10.163  17.161   3.444 -0.1717  0.2906 -0.2369
 5505W        W21766  10.284  16.306  15.909  0.3147 -0.1027 -0.3710
 5506W        W21767   1.315   2.023   2.068 -0.0949 -0.0410  0.2652
 5507W        W21768  13.189  11.365  15.374  0.1653  0.2159  0.1205
 5508W        W21769   1.951   0.960  14.129  0.1085 -0.0197  0.1530
 5509W        W21770  13.445   0.938   0.035 -0.0248 -0.2098  0.3216
 5510W        W21771  16.194   1.281   0.107  0.0422  0.0794  0.2482
 5511W        W21772  14.037  14.320  13.886 -0.1519  0.0840 -0.1220
 5512W        W21773   5.760  16.639  13.643 -0.0182  0.0227 -0.0475
 5513W        W21774  17.506  10.225  12.205 -0.2912  0.0537 -0.0663
 5514W        W21775  12.009  17.843   4.960 -0.0832 -0.1672 -0.1401
 5515W        W21776   3.550   3.558  13.144  0.4007 -0.0610  0.1578
 5516W        W21777   9.380  10.882   5.774 -0.0868 -0.0042  0.2739
 5517W        W21778  12.266   8.710   5.302 -0.0910 -0.2121  0.0585
 5518W        W21779  13.801  15.470   5.474  0.2742  0.0262 -0.3543
 5519W        W21780   9.120  12.874   3.625  0.1573 -0.0539 -0.1141
 5520W        W21781   4.923   0.694   1.687  0.0181  0.1861 -0.2705
 5521W        W21782  10.451   2.951   2.942  0.2106 -0.1203 -0.1159
 5522W        W21783  13.221  10.569   4.077  0.1689 -0.0669 -0.0917
 5523W        W21784   3.272  12.374  14.709  0.0774  0.0517  0.0401
 5524W        W21785  16.378  15.017  14.342  0.3264 -0.1751  0.3400
 5525W        W21786  11.229   3.838  15.567 -0.0442  0.0829 -0.3670
 5526W        W21787  12.976   0.870  14.299  0.0400  0.0079  0.0196
 5527W        W21788   7.835  10.278   4.599 -0.3395 -0.1371 -0.0596
 5528W        W21789   6.938  14.875  11.929  0.0721  0.3844  0.1502
 5529W        W21790  11.325  17.939   4.232 -0.1205 -0.0449  0.1086
 5530W        W21791   1.508   8.829  12.642 -0.3787  0.2756  0.0056
 5531W        W21792   7.245   8.533   2.522 -0.1347 -0.1659  0.1144
 5532W        W21793  12.996   0.786   3.187  0.2843 -0.2485  0.0737
 5533W        W21794   0.755  13.933  13.355  0.4622  0.1014 -0.0543
 5534W        W21795  16.928   1.452   2.969 -0.0077  0.0258 -0.1522
 5535W        W21796  12.188   7.462   0.159 -0.1600  0.0137 -0.0098
 5536W        W21797   7.365  15.717  14.548 -0.2475 -0.1595  0.0561
 5537W        W21798  10.385  14.450   5.621 -0.3291  0.0736 -0.0533
 5538W        W21799   8.697   9.232   3.521  0.1925 -0.1381 -0.1471
 5539W        W21800   7.110   9.729  15.916  0.0614  0.3019 -0.0094
 5540W        W21801   0.113  15.357   2.417  0.2916 -0.0470  0.1713
 5541W        W21802   4.310   3.896  13.574 -0.0235  0.1137  0.0971
 5542W        W21803   5.918   0.465   0.420  0.0794 -0.0042 -0.2124
 5543W        W21804   2.015  13.876  12.648  0.2442  0.0412  0.0501
 5544W        W21805   4.236  10.995   1.102 -0.0560  0.2315  0.0512
 5545W        W21806  12.633  15.371  12.034 -0.3134 -0.4962 -0.3450
 5546W        W21807   2.512  12.952  11.864 -0.0054 -0.1616  0.1865
 5547W        W21808   8.434  12.914  13.493 -0.0169 -0.0188 -0.0564
 5548W        W21809   3.711  15.889  11.727 -0.3770  0.2303  0.0125
 5549W        W21810   7.248  16.031  13.198 -0.2308 -0.0252 -0.0037
 5550W        W21811   4.615   6.519  12.421 -0.2258  0.1491  0.2280
 5551W        W21812   8.387  13.033  16.350  0.1197  0.0382  0.0987
 5552W        W21813   3.668  17.116  15.819 -0.1718  0.2497  0.0548
 5553W        W21814   2.561  10.877  15.794 -0.1162 -0.0741  0.2795
 5554W        W21815  14.245  12.935  13.745  0.0127 -0.1264  0.0117
 5555W        W21816  10.871  10.047   5.399 -0.0131  0.0448  0.1184
 5556W        W21817   2.126   3.372  12.937 -0.0422  0.2381 -0.2117
 5557W        W21818  11.865  13.563   5.243 -0.2231 -0.0467  0.2059
 5558W        W21819  17.889  14.076   4.965 -0.3134 -0.2259 -0.3009
 5559W        W21820   7.817   6.391  12.844 -0.0535  0.1923 -0.0639
 5560W        W21821   0.239   0.762  13.554 -0.1993 -0.0061  0.0546
 5561W        W21822  10.446  10.358   0.486 -0.0725  0.0914  0.0413
 5562W        W21823   2.150   8.104  11.960 -0.1067  0.0484  0.0824
 5563W        W21824   2.746   8.804  16.416 -0.0991  0.0121  0.0484
 5564W        W21825  10.087   0.080  13.614 -0.0526 -0.2271 -0.0919
 5565W        W21826   0.774   6.947   0.507 -0.0671  0.2047 -0.2893
 5566W        W21827  13.570   1.354   1.537 -0.1579 -0.1206  0.0327
 5567W        W21828   9.465   4.915  14.170  0.1808 -0.1184 -0.0043
 5568W        W21829  11.128   7.818   3.420 -0.0140  0.2586  0.3206
 5569W        W21830   3.572   4.429   2.746  0.1291  0.2664  0.2023
 5570W        W21831  11.539   5.034   0.572  0.0171 -0.2013 -0.1043
 5571W        W21832   2.884  10.294   0.959 -0.1530  0.0873 -0.0846
 5572W        W21833   1.064  10.053   5.124 -0.1113  0.0488  0.1854
 5573W        W21834  10.491  11.689   6.023 -0.2614  0.1254 -0.0942
 5574W        W21835  10.671   1.243   1.071 -0.2002 -0.4558  0.0783
 5575W        W21836  15.355  11.296  15.052 -0.0441  0.0833  0.0127
 5576W        W21837  12.410   4.701   3.776 -0.1761 -0.3650 -0.1714
 5577W        W21838  15.748   3.764  12.907  0.0991 -0.1103  0.0468
 5578W        W21839  14.200  10.052  14.876  0.1191  0.0589 -0.2564
 5579W        W21840   1.401  11.636  14.446  0.0485 -0.0489  0.0648
 5580W        W21841  12.873  13.827   3.803 -0.0195  0.2891  0.1188
 5581W        W21842   0.590  12.107   4.866  0.6094  0.3342  0.0748
 5582W        W21843  14.999   3.791  12.243  0.0485 -0.0822  0.2038
 5583W        W21844  16.053   8.488   3.060  0.2202 -0.0071 -0.1486
 5584W        W21845   5.906  10.347   5.771 -0.2030 -0.1726  0.2275
 5585W        W21846  13.035  17.891   4.286  0.1720  0.0208 -0.2516
 5586W        W21847  14.506   8.376   5.048 -0.1420  0.1199 -0.1888
 5587W        W21848   6.451   3.342  15.069  0.1254  0.1602 -0.0661
 5588W        W21849   7.661  11.666   2.769  0.1498  0.3201 -0.2393
 5589W        W21850  11.565  11.648   1.868  0.1685  0.1332  0.0561
 5590W        W21851   4.585  10.677   5.372  0.2200 -0.0297  0.0676
 5591W        W21852  17.983   1.848   2.028 -0.3721 -0.1313 -0.2448
 5592W        W21853   1.580   3.773  12.711 -0.1765  0.0451 -0.1705
 5593W        W21854   8.986   2.409  11.977 -0.0045 -0.0261 -0.2214
 5594W        W21855   9.723  12.873  14.898  0.1944 -0.2173 -0.1897
 5595W        W21856  17.281   5.694   1.017  0.2078  0.1960  0.0823
 5596W        W21857   9.785  13.320   1.697 -0.0115  0.0077 -0.1839
 5597W        W21858  14.776   0.701   3.730  0.0568 -0.0734  0.0167
 5598W        W21859  10.365   0.129  11.944 -0.2115 -0.0419 -0.0632
 5599W        W21860  16.107  15.674  14.854 -0.2241  0.0637  0.3914
 5600W        W21861  16.531   4.392  16.291  0.0115 -0.1137 -0.0703
 5601W        W21862   4.912   6.410  13.921 -0.1475 -0.0066  0.3673
 5602W        W21863   5.484   3.353  13.855 -0.0358  0.2450 -0.0868
 5603W        W21864   8.190  16.733   6.119  0.1226  0.1219 -0.0433
 5604W        W21865   2.680  13.351   5.519 -0.3886 -0.0727  0.0984
 5605W        W21866   4.532   7.755   1.683 -0.1974  0.2300  0.1985
 5606W        W21867   0.094   4.781   2.546 -0.1588 -0.1086 -0.0043
 5607W        W21868   4.678   5.541  15.990  0.4943 -0.2215  0.3065
 5608W        W21869  11.590   5.981   0.192  0.0684 -0.1608  0.0684
 5609W        W21870  13.066  14.889  13.724  0.0924  0.0843 -0.2181
 5610W        W21871   8.221   9.705   1.406  0.1836  0.2022 -0.0880
 5611W        W21872  13.052   5.551  15.015  0.2647 -0.2316  0.2904
 5612W        W21873   0.521  12.292   2.262 -0.3077  0.1185 -0.1071
 5613W        W21874   5.555   9.138  14.687 -0.0055  0.0349 -0.1537
 5614W        W21875  10.156   0.194   2.912 -0.0454 -0.4597  0.1442
 5615W        W21876  13.601   7.365  11.965 -0.3943  0.0192 -0.1282
 5616W        W21877   4.555   8.551  16.239  0.1496  0.0990 -0.0890
 5617W        W21878   7.348   2.912   5.298 -0.1007  0.0788 -0.3309
 5618W        W21879   3.318  15.636  15.742  0.0141  0.1308  0.1286
 5619W        W21880  12.488   3.707   3.733 -0.1654  0.0496 -0.0450
 5620W        W21881   5.120  13.604   4.030  0.0451 -0.0082  0.1587
 5621W        W21882   7.766   4.454  15.080 -0.0074  0.0891 -0.1994
 5622W        W21883   4.707   4.918  13.093 -0.2676 -0.0831  0.2425
 5623W        W21884  10.424   8.937  16.443 -0.0261  0.1298  0.0474
 5624W        W21885  11.907  17.787  12.879  0.1971  0.1825  0.0298
 5625W        W21886   2.157  14.778  11.483 -0.3254 -0.2916  0.1813
 5626W        W21887   4.445  11.380   1.447  0.0427 -0.0193 -0.1246
 5627W        W21888   6.353  16.468   6.069 -0.1015 -0.1412 -0.0644
 5628W        W21889   4.640  16.856  14.904 -0.1662 -0.1153 -0.0788
 5629W        W21890  16.673   1.541   3.448 -0.2724  0.0124 -0.2260
 5630W        W21891   9.976  16.680  15.725  0.2288 -0.0303 -0.1295
 5631W        W21892   6.817  10.264  15.081 -0.1473 -0.1042 -0.3351
 5632W        W21893  14.403  16.216  11.266  0.1823  0.1257  0.1375
 5633W        W21894  15.845  11.326  12.431  0.0246 -0.1001 -0.1451
 5634W        W21895  13.671   9.643  14.009 -0.0432 -0.1134 -0.4924
 5635W        W21896  15.342   8.492   0.520 -0.0175  0.3246  0.1686
 5636W        W21897  15.133   0.223  15.759  0.2298 -0.1363 -0.2061
 5637W        W21898   8.009   0.162  14.675  0.2586  0.0180 -0.0947
 5638W        W21899   5.547  17.934   1.120  0.1225 -0.2140 -0.0504
 5639W        W21900   9.938   1.693  15.256 -0.4324  0.0751  0.0143
 5640W        W21901  16.330  17.080  15.119 -0.0152 -0.1101  0.1304
 5641W        W21902  11.770  15.505  15.747 -0.0144 -0.2919  0.3795
 5642W        W21903  17.256   4.272   3.915 -0.2911  0.1953  0.0192
 5643W        W21904  10.738   1.281   2.061 -0.0206  0.1871  0.1114
 5644W        W21905  15.064  13.847  12.295  0.1193 -0.1810  0.0085
 5645W        W21906  17.271   8.865   1.888  0.1904 -0.0161 -0.3488
 5646W        W21907  12.900  15.919  15.122 -0.1554 -0.0942 -0.0411
 5647W        W21908  17.080   5.677  14.569  0.1496  0.1694 -0.0445
 5648W        W21909   6.731   8.541   3.727 -0.0940 -0.2684 -0.0482
 5649W        W21910  15.043  12.469  12.772  0.2947 -0.1629 -0.2067
 5650W        W21911   8.740  15.324   1.890 -0.1347  0.1846 -0.3160
 5651W        W21912  14.240   1.547  10.700 -0.0768 -0.0123 -0.5298
 5652W        W21913   8.777  15.397  12.673  0.0578 -0.4479 -0.1621
 5653W        W21914  14.862   7.555  14.502 -0.1262 -0.3710 -0.0717
 5654W        W21915  14.360   5.360   4.669 -0.2107 -0.1219  0.1178
 5655W        W21916   2.053   7.143  14.960 -0.1823 -0.3790 -0.2932
 5656W        W21917   1.030   5.911   0.968 -0.2008 -0.0527 -0.3247
 5657W        W21918   1.977  12.728  12.468  0.2298  0.2714 -0.2084
 5658W        W21919   9.314   3.788   2.973 -0.1144  0.0803 -0.2388
 5659W        W21920  14.617   7.978  15.851 -0.0465 -0.0591 -0.3081
 5660W        W21921   1.779   7.049  12.799  0.2922  0.1808 -0.0212
 5661W        W21922   5.811   7.009   1.334  0.5293 -0.2806 -0.0753
 5662W        W21923   3.926   3.722   4.773 -0.1314 -0.2342  0.1673
 5663W        W21924   2.535  12.641   1.607  0.1393 -0.5274 -0.0395
 5664W        W21925   2.735  14.138  14.364 -0.2620  0.3209 -0.0234
 5665W        W21926   2.155  14.752   5.832 -0.1059 -0.0687 -0.2369
 5666W        W21927  12.556  11.683   3.415  0.0402  0.3817  0.0056
 5667W        W21928  15.712   3.706  13.424  0.0198  0.0437 -0.0758
 5668W        W21929  13.760   1.434   1.063 -0.0504 -0.1008  0.1282
 5669W        W21930  17.916   4.743   6.030  0.1154  0.0313 -0.0395
 5670W        W21931  13.372   9.804   2.770  0.2079 -0.0190 -0.2696
 5671W        W21932   1.827  10.578   4.314  0.0517  0.1874 -0.1225
 5672W        W21933  10.397  10.574  12.156 -0.0851 -0.1059  0.0836
 5673W        W21934   6.333   8.221   3.471 -0.2473  0.1013 -0.4121
 5674W        W21935  11.944   0.228  14.001  0.1863  0.1470 -0.3703
 5675W        W21936   3.501   5.114   1.611  0.2839 -0.0627 -0.1571
 5676W        W21937   0.228   5.854   1.948 -0.2934  0.1297 -0.0331
 5677W        W21938  17.156  18.119   1.900  0.1270  0.1433 -0.0253
 5678W        W21939  12.796   9.124  14.002 -0.2943  0.3088 -0.2052
 5679W        W21940  16.257   5.988  12.641 -0.0326 -0.1146 -0.1802
 5680W        W21941  11.087   4.206   2.127 -0.0024  0.1534 -0.1146
 5681W        W21942   2.351  14.212   3.712 -0.2003 -0.1050 -0.0066
 5682W        W21943  16.339  13.711  13.459 -0.0332  0.2669 -0.1241
 5683W        W21944   8.073   6.582   2.674  0.0818  0.1546 -0.2115
 5684W        W21945  10.353   4.933   0.641  0.2137 -0.2011  0.1369
 5685W        W21946   7.631  16.999   6.038 -0.1299 -0.3107  0.0007
 5686W        W21947   1.028   3.486   1.636  0.1175  0.1514 -0.2301
 5687W        W21948   2.753   7.975   5.065  0.0242 -0.0427  0.2634
 5688W        W21949   5.170  10.785   2.544  0.0065 -0.0454 -0.0709
 5689W        W21950  13.166  11.809  15.585 -0.1187 -0.1359 -0.0509
 5690W        W21951   4.448  10.303   2.516  0.1121  0.0945 -0.1695
 5691W        W21952   6.855   2.994   1.383  0.0503 -0.0860 -0.0802
 5692W        W21953   6.402  12.878  15.287 -0.0095  0.1976  0.3666
 5693W        W21954  17.499   7.668  11.588 -0.1145 -0.4024  0.1373
 5694W        W21955  13.030   7.779   0.837 -0.1132  0.0215  0.0591
 5695W        W21956  15.661  16.705   4.250  0.2302 -0.2922 -0.0134
 5696W        W21957   0.850  15.113   0.374  0.3177  0.2642  0.2367
 5697W        W21958   6.762   2.403  12.106  0.0239 -0.1743  0.1091
 5698W        W21959   8.586   8.888   5.891  0.3631  0.1486  0.0368
 5699W        W21960  16.107   5.036   1.929  0.0213  0.0083 -0.1796
 5700W        W21961   1.139   1.067   5.357 -0.1682 -0.2926 -0.0183
 5701W        W21962   2.845  10.165   1.926  0.1753  0.0951  0.0140
 5702W        W21963   6.877  11.831  13.389  0.2292  0.0838  0.2793
 5703W        W21964   4.840   1.542   2.807  0.5050 -0.2035 -0.1027
 5704W        W21965   2.821   8.672   0.542 -0.1883  0.0266 -0.1324
 5705W        W21966   7.741   7.944   2.094 -0.3955  0.0381 -0.3225
 5706W        W21967  13.914   9.432   3.369  0.0451 -0.0040 -0.0867
 5707W        W21968   9.526   6.736   0.709  0.1177 -0.2272  0.0455
 5708W        W21969  14.645   2.188  13.345  0.2654  0.0725  0.1941
 5709W        W21970  12.088  18.055  12.122  0.0283  0.3183 -0.0360
 5710W        W21971   8.357  14.799   2.448  0.0450  0.0677  0.0846
 5711W        W21972   2.779   8.772  12.077  0.2691  0.0396 -0.1631
 5712W        W21973  17.841   3.035  11.851 -0.0090 -0.2565  0.2619
 5713W        W21974  15.417   6.100   3.986 -0.2595 -0.2710 -0.0757
 5714W        W21975  17.293  16.913   3.178  0.0797 -0.0505  0.0511
 5715W        W21976   8.108  13.935  14.021 -0.0125  0.3487 -0.0900
 5716W        W21977  10.615   3.301   0.749  0.0055  0.1787 -0.1748
 5717W        W21978   6.873  12.917   2.347 -0.0280  0.0215 -0.3905
 5718W        W21979  10.700  17.068  16.318  0.1409  0.3391  0.0460
 5719W        W21980   3.671  16.804   1.472 -0.1270 -0.1654 -0.0545
 5720W        W21981  11.612   8.757   1.507 -0.0217 -0.1791 -0.3406
 5721W        W21982   7.042  16.034   3.820 -0.0412 -0.4859 -0.1995
 5722W        W21983   3.784  17.846   4.633  0.1614  0.0198  0.3001
 5723W        W21984   9.311  11.011   0.867  0.2301 -0.0837 -0.0968
 5724W        W21985   8.991  13.317  15.595 -0.2287  0.2720 -0.0544
 5725W        W21986   0.832  16.191   4.188 -0.3644 -0.0751  0.1225
 5726W        W21987   0.904   7.269   3.237 -0.0361  0.1543 -0.0310
 5727W        W21988   6.633   2.434   4.147  0.1597 -0.0453  0.1218
 5728W        W21989   3.611  10.766   2.895  0.2503  0.2048  0.1533
 5729W        W21990  13.753   1.649   2.026  0.2047 -0.3760  0.0215
 5730W        W21991   8.037   7.448   2.665  0.0117 -0.0296 -0.0592
 5731W        W21992   2.279   7.963   3.226  0.0307  0.1831  0.1312
 5732W        W21993  10.984   0.876   0.375 -0.1412 -0.1152 -0.1417
 5733W        W21994   6.495   5.211   0.186  0.0105  0.0815 -0.0471
 5734W        W21995   7.792   1.162  16.393 -0.0921  0.2995  0.2397
 5735W        W21996   5.346  14.278  14.318 -0.0112  0.0479 -0.2566
 5736W        W21997   7.020  14.443   4.502 -0.2559 -0.0504 -0.2046
 5737W        W21998  12.244  13.677  13.773  0.2691  0.0463 -0.1010
 5738W        W21999  16.314   7.220  15.064 -0.1452  0.0523  0.1448
 5739W        W22000  14.145   1.221   5.200  0.0252  0.1597 -0.1126
 5740W        W22001  14.773   5.806  13.555  0.0528 -0.4858 -0.0407
 5741W        W22002  13.146  11.268  13.985 -0.0140  0.0927  0.3742
 5742W        W22003   0.238   5.300   0.160 -0.0274 -0.4821 -0.0520
 5743W        W22004   0.995  16.128   2.056  0.0632  0.0576  0.1010
 5744W        W22005   8.618  10.521  14.989 -0.0823  0.4934 -0.3534
 5745W        W22006  10.657   7.743   1.245 -0.0934 -0.0531  0.2323
 5746W        W22007   1.666   7.163   0.998 -0.4616  0.3499  0.0359
 5747W        W22008  14.364   5.641   1.305 -0.0809 -0.0958 -0.0129
 5748W        W22009   5.203   6.967  11.743 -0.0280 -0.0050  0.1107
 5749W        W22010  10.588   6.785   2.614 -0.0248 -0.0600  0.0047
 5750W        W22011   2.610   3.680  11.998 -0.0026  0.2052 -0.2698
 5751W        W22012  14.468   3.993   5.165 -0.2988  0.2094 -0.2516
 5752W        W22013  12.242   7.813  12.476 -0.1212  0.0121  0.0121
 5753W        W22014  16.337   7.930  15.032 -0.0317  0.0566 -0.0170
 5754W        W22015   7.525  17.562   2.667 -0.0949 -0.1914  0.3536
 5755W        W22016  12.687  14.796  10.476  0.0421 -0.2443  0.0226
 5756W        W22017  12.408   6.000   1.842 -0.2086 -0.0823  0.4966
 5757W        W22018  12.266  15.511  15.680  0.2876 -0.0216 -0.0269
 5758W        W22019  17.323   1.318  16.053  0.2769  0.0827 -0.0057
 5759W        W22020  10.885   4.868   4.608  0.2301  0.0694 -0.1184
 5760W        W22021   5.604   8.020   3.964  0.1135 -0.0039 -0.1679
 5761W        W22022   1.272   5.992   4.892  0.1566 -0.3724 -0.1059
 5762W        W22023   8.276   6.141   4.429  0.0953 -0.2450  0.0642
 5763W        W22024   9.596  13.968  12.504  0.0375  0.0588 -0.0050
 5764W        W22025   5.803   2.348  15.086 -0.0286  0.0062  0.1605
 5765W        W22026   6.758  11.596   0.489  0.2303 -0.0155  0.2303
 5766W        W22027   1.306   6.355  15.588  0.1767 -0.2296 -0.0798
 5767W        W22028  14.399   0.543   0.194  0.3246 -0.3045 -0.1669
 5768W        W22029  10.865   3.581  15.795 -0.2984  0.3545 -0.2354
 5769W        W22030  16.654   2.670  15.904 -0.0870  0.6780  0.1101
 5770W        W22031   1.845   7.216   0.309 -0.2369  0.1478 -0.0037
 5771W        W22032  11.347   1.650  15.265 -0.1136  0.0365  0.0893
 5772W        W22033  10.167   0.376  16.571  0.1822 -0.1013 -0.0143
 5773W        W22034  16.296  12.138  13.278 -0.1188  0.1248 -0.1240
 5774W        W22035  13.304   0.939  12.180 -0.3208 -0.1030  0.1217
 5775W        W22036  11.283  17.954  12.893  0.0208  0.0342  0.2931
 5776W        W22037   8.228  12.139  16.395  0.0727 -0.0498  0.1074
 5777W        W22038  11.054  16.708   0.589  0.0620 -0.0313 -0.0800
 5778W        W22039   7.685  13.862   5.942 -0.2369 -0.0583  0.2878
 5779W        W22040  11.480   8.949  13.891  0.2181  0.2003  0.0212
 5780W        W22041   4.473  17.055  13.581  0.3042  0.0357  0.2655
 5781W        W22042   5.587  14.926   1.873  0.0743  0.1758  0.2262
 5782W        W22043   9.223   1.953   2.276 -0.2373  0.3696  0.2216
 5783W        W22044  11.170   1.661   1.963 -0.1990 -0.1689  0.0693
 5784W        W22045  10.077   6.743   0.732 -0.1210 -0.2351  0.4250
 5785W        W22046  11.731  12.373   2.766 -0.0813  0.1538  0.0462
 5786W        W22047   2.629   2.899  13.345  0.0765  0.0498  0.0601
 5787W        W22048  14.762   3.370  14.249 -0.0496 -0.2409 -0.2201
 5788W        W22049  16.846   6.757  11.689  0.0497  0.1843 -0.0045
 5789W        W22050   5.528  12.192   2.180  0.2477 -0.0114  0.2230
 5790W        W22051   3.183   5.744   3.419 -0.1034 -0.2053 -0.0070
 5791W        W22052   2.200   0.515   5.477  0.0413  0.0121 -0.1237
 5792W        W22053  12.435   6.648  16.351  0.0825 -0.0547  0.0078
 5793W        W22054   7.181   0.697   1.121 -0.0328  0.0846 -0.1017
 5794W        W22055   8.807  12.069   1.883 -0.2467  0.2107 -0.0535
 5795W        W22056  12.061  10.798   5.405  0.1239 -0.1603 -0.1837
 5796W        W22057  17.687   1.320   3.525  0.0883  0.0874 -0.1408
 5797W        W22058   4.029  17.533  16.544 -0.0648 -0.3000  0.2952
 5798W        W22059  12.703  12.237   2.866 -0.0763  0.1104  0.2406
 5799W        W22060  11.019   0.293  13.599 -0.0389 -0.1249 -0.1531
 5800W        W22061   6.512   1.522   4.125 -0.0643 -0.0932 -0.0967
 5801W        W22062  10.091   8.384   0.552  0.0723  0.2262  0.1166
 5802W        W22063   9.927   6.333   0.925  0.0207 -0.2099  0.0449
 5803W        W22064  12.586  16.762   2.301  0.0577  0.2074  0.2590
 5804W        W22065  11.292   2.819  11.016 -0.0336  0.1424  0.0617
 5805W        W22066  14.536   1.648   4.604  0.0028 -0.4752  0.0283
 5806W        W22067   6.549   4.928  13.267 -0.1404 -0.0022  0.0013
 5807W        W22068  18.026   3.095   5.728  0.1057 -0.1186  0.0067
 5808W        W22069   5.597   1.988  13.259 -0.3168  0.3335 -0.0576
 5809W        W22070   0.734   2.756  14.623  0.0568  0.0439  0.2366
 5810W        W22071   0.089   9.194  15.583 -0.0157 -0.2278  0.2662
 5811W        W22072  13.560  15.316   3.933  0.0267  0.2439  0.1118
 5812W        W22073  13.509  14.397  16.188 -0.1237 -0.2352 -0.0808
 5813W        W22074   8.597   1.020   5.655  0.1045  0.1543 -0.0116
 5814W        W22075  16.701   6.401  15.670  0.2525 -0.2512 -0.0143
 5815W        W22076  14.047   6.446  12.287  0.0536  0.4112 -0.0523
 5816W        W22077  11.405  11.471  16.109 -0.1799 -0.2358  0.1513
 5817W        W22078   6.690  10.247  12.482  0.0474  0.0659 -0.0535
 5818W        W22079  11.335   3.474  14.571  0.1455  0.2913 -0.0035
 5819W        W22080  16.063   0.716  12.571 -0.0663  0.1301 -0.3101
 5820W        W22081   1.110   8.598  16.223  0.0364 -0.2712  0.0720
 5821W        W22082   9.272   1.477   2.512 -0.1708  0.1105 -0.1802
 5822W        W22083   6.860  14.334  16.277  0.0228  0.3766 -0.1490
 5823W        W22084   0.208   8.762  13.890 -0.1884  0.0994 -0.3721
 5824W        W22085  16.264  16.378  11.195  0.1745  0.1886  0.0023
 5825W        W22086   8.929   6.434  13.302  0.2239 -0.1449  0.2826
 5826W        W22087  16.659   1.475   4.253  0.0629  0.0248 -0.5803
 5827W        W22088   3.251  10.850   2.604 -0.0047 -0.2736  0.4388
 5828W        W22089  14.362   7.398   2.300 -0.0262 -0.1956 -0.2534
 5829W        W22090   1.716   1.123  13.045  0.2072  0.0846  0.2747
 5830W        W22091  14.312  13.518  15.032  0.2310  0.0948  0.0546
 5831W        W22092  12.480  16.322   5.622  0.3446 -0.3425  0.1248
 5832W        W22093   6.008  14.817  16.528  0.4500  0.3120 -0.1426
 5833W        W22094  13.928   1.688  16.543 -0.0955 -0.0837 -0.0707
 5834W        W22095   3.293  17.700  14.462 -0.0446 -0.2445 -0.0525
 5835W        W22096   6.069   4.250  14.647  0.0636  0.2390 -0.1754
 5836W        W22097  15.197   5.385  11.785  0.0763 -0.2376  0.4312
 5837W        W22098  15.641   1.718   1.277  0.1859  0.0416  0.3522
 5838W        W22099  12.330  10.593   4.663 -0.0047  0.2648 -0.1956
 5839W        W22100   0.623  18.138  15.113 -0.0419 -0.2661  0.3174
 5840W        W22101  13.613  15.537   3.502 -0.2916  0.0260  0.0267
 5841W        W22102  12.843   7.316   3.405  0.1339 -0.0347  0.0209
 5842W        W22103   2.185  15.878   3.834 -0.1707 -0.0557 -0.0499
 5843W        W22104  12.173  16.681  15.251  0.1282  0.0002  0.3857
 5844W        W22105  16.537   3.547  13.623  0.0986  0.0820  0.1126
 5845W        W22106  12.893  16.822   1.544  0.1528  0.1194  0.1812
 5846W        W22107  17.212   4.081   5.793  0.0275  0.0243 -0.0696
 5847W        W22108   3.128   8.512   2.316 -0.0450  0.0638 -0.1916
 5848W        W22109   3.007   4.334  16.306 -0.1642  0.1392  0.1274
 5849W        W22110  15.007   2.546   4.454 -0.1824 -0.0136  0.1419
 5850W        W22111   2.533   6.547   5.781  0.1046 -0.3909  0.2781
 5851W        W22112   1.116   2.786   0.713 -0.4408 -0.0532 -0.1535
 5852W        W22113   8.854  10.044   2.516  0.2348  0.1829 -0.0894
 5853W        W22114   8.428  12.942  14.373  0.0603  0.1916  0.0622
 5854W        W22115   2.894  16.895  15.464  0.2967  0.0833 -0.0453
 5855W        W22116  11.581   7.471   3.488  0.2674 -0.3138  0.1837
 5856W        W22117   9.326   0.849   4.145  0.1479 -0.0961  0.1401
 5857W        W22118   3.256  15.064   0.856 -0.2650  0.0559 -0.0558
 5858W        W22119  12.081  16.838   2.551  0.0064 -0.3511 -0.0517
 5859W        W22120   0.219   4.225   1.957 -0.1887  0.1083 -0.0271
 5860W        W22121  12.036  17.695  13.351  0.0614  0.3636  0.0946
 5861W        W22122  12.923  11.965   2.518 -0.1554 -0.1021 -0.0156
 5862W        W22123   9.760   0.779   3.886  0.2957  0.1589  0.0296
 5863W        W22124  16.662  14.929   4.202  0.0955 -0.0021 -0.1011
 5864W        W22125  14.253   7.197  16.583  0.3775 -0.0068 -0.0764
 5865W        W22126  17.117  11.533  15.919  0.3817  0.0767  0.0274
 5866W        W22127   8.287  14.389  13.986 -0.0274 -0.0983  0.3990
 5867W        W22128   5.381   5.265  11.985 -0.0387  0.2023  0.0630
 5868W        W22129  14.064   7.084  14.622  0.1137  0.1461  0.0056
 5869W        W22130   9.770  13.020   2.792  0.1359 -0.3151 -0.2631
 5870W        W22131   0.711   2.233  12.852  0.1228  0.2186  0.4368
 5871W        W22132  13.436  13.255   1.706  0.2104  0.0270 -0.2162
 5872W        W22133   8.129   5.006   4.496  0.1845 -0.1715  0.0786
 5873W        W22134   2.594  12.619  12.735  0.0757 -0.2098  0.1850
 5874W        W22135   0.138   4.954   5.099 -0.0007 -0.1575  0.0809
 5875W        W22136   4.050  10.194  15.544  0.0969 -0.0259 -0.3950
 5876W        W22137  13.646   2.002  13.915  0.0712  0.0960  0.0863
 5877W        W22138   2.984   7.673  12.147  0.0812 -0.1202 -0.2680
 5878W        W22139   8.292  14.701   4.429 -0.2010 -0.1929  0.0768
 5879W        W22140  12.840   6.564   2.664  0.1363 -0.2269 -0.1981
 5880W        W22141  14.679  17.658  14.076 -0.0237 -0.1006 -0.3022
 5881W        W22142  15.700   3.964   2.683 -0.0781 -0.0370  0.0209
 5882W        W22143   9.602  15.226   0.000 -0.1401  0.2144  0.0288
 5883W        W22144   6.379  17.139   2.988 -0.0667 -0.1713  0.1536
 5884W        W22145  14.924   2.241   1.122  0.2261 -0.0854 -0.0385
 5885W        W22146  13.447  14.203   4.404  0.2867 -0.2041 -0.0790
 5886W        W22147  10.777  12.213   3.358 -0.1847 -0.0145 -0.0308
 5887W        W22148  13.787   0.971   4.768  0.1960  0.2293  0.2756
 5888W        W22149  17.612  15.565   4.239 -0.0201 -0.0951 -0.1342
 5889W        W22150   9.728   8.363   2.138 -0.1664 -0.0733 -0.1776
 5890W        W22151   1.286  14.299   0.559 -0.0791 -0.0624 -0.1268
 5891W        W22152   2.237   6.207  15.542  0.3957 -0.0304 -0.2366
 5892W        W22153   3.694  16.590  14.343  0.0772  0.2778  0.0731
 5893W        W22154   7.902  17.587  13.555 -0.1011 -0.4572 -0.1435
 5894W        W22155  17.274   1.066  15.620  0.0666 -0.0359  0.3390
 5895W        W22156   1.872  13.628  15.164  0.0997 -0.1377 -0.0222
 5896W        W22157   7.566  15.905   1.384  0.1683  0.1714 -0.1423
 5897W        W22158  17.831   3.706   5.137 -0.0169  0.2666 -0.1987
 5898W        W22159  17.135  17.657   3.680 -0.0789 -0.1340  0.0671
 5899W        W22160   9.028   1.388   4.939  0.0142 -0.0217 -0.1521
 5900W        W22161   1.721   4.475  13.482  0.3319  0.1781  0.2539
 5901W        W22162   4.481  16.143  13.114  0.1517  0.0563  0.1984
 5902W        W22163   0.824  12.021   5.286  0.0323  0.1777  0.0332
 5903W        W22164   1.302   1.282  16.521  0.0222 -0.0564 -0.2379
 5904W        W22165   6.439   5.714   2.515 -0.0339 -0.1969  0.2341
 5905W        W22166   8.789  15.988  15.090  0.0090 -0.0607  0.2060
 5906W        W22167   4.851   3.808   1.029 -0.0079  0.1148  0.0461
 5907W        W22168  17.337  10.281  15.632 -0.1199  0.0251  0.0304
 5908W        W22169   0.394  14.398   6.467 -0.3043 -0.2443  0.0074
 5909W        W22170   0.071   6.398   2.499  0.0472  0.1992  0.1851
 5910W        W22171   2.131   0.928   4.069  0.0084 -0.1047 -0.0787
 5911W        W22172   8.707  12.152  14.050  0.1496 -0.2051 -0.3754
 5912W        W22173  18.002  10.150  13.312 -0.1711  0.1292  0.1295
 5913W        W22174   4.554   7.217   2.000  0.0802  0.0183 -0.0446
 5914W        W22175  15.467   4.677   1.099  0.1258 -0.1292  0.2083
 5915W        W22176  13.683   1.209  14.322 -0.3869 -0.4070  0.0585
 5916W        W22177   5.959  14.460   2.591 -0.1682  0.0485 -0.1999
 5917W        W22178   8.070  15.556  11.602  0.1369  0.1815  0.1165
 5918W        W22179   3.522   4.873   3.613  0.1672  0.0238  0.0274
 5919W        W22180   6.354   5.794   4.973  0.1205  0.1473  0.3422
 5920W        W22181   1.248  15.411  13.916 -0.0506  0.1909 -0.3121
 5921W        W22182  14.474  16.871  12.001  0.1114  0.1223  0.0096
 5922W        W22183   7.841  14.928   0.752  0.1607  0.1687 -0.0941
 5923W        W22184  17.661   6.794   0.956  0.3711 -0.0297 -0.0810
 5924W        W22185   9.649  15.037   4.680  0.3330 -0.1319  0.0976
 5925W        W22186   6.065   4.492   3.023  0.1188 -0.1132  0.1516
 5926W        W22187   4.935   8.230  16.292  0.0884  0.1807 -0.0656
 5927W        W22188   2.766  17.033   5.189  0.1315  0.3341  0.1627
 5928W        W22189   6.025  17.089  13.872  0.1120  0.0174 -0.0998
 5929W        W22190  11.983   8.088  16.092 -0.4380  0.0011 -0.2508
 5930W        W22191   9.415   7.098  14.385 -0.1145  0.0024  0.2762
 5931W        W22192   2.193  17.812   5.319  0.0959 -0.0701  0.3055
 5932W        W22193   9.605   9.167   2.298  0.0426 -0.2692  0.2983
 5933W        W22194   1.456  13.528   4.856 -0.0857 -0.1946 -0.2011
 5934W        W22195  15.825  11.008   3.180  0.0495 -0.1492 -0.0783
 5935W        W22196  14.521   7.249  15.335  0.0563 -0.3302  0.1755
 5936W        W22197   6.476  11.514   6.406  0.0747  0.1222 -0.1041
 5937W        W22198   6.666   2.486   4.662 -0.0971 -0.3028 -0.4870
 5938W        W22199   7.434  15.100   3.691 -0.2961  0.0092  0.0612
 5939W        W22200   8.119  16.535  13.113 -0.1105 -0.0694  0.0123
 5940W        W22201   8.629  16.970  14.247  0.2079 -0.0383 -0.2371
 5941W        W22202   4.157   4.149  13.167 -0.1053  0.0950  0.1582
 5942W        W22203   1.546  10.574   5.776 -0.1178  0.3069 -0.4225
 5943W        W22204   7.457  16.615   5.714 -0.0151  0.0557  0.1848
 5944W        W22205  12.204  12.002   3.711  0.0719  0.0215  0.1331
 5945W        W22206  12.844  14.351   3.661  0.1161  0.3725 -0.1239
 5946W        W22207   5.804   3.993   1.909 -0.2703 -0.0638 -0.1397
 5947W        W22208   5.932  15.339  12.312 -0.2695  0.0902  0.0901
 5948W        W22209  11.729   7.920  12.991 -0.0027 -0.3388 -0.0111
 5949W        W22210   3.533  15.874  12.246  0.0699  0.1132  0.2778
 5950W        W22211   0.753   8.267   3.250  0.2313 -0.0222 -0.1371
 5951W        W22212   3.605  13.485  16.163  0.0745  0.2142  0.1023
 5952W        W22213   1.368   1.041  15.672 -0.0484 -0.2663  0.1444
 5953W        W22214  10.583  14.551  14.428  0.3567 -0.0246 -0.1636
 5954W        W22215  16.797   0.936   4.681  0.1265  0.0916 -0.0301
 5955W        W22216  10.922   7.405  15.363  0.3729 -0.1736 -0.0599
 5956W        W22217  16.109   0.554   3.494  0.4258 -0.3969  0.1911
 5957W        W22218  12.052   9.810  12.630  0.0853  0.0312  0.0434
 5958W        W22219   3.913   3.566   3.919  0.0105 -0.0973  0.2337
 5959W        W22220  12.386   0.463  15.050  0.0020  0.1060  0.2101
 5960W        W22221  16.286   3.182  14.732  0.1894  0.1077 -0.0436
 5961W        W22222   9.690  10.209   1.462  0.0973 -0.2293 -0.0509
 5962W        W22223  14.423  17.594   3.090  0.1805 -0.0513 -0.1847
 5963W        W22224  16.271   0.822   4.753  0.3501  0.2293  0.1028
 5964W        W22225   8.516   5.736  13.461  0.1082  0.0070 -0.1858
 5965W        W22226   2.907   6.290   5.460 -0.1119 -0.1131 -0.3041
 5966W        W22227  14.828   0.119  12.632 -0.0239 -0.1051 -0.1523
 5967W        W22228   1.339   4.477  14.301  0.0361  0.0169 -0.1324
 5968W        W22229  15.223   4.588   4.297  0.1509 -0.1489 -0.1232
 5969W        W22230   6.027   2.786  12.763  0.2052  0.2241 -0.0531
 5970W        W22231  15.911  12.083   2.113  0.0304 -0.0150 -0.0806
 5971W        W22232  13.989  17.708   1.585  0.0687 -0.1724 -0.0848
 5972W        W22233   2.987   4.821  12.993 -0.2912  0.3501  0.1031
 5973W        W22234   8.541  14.751  11.951  0.3233  0.2381 -0.1748
 5974W        W22235  16.747   6.516   1.224  0.2372 -0.2800  0.0065
 5975W        W22236   9.418   6.935   1.628 -0.2193 -0.1894  0.0476
 5976W        W22237  17.217  14.327  13.253 -0.1781  0.1369  0.1084
 5977W        W22238  13.588  14.940   5.190  0.0123  0.0964 -0.0687
 5978W        W22239  12.669  11.755  15.302 -0.5209 -0.0347  0.3842
 5979W        W22240  17.893   4.534   0.216  0.0319  0.0600 -0.0476
 5980W        W22241   0.361   3.523  12.460  0.0489  0.3503 -0.0087
 5981W        W22242   5.542   4.057  14.648 -0.1989 -0.1293 -0.3698
 5982W        W22243   6.954  13.498   6.145 -0.0822 -0.1982 -0.2510
 5983W        W22244   6.891   5.373   3.369  0.0564 -0.1300  0.1061
 5984W        W22245   8.600   7.590   4.982 -0.1478 -0.5082  0.0682
 5985W        W22246   4.487  16.444  16.267 -0.0161  0.0399 -0.1760
 5986W        W22247   5.569   5.725  11.771 -0.3235 -0.2133 -0.1830
 5987W        W22248  12.114   8.671  14.463  0.0852 -0.0256  0.1438
 5988W        W22249   7.452   7.244   0.970  0.1234  0.1512 -0.3041
 5989W        W22250  10.661   2.866  14.250 -0.3182  0.2550  0.1576
 5990W        W22251   7.185  10.288  12.743 -0.1522 -0.2997 -0.2902
 5991W        W22252   0.294   8.026  16.528 -0.0441  0.1131 -0.1502
 5992W        W22253   7.596   2.981  15.114  0.1926  0.0252  0.2201
 5993W        W22254  16.359   8.421  12.496 -0.0376  0.1923 -0.2663
 5994W        W22255  17.183  13.119  11.968 -0.3212 -0.3180  0.0021
 5995W        W22256   5.137   7.505   3.382 -0.0929 -0.0201 -0.0273
 5996W        W22257  17.593   8.513   5.164  0.4089  0.1949 -0.2003
 5997W        W22258  13.773  17.155   4.155 -0.3374 -0.2717 -0.2982
 5998W        W22259  10.832   8.936   4.394  0.0017 -0.0857 -0.1419
 5999W        W22260  16.904   4.430   4.654 -0.1724  0.1977  0.0781
 6000W        W22261   6.702  15.568   2.156  0.1457  0.1000  0.0488
 6001W        W22262   2.672   6.624  16.250  0.0501  0.4011 -0.4309
 6002W        W22263   4.164   4.719   3.300 -0.2846 -0.3295 -0.1938
 6003W        W22264   7.100  12.040   4.738 -0.0228 -0.0908  0.0812
 6004W        W22265   4.541  15.970   3.276  0.2546  0.3707 -0.0403
 6005W        W22266   5.093  11.576  13.934 -0.2271  0.1278 -0.0206
 6006W        W22267  10.629  13.299   4.390 -0.2593 -0.0547 -0.5141
 6007W        W22268   6.287  10.306   3.066  0.1819  0.1681  0.1340
 6008W        W22269   6.453   9.568  11.864 -0.2257 -0.1106  0.1673
 6009W        W22270   3.122   1.651   1.383 -0.1095  0.2706  0.2015
 6010W        W22271   5.305  14.027   4.308 -0.0236 -0.1186 -0.2194
 6011W        W22272  13.673  12.023  13.619 -0.0099  0.2865 -0.1194
 6012W        W22273  16.241  13.999   2.192 -0.0545 -0.4143 -0.1498
 6013W        W22274  13.967  15.396   5.989 -0.0191  0.2038 -0.1015
 6014W        W22275   3.924   1.904   4.130  0.1476  0.0046 -0.0093
 6015W        W22276  15.704  14.478   1.374  0.1563  0.2679 -0.1298
 6016W        W22277   0.434  14.189   1.171 -0.2296  0.0423 -0.0519
 6017W        W22278   5.048  16.072   0.527  0.1763  0.0577 -0.3521
 6018W        W22279   1.695  14.007   1.397 -0.0138 -0.1236 -0.1474
 6019W        W22280   4.806   4.405  14.745  0.3525  0.0143  0.2767
 6020W        W22281   2.928  14.697  15.165 -0.2008  0.1026 -0.1790
 6021W        W22282  14.990   4.164   3.601 -0.0806 -0.1763 -0.0716
 6022W        W22283  16.431  14.960  15.537  0.2969 -0.0336  0.1812
 6023W        W22284  13.851  16.553   4.966 -0.1135  0.2818  0.0302
 6024W        W22285  18.057  16.314   2.302 -0.0144 -0.0996  0.2424
 6025W        W22286   5.439  10.192   1.920  0.1515 -0.3245  0.3653
 6026W        W22287   0.456   1.550   3.679 -0.1856 -0.0828 -0.1208
 6027W        W22288  11.822  14.196   4.698 -0.0526 -0.2335  0.0349
 6028W        W22289   0.386  13.142  13.287 -0.3155 -0.1351 -0.1075
 6029W        W22290  15.778   5.251  14.724  0.3125 -0.1154 -0.0403
 6030W        W22291  17.362   2.338  14.410 -0.1325  0.0245 -0.0641
 6031W        W22292  16.203   5.680  11.185  0.1770  0.2174 -0.0956
 6032W        W22293  15.034   1.767  15.584 -0.1109  0.1558  0.1806
 6033W        W22294   0.931   3.373   1.164 -0.1502 -0.4586  0.3148
 6034W        W22295  15.160   9.327  16.373  0.0620  0.1159  0.0320
 6035W        W22296   8.094  15.794   5.674  0.3435  0.2132  0.0772
 6036W        W22297   8.683  12.104  13.499  0.0597  0.1554 -0.2654
 6037W        W22298   3.400  15.203  12.897  0.1556  0.2358  0.0856
 6038W        W22299   1.633   8.129  14.595 -0.1200 -0.2067  0.3192
 6039W        W22300  10.571  11.031   0.779 -0.1389  0.3472  0.0536
 6040W        W22301  12.005   9.415   3.737 -0.0942 -0.1992 -0.0110
 6041W        W22302  15.385   9.860  16.619  0.2799 -0.1840  0.3022
 6042W        W22303  17.186  15.771   1.532 -0.2664 -0.1280  0.0608
 6043W        W22304   3.107  18.082  11.835 -0.2736 -0.1361  0.0963
 6044W        W22305  16.484   6.821   5.657  0.1012  0.2534  0.1077
 6045W        W22306   3.614   4.869   0.129  0.4208 -0.2995  0.1726
 6046W        W22307   8.505   6.423   3.565 -0.1174 -0.0095  0.1312
 6047W        W22308  13.996   6.143   0.022 -0.4137  0.1623  0.0814
 6048W        W22309   7.799   2.717  11.243 -0.0997 -0.1797 -0.4154
 6049W        W22310   3.101  10.772  15.612  0.2531 -0.1085 -0.0105
 6050W        W22311  12.425  14.322   0.366 -0.0696 -0.1480  0.1993
 6051W        W22312   6.254  11.234   0.528 -0.1425  0.2112  0.0822
 6052W        W22313   5.544   5.066   3.384  0.1480 -0.3142  0.2246
 6053W        W22314   4.663   3.304  15.571  0.5420 -0.1635 -0.1099
 6054W        W22315  16.991   6.099   0.480 -0.3285 -0.4003  0.0332
 6055W        W22316   2.412   6.683  14.101  0.1045 -0.2074  0.3584
 6056W        W22317  12.058   7.692   4.428 -0.1719  0.0408  0.0348
 6057W        W22318  13.978   1.814  13.601  0.2650  0.2940 -0.1261
 6058W        W22319  13.481   7.980   3.888  0.0033 -0.0598 -0.1005
 6059W        W22320   8.020  16.984  12.813  0.1237  0.1060  0.0455
 6060W        W22321  12.548   9.614   0.971 -0.0123  0.2957  0.0572
 6061W        W22322  16.937  14.274  15.609  0.0883 -0.2420  0.0297
 6062W        W22323  17.870  13.845  14.221  0.1700 -0.2386  0.0854
 6063W        W22324  17.108   2.292   2.608 -0.3191  0.2787 -0.0619
 6064W        W22325   0.196  15.507   1.240  0.0128  0.2916 -0.3336
 6065W        W22326   8.862   8.102  14.880  0.1496  0.0235  0.0563
 6066W        W22327  14.959  11.694  15.183 -0.1169 -0.1060 -0.2598
 6067W        W22328  10.975   6.381  12.831 -0.0667 -0.0655  0.3258
 6068W        W22329  13.072   4.344   0.745  0.1155 -0.1798  0.0532
 6069W        W22330   0.438   3.812   3.031  0.0566  0.1280  0.0794
 6070W        W22331   7.624  13.031  12.461 -0.1828 -0.0302  0.0774
 6071W        W22332  12.727   4.837   0.159  0.2211  0.0370 -0.1278
 6072W        W22333   9.615  17.457  14.512 -0.1339  0.0002 -0.0247
 6073W        W22334   1.912   6.854  16.392 -0.1921  0.0420 -0.1235
 6074W        W22335  15.504   8.001   0.342  0.1905 -0.0322  0.0024
 6075W        W22336   5.121  13.894  16.179  0.2152 -0.4615  0.0276
 6076W        W22337  16.538   8.433   4.896  0.3240  0.1296 -0.1041
 6077W        W22338   4.781   1.257   3.272 -0.1505 -0.1531 -0.4269
 6078W        W22339   1.834   0.242   3.351 -0.1610  0.3511 -0.1631
 6079W        W22340  16.628   2.631   4.613 -0.2431  0.0924 -0.6616
 6080W        W22341   2.667  11.555   2.737 -0.0425  0.2996 -0.1621
 6081W        W22342   2.703  10.338   4.529 -0.1323  0.1303 -0.0304
 6082W        W22343   1.712  13.189   3.375 -0.0937  0.1468 -0.3168
 6083W        W22344   8.177   7.702  16.009 -0.1691  0.1551  0.0365
 6084W        W22345  17.432   6.159   0.717  0.3898  0.0779  0.0942
 6085W        W22346   9.041   8.662   5.651  0.2812  0.0144 -0.1582
 6086W        W22347   6.803  14.092  10.737  0.0566  0.1265  0.2100
 6087W        W22348  10.803  18.067   2.242  0.2693  0.2862  0.0107
 6088W        W22349  13.961  10.184  12.601 -0.0416 -0.0405  0.4593
 6089W        W22350   2.294   8.792   1.840 -0.2242  0.2005 -0.0852
 6090W        W22351  15.230   7.523   2.011 -0.1006  0.0951  0.1144
 6091W        W22352   7.215   1.814   0.022 -0.0468  0.3204  0.1771
 6092W        W22353  12.623  10.379  16.028  0.3307 -0.0125 -0.0772
 6093W        W22354  14.126   2.268  13.358  0.0182 -0.0078 -0.2554
 6094W        W22355   9.125  16.500   3.834 -0.4285  0.1576  0.1403
 6095W        W22356  15.938   4.350   3.356 -0.0312  0.5530 -0.1842
 6096W        W22357   2.638  13.706   0.619 -0.0227  0.1617 -0.1875
 6097W        W22358   2.291   6.771  12.873 -0.0678  0.1596  0.2196
 6098W        W22359  11.810   5.039  15.893  0.3608  0.1741 -0.3465
 6099W        W22360   0.231  13.701  14.874  0.0006 -0.5975 -0.0899
 6100W        W22361  17.757  11.917  11.376  0.4389  0.1448 -0.2868
 6101W        W22362   2.483   1.240   2.083  0.3124  0.0633  0.3659
 6102W        W22363   7.027  13.265   5.580 -0.1469  0.0382 -0.1137
 6103W        W22364  12.729  18.133  16.439 -0.2011 -0.0704 -0.4006
 6104W        W22365  15.315   3.643  12.641  0.0017 -0.2116 -0.4028
 6105W        W22366   1.514  11.014   2.019 -0.0312 -0.2996  0.0586
 6106W        W22367  18.083   7.011   4.965  0.0516 -0.1007  0.4537
 6107W        W22368  10.185  12.003   3.730 -0.0197  0.1961  0.0734
 6108W        W22369   9.595   1.330  14.977  0.0745  0.1533  0.1923
 6109W        W22370  16.622   7.250   4.127  0.1050 -0.2638 -0.1280
 6110W        W22371   5.423   3.565   1.785 -0.1167  0.2831  0.0172
 6111W        W22372   5.432   0.236  12.806  0.2823 -0.0888 -0.1035
 6112W        W22373   7.421  14.751  13.647  0.2093  0.1427 -0.1337
 6113W        W22374   6.594   6.085   0.564 -0.0682  0.0730 -0.0565
 6114W        W22375  13.988  12.909   4.047 -0.1526  0.0539  0.0345
 6115W        W22376   4.226   9.727   1.718 -0.0215  0.2167 -0.0037
 6116W        W22377   0.568   4.639   5.922  0.1834 -0.0276  0.2486
 6117W        W22378   7.111   8.200  11.356 -0.1626  0.2414 -0.0101
 6118W        W22379   6.038   5.082  13.782  0.1772 -0.2604 -0.0983
 6119W        W22380   2.253  11.825  14.833 -0.0581 -0.1664  0.0626
 6120W        W22381   0.614   2.368   1.054 -0.0688  0.1196  0.0859
 6121W        W22382   1.807  10.506  15.858  0.1282  0.3630  0.2433
 6122W        W22383   0.292   2.540  15.872 -0.0614 -0.1306  0.0510
 6123W        W22384   5.023  16.525  13.687 -0.1679  0.1611  0.0431
 6124W        W22385  12.656   3.864  14.509 -0.1170 -0.2234  0.2660
 6125W        W22386  15.716  12.833   0.880 -0.2441 -0.0248  0.3478
 6126W        W22387  17.645  13.156   0.746  0.2670 -0.1456  0.2264
 6127W        W22388   0.341  14.195  13.526 -0.0919  0.2620  0.0267
 6128W        W22389   3.704   4.447   3.223 -0.1466 -0.1581  0.0997
 6129W        W22390  15.589  15.658   6.545  0.0848  0.0057 -0.0337
 6130W        W22391   8.694  14.121   5.087 -0.1802 -0.0650 -0.4800
 6131W        W22392  10.058   1.799   3.209  0.3730 -0.2336  0.2548
 6132W        W22393   3.910  10.529  15.900 -0.3573  0.0009 -0.0978
 6133W        W22394  16.605  11.762   4.658 -0.1739  0.0878  0.4159
 6134W        W22395   1.568  13.020   1.056 -0.0761  0.0721  0.2168
 6135W        W22396   4.147  15.868  14.872 -0.1803  0.1692 -0.0505
 6136W        W22397  16.971   9.614   1.025  0.0126  0.1923  0.0335
 6137W        W22398   1.036  11.733   1.567 -0.0622 -0.1818 -0.0230
 6138W        W22399   5.543   2.502   0.284 -0.0878 -0.0152  0.1547
 6139W        W22400  15.274   4.516  15.498  0.0456 -0.0350  0.1877
 6140W        W22401   0.682  18.114   6.250 -0.0431 -0.1839 -0.2751
 6141W        W22402  15.293  11.835   3.436  0.1652 -0.1398  0.1435
 6142W        W22403   9.567   6.908  13.953 -0.0654  0.1508  0.0080
 6143W        W22404   7.960   6.567   3.204 -0.1456 -0.1972 -0.2676
 6144W        W22405  14.519  11.512  12.390  0.0859  0.2742 -0.0244
 6145W        W22406  14.782  10.590  10.659  0.1514 -0.2183 -0.2423
 6146W        W22407  14.476   8.524   0.528  0.0872  0.0276 -0.2866
 6147W        W22408  14.351  17.409  11.560 -0.2488  0.2837 -0.0904
 6148W        W22409   7.191  11.921   0.433 -0.1109  0.2538 -0.2027
 6149W        W22410   2.645  14.489  12.775 -0.0542  0.0043 -0.1755
 6150W        W22411  17.162   6.323  15.925  0.1574  0.0546  0.0366
 6151W        W22412  15.644   4.089   2.184  0.0839 -0.1360 -0.0818
 6152W        W22413   9.858   4.411  13.422 -0.0027 -0.0690 -0.0316
 6153W        W22414   7.037  10.624   1.994  0.0695 -0.2756 -0.2464
 6154W        W22415   2.116  16.235   4.152 -0.1178 -0.1648  0.0285
 6155W        W22416   4.009   5.913  11.942  0.0934  0.0311 -0.0077
 6156W        W22417   7.685   2.497   5.407  0.1509 -0.3465  0.0033
 6157W        W22418  10.618  17.681   5.241 -0.1507  0.0641  0.0364
 6158W        W22419  17.662  12.552  14.311 -0.0520  0.1942 -0.3129
 6159W        W22420   9.203  12.386   1.701  0.4382 -0.0466 -0.2569
 6160W        W22421  16.299  10.698  12.789  0.1464  0.1546 -0.1519
 6161W        W22422  12.123  17.591   4.516 -0.0810 -0.0045  0.0578
 6162W        W22423   3.764  14.765   1.947 -0.2218  0.2544 -0.1365
 6163W        W22424  12.569  10.502  14.010  0.2064  0.1568  0.0254
 6164W        W22425   1.674  16.158  13.392  0.2051 -0.0602  0.1635
 6165W        W22426  14.058   2.662   2.838 -0.1262  0.1651  0.2092
 6166W        W22427  12.711   1.454   4.275  0.1988  0.1779  0.1779
 6167W        W22428   9.579  14.640   2.718 -0.0254 -0.0297 -0.0267
 6168W        W22429   0.380  13.402  12.854  0.1905 -0.1760  0.0148
 6169W        W22430   5.668   3.528   1.250  0.2352 -0.0440  0.1361
 6170W        W22431   9.813  12.304   0.224  0.0401 -0.3122  0.0350
 6171W        W22432   8.179  17.084  13.311  0.1144  0.5249 -0.3553
 6172W        W22433  18.119  14.221   3.686 -0.2677  0.2637 -0.0048
 6173W        W22434  14.411  17.928  15.787 -0.0995  0.1076  0.0242
 6174W        W22435   5.135  17.508   5.016 -0.0484 -0.1299 -0.4332
 6175W        W22436   8.472   0.578   3.410 -0.5114 -0.1559 -0.4635
 6176W        W22437  11.318  13.894   2.380 -0.0494 -0.0366 -0.2033
 6177W        W22438  16.764   0.586  15.158 -0.1849 -0.0660 -0.0982
 6178W        W22439  13.379   7.400  15.996  0.0370 -0.0800  0.1408
 6179W        W22440   3.044  17.103  16.502  0.2469  0.0198 -0.0761
 6180W        W22441  16.623  16.516  12.340  0.0342  0.2843  0.2219
 6181W        W22442   0.676   2.805  15.653  0.0602 -0.2114  0.0500
 6182W        W22443  10.891  11.238   2.702  0.0593 -0.2177 -0.0639
 6183W        W22444  15.770  17.604  13.903 -0.2156  0.0763 -0.1920
 6184W        W22445  15.618   6.180   0.279  0.2282 -0.1802 -0.1203
 6185W        W22446  15.000  15.657  15.624  0.0675 -0.0801 -0.0880
 6186W        W22447   4.581  17.096   3.324 -0.2601  0.1090 -0.4997
 6187W        W22448   7.163   9.704   4.663 -0.0226 -0.0611 -0.2923
 6188W        W22449  13.112   5.715  13.414 -0.1459 -0.0521  0.0463
 6189W        W22450   6.001  14.181  12.907  0.0420 -0.4005 -0.3810
 6190W        W22451   3.785   4.023   5.224 -0.2669  0.0685 -0.1080
 6191W        W22452  15.697  17.906   0.439  0.0375  0.0859  0.1159
 6192W        W22453   9.747  15.769  12.195  0.3815 -0.1980  0.0556
 6193W        W22454   2.708  11.478   3.285  0.0207 -0.0647  0.1787
 6194W        W22455  16.604   7.568  15.298  0.1706  0.2142 -0.0694
 6195W        W22456   6.312   8.276  14.824 -0.0175 -0.1470  0.3081
 6196W        W22457   4.400   9.631   5.288  0.2586  0.2535  0.1315
 6197W        W22458   5.609  14.423  14.723  0.1044 -0.0652  0.4024
 6198W        W22459   4.156  10.779   5.109 -0.1282 -0.2894 -0.3662
 6199W        W22460   1.638  12.121  16.479  0.1472  0.0531  0.0985
 6200W        W22461  13.862   2.886   3.288  0.0546  0.1489  0.1949
 6201W        W22462   5.700   5.694   2.034  0.1107 -0.3408 -0.1385
 6202W        W22463   0.686   5.938   4.102 -0.1105  0.3751 -0.2763
 6203W        W22464   9.813  12.792  13.522  0.1183 -0.2494 -0.2504
 6204W        W22465   8.739   1.512  16.499 -0.0926 -0.2444  0.0078
 6205W        W22466  13.273  16.505   3.339 -0.1528  0.0026 -0.0124
 6206W        W22467   7.196   2.369   5.351  0.0617  0.1145 -0.0877
 6207W        W22468  15.010   1.821  11.965  0.0680 -0.2387  0.1884
 6208W        W22469   0.291   3.323   2.996 -0.0175  0.4698 -0.2038
 6209W        W22470  13.389   1.483   3.546 -0.0710  0.1807  0.3015
 6210W        W22471   8.770  17.168   5.794 -0.1518 -0.1566 -0.0270
 6211W        W22472   6.284   5.322   5.887 -0.3265 -0.0791 -0.0317
 6212W        W22473  16.859   4.125  12.145 -0.0310 -0.1339  0.1826
 6213W        W22474  12.260  11.617   1.339 -0.0288 -0.0696  0.0419
 6214W        W22475  11.660   4.390  15.324  0.2837  0.2839 -0.1103
 6215W        W22476   9.612   1.240  11.589  0.1543 -0.1679  0.2573
 6216W        W22477   2.671  10.501  13.493  0.1636  0.1177 -0.1609
 6217W        W22478  16.115   5.476   4.955  0.1372  0.3399 -0.0072
 6218W        W22479   7.182  10.944   4.078 -0.0218  0.0588  0.0781
 6219W        W22480   8.868   1.105   2.397 -0.3056 -0.0071  0.1605
 6220W        W22481  16.482   6.452   3.268  0.4010  0.2383 -0.2253
 6221W        W22482   6.990   9.656   0.234 -0.3471 -0.4599  0.1349
 6222W        W22483  15.012  17.902   4.432 -0.0483  0.1549 -0.2180
 6223W        W22484  14.031   1.054  16.075 -0.1601  0.1782 -0.1499
 6224W        W22485   0.788   2.020   2.312 -0.0233  0.3027  0.1879
 6225W        W22486  15.964  11.070   5.526  0.1797 -0.3482 -0.2417
 6226W        W22487   4.062   4.942   6.472 -0.3259 -0.1615 -0.0401
 6227W        W22488  13.679  11.161   4.584 -0.3334  0.1591 -0.1269
 6228W        W22489   1.748   3.580   2.582 -0.0915 -0.1254 -0.1140
 6229W        W22490   6.757  11.170  13.975 -0.0194  0.0106 -0.3045
 6230W        W22491   9.605  15.188   3.716 -0.0388  0.0096  0.1800
 6231W        W22492  14.799  10.181   0.425 -0.0160 -0.0433 -0.0618
 6232W        W22493  18.075   8.576   0.565 -0.0492  0.4367 -0.0765
 6233W        W22494   8.928  16.839   1.928  0.2561  0.2635 -0.0435
 6234W        W22495  12.321   4.750  14.073 -0.2421 -0.0800 -0.0145
 6235W        W22496   6.687   8.937   1.841  0.1663  0.3081  0.3361
 6236W        W22497   4.274   2.343  15.867  0.3786 -0.1972 -0.0909
 6237W        W22498  11.914  10.134   3.088  0.1843 -0.1456 -0.2239
 6238W        W22499   1.526  13.809   2.933 -0.0474  0.0650  0.4731
 6239W        W22500   5.669   7.865  15.465 -0.0862  0.0575  0.0193
 6240W        W22501  16.230   2.695   4.961 -0.2989 -0.1368 -0.0313
 6241W        W22502  15.860   1.520  12.324 -0.1958 -0.0316  0.0808
 6242W        W22503   6.711  17.243  11.884 -0.0908 -0.1899 -0.0640
 6243W        W22504  15.129  17.739   3.693  0.0395 -0.2790  0.1558
 6244W        W22505  14.299   9.772   5.081  0.0391  0.0734 -0.5568
 6245W        W22506  10.777  15.847   4.830  0.2845  0.0729 -0.2981
 6246W        W22507   7.522   8.117  11.620  0.0267 -0.1861 -0.2233
 6247W        W22508  13.821  11.004   1.653  0.3278  0.3224  0.3712
 6248W        W22509  15.138   3.270   1.045  0.1713 -0.2500  0.0329
 6249W        W22510   9.636   6.652   4.959 -0.0079 -0.1386  0.2836
 6250W        W22511  12.514  15.598   4.660 -0.1323 -0.2124 -0.0574
 6251W        W22512   9.798   9.917  12.690  0.1571  0.0052 -0.0201
 6252W        W22513  11.377  10.082  10.602  0.2023 -0.0989  0.0280
 6253W        W22514   9.409  18.188   4.830  0.0881 -0.1868 -0.2495
 6254W        W22515   6.840   9.453   1.308  0.0569  0.0264 -0.2788
 6255W        W22516  10.401   8.190  12.719  0.0136  0.4515  0.2775
 6256W        W22517   0.808  17.681   4.111  0.2446 -0.2446  0.0028
 6257W        W22518  10.928   0.250   2.601  0.1574 -0.2682  0.2860
 6258W        W22519   2.812   5.421  15.951  0.3011  0.2478  0.0170
 6259W        W22520   4.059  10.088   5.159  0.1642 -0.1041  0.0416
 6260W        W22521   7.851   6.210  13.326  0.2954  0.0852  0.2996
 6261W        W22522   7.249   0.129   0.489  0.0454 -0.1911 -0.0037
 6262W        W22523   4.563   5.838   3.934 -0.0982 -0.0090  0.0432
 6263W        W22524   3.956   2.903  13.459  0.0904  0.2115 -0.1509
 6264W        W22525  10.450  15.619   5.168  0.2224 -0.1651 -0.2688
 6265W        W22526   6.101   9.852   6.019  0.1871 -0.1649 -0.1026
 6266W        W22527  12.021  12.826   3.358  0.2117  0.0841 -0.4852
 6267W        W22528  18.007  17.398  13.199 -0.0001  0.0099  0.2853
 6268W        W22529  13.993   9.930  13.068 -0.3089  0.0335  0.2345
 6269W        W22530  17.541   4.288   1.124  0.0665 -0.0674 -0.0341
 6270W        W22531  10.816   0.515   5.168 -0.0800 -0.1145  0.1689
 6271W        W22532   6.068  11.518   4.974 -0.1657  0.3487  0.2220
 6272W        W22533  15.013  16.246  14.592 -0.0560 -0.2666 -0.1291
 6273W        W22534   5.092  18.188  15.629  0.1252 -0.0286  0.1930
 6274W        W22535   3.843   4.992  14.479 -0.2622 -0.0642 -0.0384
 6275W        W22536  14.835   2.447   5.255 -0.2816 -0.0055  0.0132
 6276W        W22537  15.608   4.424   3.847 -0.2647  0.0968 -0.0631
 6277W        W22538   8.695   4.418  14.781 -0.1606  0.0385  0.0425
 6278W        W22539  14.524  15.184  13.747 -0.0357 -0.1446 -0.3228
 6279W        W22540   8.315  17.106   2.909 -0.0287  0.1381 -0.0035
 6280W        W22541  10.624   6.599  14.502  0.0459  0.0488 -0.1170
 6281W        W22542  10.142  15.886   3.660  0.2381 -0.0044 -0.1872
 6282W        W22543  17.932   8.408   3.604  0.0550 -0.0701  0.5014
 6283W        W22544  10.194   5.448   0.574 -0.0893  0.2943 -0.1613
 6284W        W22545   2.956  17.852  14.991  0.1514 -0.0333 -0.1198
 6285W        W22546  15.576   9.360   0.094 -0.1775 -0.0980 -0.2576
 6286W        W22547  16.499   3.617   5.504  0.1666 -0.0181  0.2286
 6287W        W22548   3.444   7.225  15.334 -0.0765  0.0285  0.0321
 6288W        W22549  16.024  10.089  12.784 -0.3445  0.0401 -0.0951
 6289W        W22550   6.765  11.865   2.350 -0.1534  0.1655 -0.1806
 6290W        W22551   2.009  10.066   2.298  0.2606  0.2592  0.0533
 6291W        W22552  12.724  10.302  14.461  0.2531  0.0966  0.0858
 6292W        W22553   2.604  11.004   0.107 -0.0505 -0.1498 -0.1491
 6293W        W22554   2.316   4.090  14.495 -0.1406 -0.0734  0.2836
 6294W        W22555  14.736   4.445  12.196  0.0428 -0.0229  0.0202
 6295W        W22556  11.685   2.381   3.817 -0.3405 -0.0202  0.2316
 6296W        W22557   4.094  10.031   4.546 -0.3633 -0.1004  0.0754
 6297W        W22558  17.112   8.281   1.196 -0.0767 -0.1851 -0.3128
 6298W        W22559  17.267   3.929  11.813 -0.1969  0.2055 -0.1166
 6299W        W22560   2.943  17.793   5.854  0.1073 -0.0715 -0.2754
 6300W        W22561   1.536  14.636  16.575 -0.1976 -0.0592  0.0098
 6301W        W22562   6.097  14.161  15.005 -0.1691  0.2414  0.0808
 6302W        W22563  10.554   3.775   3.447 -0.0574  0.1053 -0.1005
 6303W        W22564  16.297   5.971  12.059  0.3024 -0.2437  0.0262
 6304W        W22565   4.031  16.842   4.652 -0.0874 -0.1993  0.1598
 6305W        W22566   1.138  12.013   1.974 -0.0586  0.2246  0.2489
 6306W        W22567   0.050   3.814  16.219  0.2741 -0.0534 -0.0443
 6307W        W22568  12.942  13.486  13.258 -0.3146  0.0460 -0.3627
 6308W        W22569   9.625   3.416  14.777  0.1023  0.0432  0.2145
 6309W        W22570   5.143  17.566  12.840 -0.0854  0.0823  0.0360
 6310W        W22571  18.028  11.007  11.832  0.5091  0.1636 -0.1690
 6311W        W22572   9.364   2.746   1.517  0.3398 -0.1626  0.0278
 6312W        W22573   1.287  17.912   0.444  0.3909  0.0180  0.3282
 6313W        W22574   0.291  14.514  16.370 -0.0695 -0.0933  0.3337
 6314W        W22575  13.457   3.373  12.485 -0.1198  0.0993 -0.2473
 6315W        W22576   5.815  13.993   1.349  0.3800 -0.1526  0.1791
 6316W        W22577  15.946   5.388  13.966  0.3266  0.0237 -0.2166
 6317W        W22578   0.029   2.683  16.609 -0.0590  0.0803  0.0288
 6318W        W22579  14.824   5.864  14.072 -0.0340  0.0267  0.0650
 6319W        W22580   4.969   9.798  13.102 -0.0872 -0.1805 -0.0536
 6320W        W22581  11.170   1.653  12.973 -0.1697  0.1024  0.0013
 6321W        W22582  11.762  18.119  16.300  0.0280  0.2595  0.0089
 6322W        W22583  17.465   2.895   4.547 -0.0898 -0.0337  0.0342
 6323W        W22584  12.769   5.508   2.864 -0.1309  0.1420  0.0669
 6324W        W22585   0.926   6.390   3.134  0.3815 -0.0670 -0.0756
 6325W        W22586  13.493  12.901  16.207  0.1849 -0.1607 -0.1597
 6326W        W22587  17.470  16.642   1.205  0.0026 -0.3072 -0.0859
 6327W        W22588  17.340   4.991  11.729 -0.0029  0.1208 -0.3614
 6328W        W22589   6.286  16.010   2.798  0.2850 -0.5182  0.0352
 6329W        W22590   6.564  12.284  15.810  0.0511 -0.1255  0.0981
 6330W        W22591   2.539   4.898   0.363  0.1772  0.1742 -0.2247
 6331W        W22592  15.022   7.404  12.296  0.2714 -0.2923 -0.0584
 6332W        W22593  13.306   5.558  14.164 -0.3651  0.1083 -0.1120
 6333W        W22594  11.794   3.445   2.508  0.2122  0.3486 -0.2175
 6334W        W22595  13.871   9.417  14.501 -0.1309  0.3079 -0.1769
 6335W        W22596   1.268   7.570  12.187 -0.1986  0.3757  0.0521
 6336W        W22597  15.233   0.921  11.970 -0.3886 -0.0581 -0.2235
 6337W        W22598   0.043   8.867   1.516 -0.0381 -0.1457  0.0971
 6338W        W22599   4.758  14.199   0.754  0.0568  0.2158  0.0669
 6339W        W22600   1.147  15.370   5.341  0.0367  0.1129  0.0021
 6340W        W22601   8.623   2.684  11.553  0.0811  0.0542 -0.1279
 6341W        W22602  11.112   2.816   4.526 -0.1448  0.1440 -0.0597
 6342W        W22603   0.221   1.643  14.912  0.0311  0.2153  0.2292
 6343W        W22604  10.456  14.891   3.070 -0.0922 -0.0307 -0.0927
 6344W        W22605   2.211  16.604  15.471  0.3148 -0.0021 -0.1825
 6345W        W22606  14.068  17.665  14.188 -0.2231  0.0772  0.1316
 6346W        W22607  17.787  13.509   0.428  0.5109 -0.1108  0.0102
 6347W        W22608  16.271   0.172   3.113 -0.1264  0.1055  0.1405
 6348W        W22609  13.206   4.941  13.330  0.0944 -0.0371 -0.1397
 6349W        W22610   2.218   4.555   4.005  0.1696 -0.0359  0.1042
 6350W        W22611   1.921  11.394   3.012  0.0802  0.0033  0.0875
 6351W        W22612   2.833  11.063   2.657 -0.3838 -0.0393 -0.3758
 6352W        W22613  12.782  10.525   3.822  0.2411 -0.2220  0.2116
 6353W        W22614  13.012  16.395  15.323 -0.2571 -0.0761 -0.0729
 6354W        W22615   4.385   0.136  11.699  0.0445  0.0443  0.0903
 6355W        W22616  17.103  15.849  12.944  0.1250  0.1385  0.3227
 6356W        W22617   8.017   3.942   5.060  0.2940 -0.3006 -0.0899
 6357W        W22618  17.338   3.925   0.357 -0.0390  0.1612  0.2223
 6358W        W22619  10.460  12.345   2.032 -0.3745 -0.2864 -0.0114
 6359W        W22620   1.354   2.722  13.901  0.0580  0.1073  0.2241
 6360W        W22621  12.261  12.463   2.917  0.2669  0.0274 -0.1955
 6361W        W22622   1.159   5.004  15.095  0.2595 -0.1135  0.2913
 6362W        W22623   6.781   8.666  11.983 -0.1126 -0.3026 -0.2694
 6363W        W22624   8.114  15.027  15.855 -0.1512 -0.1843  0.0845
 6364W        W22625   0.802  15.433  13.706  0.2080 -0.0145 -0.1794
 6365W        W22626   8.816   8.702   2.004 -0.1129  0.4288 -0.0123
 6366W        W22627  12.803  13.513  14.670  0.2049 -0.5903 -0.2062
 6367W        W22628  15.157  14.860  11.522 -0.2896 -0.2823  0.0430
 6368W        W22629  14.287  16.852   2.189  0.2503 -0.0697 -0.2405
 6369W        W22630  14.014  17.333  13.131  0.0129 -0.0787 -0.1677
 6370W        W22631   7.382   0.173  15.873  0.1440  0.0411 -0.0488
 6371W        W22632  17.705  17.822  15.709  0.1098  0.1922 -0.2236
 6372W        W22633   8.193  16.775  15.037  0.0386 -0.0096 -0.0868
 6373W        W22634   2.524   9.553   3.888 -0.2565  0.1335 -0.0673
 6374W        W22635  12.496   6.263   0.223  0.0767 -0.1763 -0.0723
 6375W        W22636  18.125  11.156   1.820  0.0988  0.1342  0.0596
 6376W        W22637  16.060   2.036  12.755 -0.0526 -0.0474 -0.2185
 6377W        W22638   5.901  10.700  12.564  0.0667  0.0445 -0.1570
 6378W        W22639   5.474  17.844   5.209  0.1091  0.2785  0.2094
 6379W        W22640  14.325  11.321  14.184  0.2950 -0.3579  0.1059
 6380W        W22641   4.824  14.511  14.209 -0.0120  0.0176 -0.2366
 6381W        W22642  17.740   3.752   1.085 -0.1166 -0.1169  0.1692
 6382W        W22643   0.921   5.504   3.990  0.1018 -0.1779 -0.0893
 6383W        W22644   4.466   1.397   2.374  0.3350  0.0987  0.2809
 6384W        W22645   0.243   5.748  16.499 -0.1583  0.0781  0.0182
 6385W        W22646   9.316   9.579  13.947 -0.1267 -0.0724 -0.0092
 6386W        W22647   4.817   8.652  10.924 -0.1687  0.4341 -0.0269
 6387W        W22648   3.485  17.131   0.097 -0.2620 -0.0396 -0.0852
 6388W        W22649   0.967   8.959   2.341 -0.0913 -0.0871 -0.3751
 6389W        W22650  16.701   0.282  16.135 -0.1781  0.3301 -0.2270
 6390W        W22651   4.447  14.039  15.922 -0.0129  0.2514 -0.0700
 6391W        W22652   6.641  17.689  11.245 -0.0609 -0.2647 -0.0235
 6392W        W22653   4.439   6.137   4.294 -0.0012 -0.0117  0.1602
 6393W        W22654   3.037   7.705   4.624  0.1132 -0.1747 -0.2088
 6394W        W22655  15.543   7.791   4.909  0.1303  0.4342  0.0124
 6395W        W22656  12.938   8.043   0.415  0.3836 -0.1365 -0.1776
 6396W        W22657  12.188   9.260  13.289  0.0580  0.2010 -0.2263
 6397W        W22658   7.715   1.636  14.223  0.0292  0.0424  0.1837
 6398W        W22659  10.586   0.444   6.131  0.0863 -0.1420  0.0056
 6399W        W22660  13.151   9.588  14.156  0.1994 -0.1673 -0.2732
 6400W        W22661   9.702  12.815   3.577  0.0792 -0.0997  0.1531
 6401W        W22662  12.536  17.424  14.662 -0.0805 -0.0673  0.0055
 6402W        W22663   8.670  13.315  13.346 -0.0366 -0.0637  0.1191
 6403W        W22664   5.234   5.220  15.123 -0.0781  0.4015 -0.0985
 6404W        W22665  13.311   7.235   2.097  0.1347 -0.0077  0.1558
 6405W        W22666  12.150  14.164  13.767  0.0491 -0.1400  0.0762
 6406W        W22667  15.770  16.231   4.012  0.0150 -0.1502 -0.1603
 6407W        W22668   2.421  12.582  16.058 -0.3871  0.0640 -0.0008
 6408W        W22669   5.656   2.920  13.088 -0.1875 -0.2483 -0.1577
 6409W        W22670   6.458  17.614  12.219 -0.1177 -0.1499 -0.0650
 6410W        W22671   3.680   8.931   0.343  0.0027  0.0162  0.0067
 6411W        W22672   2.913  17.185   1.582 -0.2165  0.0953  0.1176
 6412W        W22673  17.280   4.516   1.467  0.1643 -0.1878 -0.2367
 6413W        W22674   1.586  17.314   1.762 -0.0476  0.2732 -0.0657
 6414W        W22675  15.705  11.623   2.200  0.2179  0.0401  0.0110
 6415W        W22676   5.774   9.962   1.647  0.1351  0.0662  0.3093
 6416W        W22677   4.311   2.429   1.954 -0.4774  0.2434  0.0346
 6417W        W22678  14.739  10.131   1.029 -0.1602 -0.1963  0.4031
 6418W        W22679   2.353   9.411   5.437  0.1831  0.0116  0.1145
 6419W        W22680  13.519   2.497   0.008  0.0215 -0.2434  0.1824
 6420W        W22681  15.177   4.521  10.624 -0.1035  0.1147  0.2551
 6421W        W22682  11.465  17.960  14.971  0.0904 -0.1388  0.1361
 6422W        W22683   6.999  11.120   4.533 -0.2586  0.0388 -0.1067
 6423W        W22684  11.567  11.134   5.214  0.2287  0.0797 -0.0530
 6424W        W22685  17.694   1.839   3.563 -0.0151 -0.0790 -0.4518
 6425W        W22686   2.230   1.541  12.112  0.1816 -0.2845 -0.0772
 6426W        W22687   4.344  14.213  14.117  0.0994  0.1071  0.1790
 6427W        W22688   0.316   4.693  12.058 -0.3064 -0.1542  0.2414
 6428W        W22689   6.425  14.634  13.703  0.3131  0.0961  0.0855
 6429W        W22690  11.034   3.945  16.038 -0.2066 -0.1827 -0.0488
 6430W        W22691  11.319   1.776  13.486  0.2303 -0.1155 -0.2199
 6431W        W22692  11.187  16.213  12.539  0.0600 -0.4234 -0.1736
 6432W        W22693   2.324  12.310   3.307  0.1134  0.1339 -0.1360
 6433W        W22694   2.163   2.545   0.257  0.2044 -0.0404 -0.0179
 6434W        W22695   4.424  15.892   3.812 -0.2251 -0.1277 -0.1521
 6435W        W22696   3.236   0.493  16.624 -0.1180  0.0847  0.0401
 6436W        W22697  11.855  14.223   3.850  0.1041 -0.1384  0.0226
 6437W        W22698  10.311   3.831  14.058 -0.1907 -0.1296 -0.1782
 6438W        W22699   7.842   1.334  12.440 -0.0389  0.4025  0.2193
 6439W        W22700  13.973   7.985   3.928  0.1596 -0.2164  0.1362
 6440W        W22701  12.470   9.955   1.833 -0.1520 -0.2837  0.3476
 6441W        W22702   7.027   7.439   3.219  0.2948  0.0806 -0.1548
 6442W        W22703   8.362   6.197   2.292  0.1784 -0.0059 -0.0222
 6443W        W22704  16.453   6.818   4.933  0.0331 -0.0548  0.1343
 6444W        W22705  17.548  17.237  13.223  0.3047  0.0237 -0.0407
 6445W        W22706   6.358   1.452  13.293 -0.2771  0.0425 -0.3135
 6446W        W22707  14.862  15.445   3.158 -0.1394  0.1168  0.1623
 6447W        W22708  17.321  17.169  12.777  0.0516  0.1567  0.3414
 6448W        W22709  15.508   1.802   2.238  0.2754  0.3588 -0.1413
 6449W        W22710  18.033   4.262  11.432 -0.0524 -0.0600 -0.0362
 6450W        W22711  16.429  13.982   4.154 -0.2312  0.2643  0.3622
 6451W        W22712  16.140  15.873   5.465  0.2591  0.0650 -0.2823
 6452W        W22713  16.991  11.895   2.211 -0.0468 -0.0348  0.1525
 6453W        W22714   3.522   3.316   0.159 -0.0166 -0.3770 -0.3645
 6454W        W22715  16.787  16.468   4.914 -0.0416  0.1163 -0.0967
 6455W        W22716  10.660  10.153  12.359 -0.2923 -0.4010 -0.1046
 6456W        W22717  16.286   1.078   1.085 -0.2568  0.2315 -0.0016
 6457W        W22718   5.066  14.905   1.775 -0.1073  0.1440 -0.0854
 6458W        W22719   0.496   2.978  16.145  0.2158 -0.0126 -0.1389
 6459W        W22720  13.138  12.790  11.681  0.2184  0.0638 -0.0476
 6460W        W22721  10.284  16.488  15.306 -0.0480 -0.2092  0.4268
 6461W        W22722  11.085   1.591  16.167 -0.2698  0.0143 -0.1236
 6462W        W22723   2.715   1.982   4.836  0.0924 -0.1101 -0.0262
 6463W        W22724  13.922   8.797   4.286 -0.4721 -0.0756  0.0671
 6464W        W22725   4.460   7.014   0.379  0.4183 -0.2252  0.2345
 6465W        W22726   1.627  17.461  15.030  0.0124  0.2272 -0.1896
 6466W        W22727   3.577   2.615  11.943 -0.0699  0.2516 -0.2542
 6467W        W22728   4.996   9.875   2.079 -0.0592  0.1143  0.2270
 6468W        W22729  16.054   2.957   5.591  0.0740 -0.1390  0.1499
 6469W        W22730  12.736   4.074   0.978  0.4309 -0.0402  0.1603
 6470W        W22731  15.402  14.568  14.260 -0.0759 -0.5936  0.0566
 6471W        W22732  15.117   1.212  13.667 -0.0301  0.2437 -0.1277
 6472W        W22733  13.260   7.578  13.970 -0.1334  0.2269 -0.4171
 6473W        W22734   5.336   0.409  11.735 -0.0781  0.1340 -0.1135
 6474W        W22735  15.760   9.951  12.273  0.1207  0.0941 -0.1071
 6475W        W22736  17.483   5.330   0.268  0.3596  0.1221  0.2219
 6476W        W22737  13.662   0.082   4.164  0.2173 -0.1956 -0.0519
 6477W        W22738   8.783  17.513  16.475 -0.2610  0.0764 -0.0256
 6478W        W22739   8.751  10.328  12.121 -0.0928  0.1570 -0.3919
 6479W        W22740  12.074   6.017   0.154 -0.3366 -0.2804  0.0845
 6480W        W22741   9.639  10.959   3.740 -0.1039 -0.1252  0.1319
 6481W        W22742  15.050  16.492  16.093 -0.2165  0.1982  0.3735
 6482W        W22743   6.000  15.463   0.251 -0.0096 -0.1429  0.0701
 6483W        W22744  17.214   7.921  11.879 -0.1714 -0.4052  0.1180
 6484W        W22745  15.894   9.673   2.691  0.0381  0.1187 -0.2167
 6485W        W22746   3.896  13.235   4.787 -0.3603 -0.0462 -0.0447
 6486W        W22747   1.002   4.399   0.104  0.1115  0.1557  0.1368
 6487W        W22748  13.622  12.534   4.659 -0.1047  0.2867 -0.1552
 6488W        W22749  10.483   1.463  13.215  0.1577 -0.2767  0.1217
 6489W        W22750   4.889  10.626  15.140 -0.2670 -0.1884 -0.0691
 6490W        W22751   3.072   3.325  14.689  0.0087 -0.0499 -0.0961
 6491W        W22752   5.359   7.841  10.988 -0.3286  0.2900 -0.2075
 6492W        W22753  11.019  17.944  12.107 -0.0925  0.2554 -0.0487
 6493W        W22754  16.785   3.992   1.122 -0.0768 -0.0085  0.0865
 6494W        W22755  14.078  15.105   5.264 -0.2059  0.2340 -0.4049
 6495W        W22756   3.385   4.808   2.980 -0.3531  0.0576  0.2437
 6496W        W22757  13.186  16.049  13.401 -0.1353 -0.0626  0.1198
 6497W        W22758   6.461  11.516  15.175 -0.2533  0.2672  0.2387
 6498W        W22759  16.999  16.809  12.537 -0.1106 -0.1124  0.0173
 6499W        W22760   7.741  12.134   4.093 -0.4003  0.2679  0.0558
 6500W        W22761   9.675  13.760   0.700 -0.1029 -0.0060 -0.1599
 6501W        W22762   2.493   5.563  13.153  0.3179 -0.1913 -0.0042
 6502W        W22763   2.625   2.505   3.038  0.2277 -0.0248 -0.0783
 6503W        W22764  13.378  14.289   5.215 -0.0520 -0.2419 -0.1765
 6504W        W22765  11.511   0.325   2.732  0.0230 -0.0184  0.4052
 6505W        W22766  17.698  12.017  12.211 -0.0928 -0.2192 -0.1625
 6506W        W22767   0.584   1.752  12.457 -0.0250 -0.1190  0.0787
 6507W        W22768   2.840  10.657   4.897  0.0543  0.0191 -0.6518
 6508W        W22769   3.812  15.434   4.128  0.2285  0.1832 -0.0283
 6509W        W22770  10.858   9.860  14.096 -0.0574 -0.2114  0.2467
 6510W        W22771  10.323   8.723   0.246  0.0630  0.2137  0.1026
 6511W        W22772   7.673   3.278  12.213  0.2242  0.0548  0.1358
 6512W        W22773   5.289  13.191   4.104 -0.0389  0.3471  0.3175
 6513W        W22774   5.125   3.356  15.704 -0.2438  0.2842  0.2477
 6514W        W22775   5.202  12.877  13.953  0.2997 -0.1464  0.1237
 6515W        W22776  14.389  13.306   1.995  0.1259 -0.3013 -0.3182
 6516W        W22777  15.467   0.973  13.359 -0.1716 -0.0443  0.0931
 6517W        W22778  16.747  15.478  12.960 -0.4001 -0.1035  0.1734
 6518W        W22779  10.784  12.847   4.225  0.1269 -0.2227  0.2375
 6519W        W22780  11.776  14.203  13.021 -0.3020 -0.0005  0.3863
 6520W        W22781  14.998  15.997  13.262 -0.1691 -0.0284 -0.1981
 6521W        W22782  11.558   3.965  13.051  0.3423  0.0115  0.1585
 6522W        W22783   3.744  15.142   2.263  0.1533 -0.0095 -0.1331
 6523W        W22784  16.453   2.033   1.969  0.1002 -0.2097 -0.2748
 6524W        W22785   8.566  17.039  11.929 -0.0962  0.1954  0.2776
 6525W        W22786   5.731   9.914   2.243  0.1587  0.1006 -0.0805
 6526W        W22787   6.008   7.790   4.115  0.2231  0.0878 -0.1490
 6527W        W22788   5.713  17.222   4.256  0.2135  0.0206  0.2827
 6528W        W22789   0.001  13.829  12.428 -0.1791  0.0803 -0.0948
 6529W        W22790  15.903   4.773   0.848 -0.1471 -0.0100  0.1520
 6530W        W22791   4.009  14.389   1.142  0.0863  0.0677 -0.2604
 6531W        W22792   7.669  15.391  12.837  0.1413 -0.1110 -0.2127
 6532W        W22793  10.706   1.039  13.407  0.0769 -0.0191  0.1544
 6533W        W22794  16.786  15.523   1.507  0.1679  0.3382  0.0895
 6534W        W22795   0.572  10.748  13.657 -0.2063 -0.0321 -0.1466
 6535W        W22796   8.319  11.014   3.020 -0.4684  0.1600  0.2802
 6536W        W22797   9.843   4.422  11.052 -0.1469  0.4438  0.1497
 6537W        W22798   3.648  12.870  12.764 -0.1227  0.0104 -0.0071
 6538W        W22799   8.647   9.133   2.956 -0.0400 -0.1321  0.2420
 6539W        W22800   9.000   6.093  11.620 -0.3596  0.3884  0.0535
 6540W        W22801  15.089   5.219  12.772  0.0026 -0.1326  0.1474
 6541W        W22802   5.503   6.801   1.727  0.1173  0.4292  0.2443
 6542W        W22803   0.731  12.489  13.039  0.1305  0.1099 -0.1999
 6543W        W22804   1.707   6.564   1.601  0.0312  0.0056 -0.3811
 6544W        W22805  16.799  16.349   5.825 -0.2208 -0.1845  0.0175
 6545W        W22806  10.325  17.413  14.009  0.0128  0.2690 -0.2800
 6546W        W22807   6.498   5.613   4.459 -0.1666 -0.0780  0.1442
 6547W        W22808   4.528   5.535   0.045  0.1838  0.1918 -0.1704
 6548W        W22809   8.201  12.904   6.284  0.1546 -0.0001  0.0597
 6549W        W22810   8.822   3.622   4.538 -0.0842  0.0316 -0.1868
 6550W        W22811  16.992   4.909   4.781  0.3265 -0.1507  0.1399
 6551W        W22812  16.895   8.076   2.808 -0.0508  0.1399  0.1795
 6552W        W22813   0.793  17.544  15.978  0.0689  0.0164  0.2886
 6553W        W22814  15.405   2.238   4.526 -0.0368 -0.1338 -0.0301
 6554W        W22815   0.412   3.258   6.536 -0.2611 -0.1358 -0.1439
 6555W        W22816   9.501   0.752   6.036 -0.1340 -0.5214  0.0515
 6556W        W22817  14.475   5.419  13.443  0.1506  0.1079 -0.0299
 6557W        W22818  11.260   1.356   4.730  0.0435  0.1526  0.0198
 6558W        W22819   1.932  12.811  14.992 -0.5432 -0.0732  0.0274
 6559W        W22820  10.241  10.557  13.333  0.0852  0.1550 -0.0303
 6560W        W22821   5.456   9.050   0.355 -0.1456 -0.2548  0.1040
 6561W        W22822   5.732   0.643  13.321  0.0521  0.0421  0.0812
 6562W        W22823   6.368   6.269  15.676 -0.0531 -0.1128 -0.0506
 6563W        W22824  11.471   4.781  13.134 -0.0944 -0.2690 -0.4205
 6564W        W22825  11.717   3.338   4.095 -0.0679 -0.1570 -0.1242
 6565W        W22826  13.785   1.243   0.137  0.0646 -0.2989  0.0787
 6566W        W22827  16.944   8.746   4.355  0.2752 -0.0955 -0.2308
 6567W        W22828  13.450   6.016   1.153 -0.0257 -0.0798 -0.0105
 6568W        W22829  15.373   5.267  15.852 -0.2355  0.0635  0.0205
 6569W        W22830   1.259   1.431  14.768  0.0148  0.0638 -0.0870
 6570W        W22831  15.656   4.624   5.793  0.0052  0.2129 -0.1543
 6571W        W22832   1.067   8.369  15.808 -0.2295  0.0550  0.0622
 6572W        W22833  16.913  12.805  12.249 -0.1248  0.0895 -0.1786
 6573W        W22834   4.791   0.286   5.540  0.3333  0.1586 -0.1061
 6574W        W22835   6.523  17.641   0.530  0.1728  0.0585  0.2752
 6575W        W22836   9.727   8.486  16.041 -0.2344 -0.0294 -0.0888
 6576W        W22837  13.858  12.373  15.603  0.1100 -0.1748  0.0750
 6577W        W22838  15.057  10.054  16.127  0.0005 -0.0887 -0.2781
 6578W        W22839  13.216  10.330  12.879  0.4099 -0.2314 -0.1581
 6579W        W22840  13.017  10.400  15.566 -0.0136 -0.3271 -0.4535
 6580W        W22841   3.491   2.777   5.552 -0.2935 -0.1207 -0.0436
 6581W        W22842  12.183   1.026   2.473 -0.0040  0.0039 -0.0225
 6582W        W22843   7.972   6.981  11.195 -0.1848  0.0489  0.0712
 6583W        W22844   9.021   1.855   5.520  0.0259 -0.3561  0.0715
 6584W        W22845  16.740   6.329   4.094  0.0993  0.1588 -0.1087
 6585W        W22846   1.732   7.945  15.124 -0.0420 -0.3325 -0.0037
 6586W        W22847   1.655   7.541   0.615 -0.1763 -0.3430 -0.1167
 6587W        W22848  12.093  12.189  13.746  0.0644 -0.0434 -0.0219
 6588W        W22849  11.637   7.504  10.931 -0.0107  0.0133  0.4028
 6589W        W22850   0.665   1.895  14.906 -0.1851 -0.1212 -0.1757
 6590W        W22851   1.733  11.751  13.532 -0.0689  0.1496  0.1953
 6591W        W22852  14.525   1.793  12.845 -0.3355 -0.1519  0.2295
 6592W        W22853   5.524  15.269  13.777  0.0336 -0.3838  0.2696
 6593W        W22854   5.954  13.108  14.466  0.0980  0.0433 -0.1343
 6594W        W22855   7.979  12.799   3.423 -0.1006 -0.3953 -0.2102
 6595W        W22856   6.559  15.702  15.770 -0.1821  0.0220  0.0941
 6596W        W22857   9.972   0.773   0.995 -0.0591  0.0726 -0.2043
 6597W        W22858  17.442   7.460  15.056  0.1386 -0.4450  0.1361
 6598W        W22859  15.364   2.133  12.786 -0.1756  0.2216  0.1161
 6599W        W22860   5.903   5.136  12.326  0.0772  0.0084 -0.0018
 6600W        W22861   4.909   0.255   0.241 -0.0654 -0.0272 -0.3505
 6601W        W22862   6.974   6.319   0.388  0.0940  0.2818  0.1223
 6602W        W22863   7.532  14.912  16.338  0.2581 -0.0631 -0.4168
 6603W        W22864  12.487  15.662  16.185 -0.2305 -0.4513 -0.3160
 6604W        W22865   0.624   4.525  12.588 -0.0876  0.0666  0.3278
 6605W        W22866  11.595  17.320   4.400 -0.2955 -0.1647  0.0652
 6606W        W22867   5.548  16.092   0.837 -0.1405 -0.1807 -0.1138
 6607W        W22868   2.908  13.457  10.814 -0.2945 -0.1286 -0.0285
 6608W        W22869  16.921   6.683  14.657 -0.0058 -0.4174  0.3042
 6609W        W22870   8.022   5.801  13.632  0.0043  0.0571 -0.3221
 6610W        W22871  16.082  14.031   5.054  0.0083  0.0322 -0.1772
 6611W        W22872   2.535   4.319  16.502 -0.1338  0.2101 -0.2500
 6612W        W22873  14.578  14.873  12.955 -0.0730 -0.2451  0.2550
 6613W        W22874  17.984  16.001   5.355  0.1126 -0.0750 -0.0827
 6614W        W22875  11.593   6.226   3.314 -0.0780 -0.0510  0.0830
 6615W        W22876  16.337   5.499   3.663  0.1022  0.2056  0.0856
 6616W        W22877  17.579   1.975   5.766 -0.1848 -0.0004 -0.0644
 6617W        W22878  18.082   8.527  15.037  0.1073 -0.1565 -0.3440
 6618W        W22879  17.753   8.929  12.699 -0.0966  0.1272 -0.0902
 6619W        W22880   1.924  15.815  13.148  0.0578 -0.0306  0.0006
 6620W        W22881   8.112   7.447  12.866  0.0616  0.5970  0.0882
 6621W        W22882  13.062   1.631   2.247  0.2602 -0.1991 -0.2962
 6622W        W22883  13.782   8.481   2.667  0.0102  0.1593 -0.2766
 6623W        W22884   1.357   9.773  15.935  0.1637 -0.1837  0.0235
 6624W        W22885   5.775   9.050  16.602 -0.2138  0.0297 -0.0965
 6625W        W22886   6.701  15.838  11.933 -0.4570 -0.0904  0.0023
 6626W        W22887  12.956  14.885   3.522 -0.1857  0.3412  0.2413
 6627W        W22888   0.424   4.642  13.498  0.1042  0.2377  0.0055
 6628W        W22889  17.357  10.100  11.481  0.2138 -0.0241 -0.1433
 6629W        W22890   8.856  11.294  16.361  0.1209 -0.1280  0.0934
 6630W        W22891   4.997  13.935   0.339  0.2531  0.1689  0.0184
 6631W        W22892   3.831  16.423   4.429 -0.0320  0.1174 -0.0600
 6632W        W22893  12.942  17.066  14.808 -0.1441  0.0845  0.1094
 6633W        W22894   4.527   9.010   2.534 -0.2786 -0.0440 -0.1650
 6634W        W22895   9.355   5.395  14.736 -0.3578 -0.1274  0.1742
 6635W        W22896  10.037   9.614  12.274  0.0532  0.2289  0.0820
 6636W        W22897   9.243   8.013   3.614  0.1018 -0.1688  0.0348
 6637W        W22898   3.591  11.407  15.006 -0.1119 -0.0435 -0.1822
 6638W        W22899   2.178  15.848  14.871 -0.0458  0.0404  0.0932
 6639W        W22900  12.108   0.193   5.192 -0.2067  0.0754 -0.0550
 6640W        W22901   2.770   5.299   5.864  0.1739 -0.2609 -0.1389
 6641W        W22902   2.115   3.551   5.258 -0.1229 -0.1612  0.2303
 6642W        W22903  13.066   5.986   3.114  0.3067  0.2084  0.5411
 6643W        W22904   5.420  15.691   4.628  0.2562 -0.0044  0.1770
 6644W        W22905   5.079   0.489   2.520 -0.1545  0.2100  0.1539
 6645W        W22906  12.377  16.256   0.297  0.2021 -0.1410 -0.0584
 6646W        W22907   8.709   8.640  12.884  0.0528  0.1836  0.2743
 6647W        W22908   6.637  17.704  15.913  0.0416  0.0120  0.0215
 6648W        W22909  14.325  16.117  15.325 -0.0034 -0.0788 -0.0590
 6649W        W22910  12.427  11.265  14.440 -0.1793 -0.0499  0.1339
 6650W        W22911   6.046  10.099  11.393  0.1212 -0.2828  0.1104
 6651W        W22912   5.460  12.681   4.045  0.0824 -0.2286  0.3609
 6652W        W22913   4.761   3.260   1.048  0.0466  0.1474  0.1985
 6653W        W22914  17.599   0.341  16.180 -0.0526 -0.0214 -0.2528
 6654W        W22915   0.857  17.554  16.467  0.2796  0.1887 -0.0018
 6655W        W22916  12.278  14.300   6.277  0.0328 -0.1908 -0.1382
 6656W        W22917  16.756  10.949   5.146  0.1571 -0.0751  0.1801
 6657W        W22918   8.287   4.875   5.101 -0.0214 -0.0603 -0.1105
 6658W        W22919  10.138   2.267  12.661 -0.0483 -0.1313  0.0246
 6659W        W22920  17.049  11.528  13.211 -0.0684  0.0047  0.5063
 6660W        W22921  13.644   1.936  14.461  0.1563 -0.0405 -0.1306
 6661W        W22922   0.504   3.491   5.738  0.0391 -0.3005  0.1944
 6662W        W22923   2.280   2.067   5.102  0.2602 -0.2512 -0.4221
 6663W        W22924   9.380   8.513  16.437  0.0050 -0.0190  0.2146
 6664W        W22925   7.266   4.914   1.249 -0.2872 -0.1515 -0.1901
 6665W        W22926   6.446   4.016  11.341  0.4654 -0.4500  0.1102
 6666W        W22927  14.062  16.254  13.150  0.4236  0.0064  0.0132
 6667W        W22928   6.120  12.821   6.159  0.1927  0.1191  0.1335
 6668W        W22929  14.486  10.665   4.833  0.0637 -0.2597  0.0771
 6669W        W22930  13.877   9.414   1.298 -0.1701  0.4080  0.2891
 6670W        W22931  16.206   3.902  13.615  0.2000  0.0896 -0.1287
 6671W        W22932  11.081   8.714   1.558 -0.1365  0.0790  0.1060
 6672W        W22933  13.385  11.626  13.488 -0.0552 -0.3637 -0.0934
 6673W        W22934  10.270   4.527  12.257 -0.2840  0.3868  0.0394
 6674W        W22935   5.125  12.232   1.156 -0.0275  0.0164  0.1903
 6675W        W22936  10.074  18.101   1.590 -0.1359 -0.1400 -0.2188
 6676W        W22937   2.636   8.821   4.830 -0.0111 -0.0938 -0.0505
 6677W        W22938   7.840  12.470   5.308  0.0578  0.2267 -0.0260
 6678W        W22939   0.676  15.626  15.048 -0.1635 -0.1755  0.0676
 6679W        W22940   9.277   3.276   1.249 -0.2044 -0.0656  0.5099
 6680W        W22941   5.591  16.204   2.296 -0.1390  0.1711 -0.0472
 6681W        W22942  14.437   2.071   5.053  0.1686  0.1228  0.0756
 6682W        W22943  12.495  14.644   2.195 -0.1475  0.1770 -0.2613
 6683W        W22944   1.478   7.655  15.439  0.0693 -0.0595  0.0162
 6684W        W22945   8.958  14.464  16.341 -0.4299 -0.2789  0.4055
 6685W        W22946  14.351  12.575   1.392 -0.0325 -0.1680  0.2682
 6686W        W22947  15.304   9.003   0.426 -0.0625  0.0240 -0.2168
 6687W        W22948  17.332   6.987  14.762  0.0755 -0.1999  0.2350
 6688W        W22949   8.270   5.380   4.944 -0.1670  0.2555  0.1613
 6689W        W22950   0.890   8.288  13.776 -0.0358  0.2558 -0.0369
 6690W        W22951   5.268  14.486   3.124 -0.1546 -0.0798 -0.1383
 6691W        W22952  14.064   0.650   1.733  0.1334 -0.0803 -0.1406
 6692W        W22953  12.948  14.986   2.948  0.0266 -0.0735 -0.1146
 6693W        W22954  13.915   9.093   5.467 -0.1295 -0.2730  0.0663
 6694W        W22955   9.466  15.849  13.639 -0.1904 -0.2325  0.0309
 6695W        W22956  13.903  10.904   2.606 -0.0471 -0.1564  0.1254
 6696W        W22957  11.670  18.033  12.443  0.0205 -0.0475  0.1277
 6697W        W22958   9.466  15.897  11.774  0.1010  0.1477 -0.1236
 6698W        W22959   3.603   6.782   1.238  0.0386  0.2120  0.0053
 6699W        W22960   8.639   1.086  13.079 -0.1757  0.0386  0.0445
 6700W        W22961  11.389  11.572  14.281 -0.0093  0.0418 -0.1247
 6701W        W22962   2.463  13.788  13.413 -0.1237  0.1882  0.2434
 6702W        W22963   8.171   3.829   2.859 -0.1225  0.2426  0.0522
 6703W        W22964   6.051   6.750  12.513 -0.0585 -0.2074  0.0308
 6704W        W22965   9.270  12.657  11.556  0.0481  0.0130  0.3138
 6705W        W22966  13.061  17.225  12.077 -0.6221 -0.0422  0.3080
 6706W        W22967  12.420  16.284  15.935 -0.1461 -0.0208  0.0202
 6707W        W22968   5.485  16.094  16.279  0.0390  0.0967 -0.0167
 6708W        W22969   7.204   2.432   4.517  0.2140  0.0873  0.2241
 6709W        W22970   6.269   2.842  11.544 -0.0445  0.0706  0.3621
 6710W        W22971  15.943   7.681  14.728 -0.5019 -0.0098 -0.5433
 6711W        W22972  17.612  15.134  14.699 -0.1087  0.3608 -0.2912
 6712W        W22973   7.876   9.818  12.010  0.0475 -0.2012  0.4021
 6713W        W22974   1.750   2.885   3.073 -0.0511 -0.1203 -0.2606
 6714W        W22975  11.668  10.551  16.300 -0.0308  0.0372  0.0497
 6715W        W22976  17.011  16.641  16.287  0.1837 -0.2061  0.0436
 6716W        W22977  13.402  15.763  13.832 -0.1810  0.2066 -0.2215
 6717W        W22978   8.503   7.485   3.604  0.0129  0.3451  0.0638
 6718W        W22979   4.445   2.700  11.888  0.0240 -0.0559  0.1853
 6719W        W22980  13.939   2.021   3.983  0.3686 -0.3869 -0.2059
 6720W        W22981  11.591   2.278  16.153  0.1295  0.3463 -0.4755
 6721W        W22982   6.986   3.662   0.578 -0.2538 -0.1474  0.0121
 6722W        W22983   8.472   1.301   4.179  0.1940 -0.2972 -0.1594
 6723W        W22984  14.855   5.740   1.431  0.2899  0.0959  0.2001
 6724W        W22985  15.735   5.245   5.501  0.0125 -0.0032 -0.2679
 6725W        W22986   4.085  17.930   4.229 -0.1173  0.1223  0.2488
 6726W        W22987  16.451   8.481   3.567 -0.1685  0.1437  0.2173
 6727W        W22988  17.528  17.776   3.961  0.0496  0.0704  0.0894
 6728W        W22989   7.354   2.538   0.666  0.1472  0.0049 -0.1081
 6729W        W22990   8.814   2.456  15.151 -0.1102  0.0224  0.0218
 6730W        W22991   8.500  14.873  16.376  0.0633 -0.2645 -0.5138
 6731W        W22992   8.758  12.117  14.779 -0.2080 -0.0625 -0.0284
 6732W        W22993   1.156  17.122  11.807  0.1070 -0.4333 -0.1224
 6733W        W22994  15.680  16.408  16.617 -0.0823  0.1478 -0.1198
 6734W        W22995   6.570  10.835   1.556  0.0041 -0.0027 -0.2823
 6735W        W22996   2.728   6.681  11.877  0.0648  0.0230  0.0170
 6736W        W22997  18.015  14.987   3.385 -0.2732  0.0816  0.1368
 6737W        W22998   6.618   7.792   2.456  0.0774  0.3202 -0.0502
 6738W        W22999  10.031   3.084  16.049  0.1239 -0.0038  0.1172
 6739W        W23000   0.261  17.463  12.981  0.3975 -0.0231 -0.2014
 6740W        W23001  15.499   0.691   3.906  0.0210  0.0289  0.0111
 6741W        W23002  18.073  14.888   5.454 -0.2681  0.0212 -0.1007
 6742W        W23003   6.964   0.348   2.629  0.1497 -0.3081  0.0193
 6743W        W23004   8.350  13.484   4.074 -0.1795  0.1119  0.0682
 6744W        W23005   0.157  14.705  15.858  0.1517  0.0120 -0.1444
 6745W        W23006   0.086   4.450  14.248 -0.0708 -0.2815 -0.0757
 6746W        W23007  10.181   9.144  14.337 -0.1305 -0.0782  0.0775
 6747W        W23008  10.027   3.378  14.440 -0.1203  0.1291  0.0695
 6748W        W23009   5.205  11.099   0.269  0.0459 -0.1802  0.2006
 6749W        W23010   1.590  15.330   1.412  0.2334  0.1605  0.0506
 6750W        W23011  15.461  12.325  14.516 -0.0617 -0.0770 -0.2748
 6751W        W23012   7.945   7.830   0.528  0.3789 -0.0480 -0.0432
 6752W        W23013   5.252  15.988   4.230  0.1867 -0.3801 -0.2639
 6753W        W23014   2.490  17.973   5.800  0.2677  0.0387  0.0665
 6754W        W23015  10.237  14.006   5.657  0.1187 -0.1491 -0.1408
 6755W        W23016  15.882  15.730   1.743 -0.2264 -0.3811  0.0829
 6756W        W23017  13.513  17.268   6.238  0.0479  0.3322 -0.0591
 6757W        W23018  10.607   5.383   0.833  0.2939  0.0648  0.0914
 6758W        W23019  15.608   6.442   3.517 -0.0714 -0.0539 -0.1685
 6759W        W23020  17.638  11.571  14.810 -0.0863 -0.3631 -0.1772
 6760W        W23021   2.151  11.356  12.718  0.1099 -0.0532 -0.0448
 6761W        W23022   2.934  16.257   1.161  0.2200 -0.1587 -0.0707
 6762W        W23023  14.335   8.404  14.944 -0.1223  0.0084 -0.0514
 6763W        W23024   2.346   1.862   1.712 -0.1042 -0.1313 -0.1308
 6764W        W23025  16.865  13.899  15.239 -0.0524  0.2612  0.0845
 6765W        W23026  14.450   8.129  15.376 -0.0799  0.1203 -0.1253
 6766W        W23027  13.724   3.518  14.313  0.2875 -0.0313 -0.1342
 6767W        W23028  11.760  12.339   1.687  0.2071  0.0581  0.1929
 6768W        W23029   0.707   9.096  11.941  0.0204 -0.0722  0.0851
 6769W        W23030  10.060   4.747  10.525  0.0323 -0.0988  0.0220
 6770W        W23031   4.030   0.792  16.036  0.4019  0.2655 -0.1341
 6771W        W23032  17.049  12.239  13.798 -0.1144 -0.1047 -0.1371
 6772W        W23033  13.343   6.405  11.371 -0.2623  0.1994  0.0937
 6773W        W23034   5.737  16.923  15.599  0.1627  0.2025 -0.1400
 6774W        W23035  16.227   7.754  16.172  0.2293  0.0832  0.4069
 6775W        W23036   1.012  13.115   4.589 -0.0192  0.3092 -0.1119
 6776W        W23037   5.493  14.721  12.292  0.1618 -0.2182  0.3180
 6777W        W23038   5.724   2.359  13.623 -0.2429  0.0487  0.1117
 6778W        W23039  16.200   3.973  16.462  0.0119 -0.1633 -0.1338
 6779W        W23040   7.617  17.613  12.176  0.1344 -0.1646 -0.0085
 6780W        W23041   4.151  16.775  16.026  0.0555  0.1210  0.0778
 6781W        W23042   6.517   0.060   1.490 -0.2428  0.1241 -0.0707
 6782W        W23043   4.645  13.425   1.150  0.0196 -0.2692  0.2190
 6783W        W23044   7.528   9.248  13.884 -0.1628 -0.1701  0.0234
 6784W        W23045   9.006  10.797   0.348 -0.1834  0.4466  0.1249
 6785W        W23046   2.398   1.657   2.391  0.0246  0.2305 -0.1484
 6786W        W23047   9.198  16.759   5.005 -0.0700 -0.0873 -0.2024
 6787W        W23048   2.611  13.459  15.488 -0.1832 -0.0657 -0.3855
 6788W        W23049  10.470  11.755   0.108 -0.1515 -0.1372  0.1646
 6789W        W23050   1.729  14.646  15.644 -0.0224  0.1164 -0.1328
 6790W        W23051   2.120   7.293  13.745  0.0442 -0.2148 -0.2344
 6791W        W23052  10.559  16.829   1.525 -0.0009  0.0500  0.3243
 6792W        W23053   1.984   6.942  14.173  0.0618 -0.0941 -0.2430
 6793W        W23054   6.383   1.803  15.837  0.1409  0.1503  0.1880
 6794W        W23055  17.695  10.072   2.209  0.0897 -0.3157  0.0810
 6795W        W23056   7.111   5.134  15.290 -0.2488 -0.1567 -0.2920
 6796W        W23057   5.147  13.719  11.485 -0.1323  0.1737 -0.1247
 6797W        W23058   0.315   1.612   2.467 -0.0912  0.3551  0.2043
 6798W        W23059   9.068   7.737  11.849 -0.2244 -0.2665  0.1223
 6799W        W23060  16.885   6.007  13.341 -0.0024  0.0064  0.0993
 6800W        W23061   5.372   4.059  11.865  0.0313  0.0052 -0.0565
 6801W        W23062  16.554  17.824   3.985  0.0893 -0.1563  0.0199
 6802W        W23063  15.244   0.788   4.898  0.5379  0.1159 -0.1757
 6803W        W23064  16.189   9.553  12.734 -0.0693 -0.1715  0.3771
 6804W        W23065  14.132  12.276   0.280 -0.0805  0.3576  0.3171
 6805W        W23066   7.437   2.169  15.254  0.0589 -0.2118  0.0853
 6806W        W23067  12.502   2.961   4.496 -0.4127 -0.4045 -0.1774
 6807W        W23068   6.945   8.301  12.347  0.1702  0.1448 -0.1398
 6808W        W23069   0.815  16.068   0.657 -0.1700  0.0038 -0.1752
 6809W        W23070   7.495   6.643  16.261  0.1959  0.2409  0.1119
 6810W        W23071   8.001  14.969   3.525  0.2381  0.0332 -0.0318
 6811W        W23072  17.396  17.049   2.634 -0.0689 -0.1666 -0.1006
 6812W        W23073  10.620   8.257  16.003 -0.0759 -0.2294 -0.1974
 6813W        W23074  17.322   0.180  11.934 -0.3972  0.0504 -0.0719
 6814W        W23075   4.688   4.730  11.352  0.1722  0.1648  0.0791
 6815W        W23076  17.978  12.461  11.410 -0.0042 -0.0562  0.1114
 6816W        W23077   5.541  11.613   2.301 -0.1312  0.0469  0.2062
 6817W        W23078  11.520   5.564   4.422  0.1784 -0.0090 -0.1402
 6818W        W23079  16.969  14.021   4.191  0.0799  0.4316 -0.0890
 6819W        W23080  17.428  10.554   4.774 -0.0964  0.1991 -0.0452
 6820W        W23081   8.389  17.135  16.609  0.1431  0.0374  0.0265
 6821W        W23082   4.456   8.720  11.696  0.2536 -0.0724 -0.0912
 6822W        W23083   4.791  16.265  12.248 -0.1376 -0.1480 -0.2560
 6823W        W23084   4.675  13.695  14.094  0.0362 -0.0033 -0.1042
 6824W        W23085   6.901  14.020  12.207 -0.2680  0.1849  0.1842
 6825W        W23086  16.637   1.601   1.531 -0.2476 -0.1828  0.1686
 6826W        W23087   1.370   5.589   0.061 -0.2353 -0.0074 -0.2679
 6827W        W23088  12.046  13.331   3.481 -0.4974  0.2245  0.1155
 6828W        W23089   2.806   7.569   3.236  0.2246  0.0764 -0.0156
 6829W        W23090   5.697  13.783   5.770 -0.0905 -0.1032  0.3215
 6830W        W23091   5.616  17.680  14.960  0.1198  0.0718 -0.1784
 6831W        W23092   2.538   2.108   2.678  0.0003 -0.1514  0.1135
 6832W        W23093   6.040  17.362   3.287  0.0980 -0.1503 -0.0526
 6833W        W23094  16.882   6.875   5.315 -0.1381 -0.2422  0.1957
 6834W        W23095   9.644  14.468  12.469  0.1707  0.4231  0.0847
 6835W        W23096   3.050   5.195   2.826 -0.0929  0.2343 -0.1911
 6836W        W23097   3.466  16.335  14.706 -0.1040  0.0110 -0.0485
 6837W        W23098   9.068   7.209  11.872 -0.0462 -0.1751  0.2385
 6838W        W23099   1.747   6.792  14.953 -0.4515 -0.0108 -0.0967
 6839W        W23100   4.810  17.248   2.581 -0.0120  0.0991 -0.1747
 6840W        W23101   5.556   8.018   4.512  0.2118 -0.1349 -0.0689
 6841W        W23102   4.152  12.438  12.031  0.5106  0.1457  0.3196
 6842W        W23103   4.338  17.733  12.305 -0.2266 -0.0343  0.2248
 6843W        W23104   1.712   8.000  13.523  0.3533 -0.2461  0.1113
 6844W        W23105  17.696  17.144   4.731  0.0010  0.1039  0.0080
 6845W        W23106   5.047   8.102  12.553 -0.0475  0.2655  0.0699
 6846W        W23107  15.487  12.258  13.996 -0.0107  0.1013  0.2954
 6847W        W23108  17.200  17.580   2.055 -0.2207 -0.4150  0.1926
 6848W        W23109   1.753   3.518   0.901  0.1443  0.2539 -0.0076
 6849W        W23110   1.587   5.072   4.804  0.0715 -0.3031  0.1994
 6850W        W23111   6.730   2.553  16.261 -0.1332 -0.2413 -0.2507
 6851W        W23112  15.360  10.470  13.145  0.2128 -0.4379 -0.1822
 6852W        W23113   4.092   8.292  16.371  0.2109  0.0473 -0.0438
 6853W        W23114  15.807   8.537   1.983  0.1558  0.0402  0.0608
 6854W        W23115  10.913  13.790  15.890 -0.0636  0.0165  0.1567
 6855W        W23116   9.509   9.575  13.019  0.0795 -0.0214 -0.0292
 6856W        W23117  16.237   5.169   4.358 -0.2382  0.1012  0.0539
 6857W        W23118  14.864  17.231   5.690 -0.1712  0.0278 -0.0793
 6858W        W23119   4.918  11.365  15.685 -0.0810  0.3654 -0.2007
 6859W        W23120   7.831  16.392   5.045  0.0208  0.0534  0.0119
 6860W        W23121  12.061   3.426  13.646 -0.0671  0.1584 -0.0444
 6861W        W23122   7.523  13.268   2.807  0.1582 -0.2540  0.1390
 6862W        W23123   8.831  15.510  11.281  0.4516 -0.0302 -0.0183
 6863W        W23124   0.578   2.642   4.033  0.3117  0.0961 -0.2478
 6864W        W23125  14.585   9.732   0.209  0.0299 -0.1242 -0.0378
 6865W        W23126  11.273  17.162  12.197 -0.0299 -0.2216 -0.0229
 6866W        W23127   5.207  11.839  15.217  0.0406 -0.0999  0.0191
 6867W        W23128   9.331  15.886   4.747 -0.0573  0.2068  0.1329
 6868W        W23129   6.688   8.824   5.577 -0.3350 -0.0445 -0.0933
 6869W        W23130   7.652  14.698   5.353  0.0933 -0.1931 -0.1161
 6870W        W23131  10.641  16.696  15.760  0.0384  0.1046 -0.3300
 6871W        W23132   2.269   1.146   0.526  0.1128  0.0132  0.1547
 6872W        W23133  15.107  13.557   2.590 -0.1988 -0.1398 -0.0495
 6873W        W23134  16.129   3.899   3.705 -0.1056  0.1054 -0.3166
 6874W        W23135  14.351   7.162  13.245 -0.2016  0.1908 -0.2497
 6875W        W23136  11.693   0.548   5.105 -0.1016 -0.0732  0.1470
 6876W        W23137   2.580  12.509  13.616 -0.1317  0.1663  0.0260
 6877W        W23138  10.866  11.807  13.430  0.3126  0.1670 -0.0415
 6878W        W23139  12.583   2.402   1.775  0.2248  0.0632 -0.1507
 6879W        W23140  15.531  10.246   2.532  0.0507 -0.1896 -0.1336
 6880W        W23141   2.158   9.154  13.302  0.1051  0.1112  0.3921
 6881W        W23142  17.282  10.965  16.458  0.0507  0.0414  0.0052
 6882W        W23143   4.031   6.225  13.590  0.2875  0.1934  0.1669
 6883W        W23144  15.677   5.625  15.598 -0.1353 -0.0348 -0.3002
 6884W        W23145   2.109   3.932  11.844  0.2900  0.3246 -0.1643
 6885W        W23146  16.672  10.344   3.348  0.0704 -0.0882 -0.1191
 6886W        W23147  10.669  12.235  16.072 -0.0779  0.0309 -0.0720
 6887W        W23148   6.154   1.777   4.471 -0.1447 -0.1826 -0.1902
 6888W        W23149   8.337  13.317  14.755  0.6101 -0.2105  0.2434
 6889W        W23150  12.022   5.065   1.526  0.1277 -0.1111 -0.1958
 6890W        W23151   5.703  13.478  14.739 -0.0631 -0.0823  0.0246
 6891W        W23152   8.759  13.011   4.590  0.1038 -0.3815  0.0174
 6892W        W23153  15.857   0.670  14.686  0.1542  0.0488  0.0476
 6893W        W23154   6.307  17.278   5.045 -0.1694 -0.0712 -0.1391
 6894W        W23155  12.899  12.474   3.381  0.1337  0.2742  0.1963
 6895W        W23156   9.017  17.015  16.645  0.2462 -0.1210  0.0864
 6896W        W23157  15.791   8.361   0.547 -0.0359  0.0240  0.1469
 6897W        W23158   8.543   2.459   3.856  0.1192  0.5352 -0.1666
 6898W        W23159   9.387   9.166   6.512  0.0718 -0.2957  0.1963
 6899W        W23160  11.861  11.270  15.234  0.1011 -0.1143  0.0793
 6900W        W23161   4.217  12.518  16.310 -0.0686  0.0861 -0.1569
 6901W        W23162   0.978   9.555   5.130 -0.1708  0.1420 -0.2777
 6902W        W23163  11.565  18.185   0.145 -0.0340  0.1235  0.2449
 6903W        W23164   6.039  16.085  15.386  0.3234  0.0052 -0.0412
 6904W        W23165   7.418  14.138   2.639  0.0974  0.1837  0.4206
 6905W        W23166  16.658  16.779   0.592 -0.0463 -0.1347  0.3747
 6906W        W23167   2.134  17.672  13.722  0.1541 -0.0968  0.0663
 6907W        W23168  14.522   6.937   3.242 -0.0796  0.0381 -0.1840
 6908W        W23169   2.621   3.233   0.567 -0.0194 -0.2612 -0.2092
 6909W        W23170   7.080   3.210  13.302 -0.0156 -0.0039  0.5616
 6910W        W23171   8.288   5.620   0.990 -0.2253 -0.1571  0.0112
 6911W        W23172  17.122   3.832  16.041  0.0188  0.1235 -0.2295
 6912W        W23173   6.488   3.550   5.264 -0.0925  0.0040 -0.0948
 6913W        W23174   0.877  11.444   5.344  0.0497 -0.0850 -0.0971
 6914W        W23175  13.522  13.059   2.415  0.0300  0.3557  0.2351
 6915W        W23176  12.200  17.973  14.078  0.0554  0.3518 -0.1486
 6916W        W23177   8.865  14.299   2.895  0.1697  0.1796 -0.0496
 6917W        W23178  13.856   8.340   0.880  0.0100  0.0496  0.1030
 6918W        W23179   7.703  17.456   3.533  0.0706  0.0749 -0.3762
 6919W        W23180   7.947   0.275   4.188 -0.0916  0.0687 -0.0397
 6920W        W23181  16.219   4.918  13.808 -0.1849  0.2064 -0.4284
 6921W        W23182   2.721   6.982   1.965 -0.0079  0.1762 -0.2595
 6922W        W23183   0.524   2.121  15.666 -0.2291  0.0513  0.1667
 6923W        W23184   4.119   9.875   3.727 -0.0600 -0.1452  0.3664
 6924W        W23185   4.376  14.126   5.787  0.0697 -0.0469 -0.1263
 6925W        W23186  16.231   7.549   2.958  0.0289  0.1980 -0.1433
 6926W        W23187   4.320   5.392   0.956 -0.0806  0.0339 -0.0876
 6927W        W23188   7.267   7.250  12.698  0.2570 -0.0924 -0.1390
 6928W        W23189   7.595   5.851   1.088  0.1998  0.1537 -0.0509
 6929W        W23190   3.002  13.117  12.622  0.0178  0.2364  0.0161
 6930W        W23191   6.367  13.387  12.503  0.0550  0.4075 -0.0220
 6931W        W23192   5.623  15.415  15.905 -0.4340 -0.2325  0.0491
 6932W        W23193   9.287   4.046   5.330 -0.0328  0.0811 -0.2192
 6933W        W23194  14.246  13.921  15.323 -0.0063 -0.1906 -0.1263
 6934W        W23195   3.149   0.720  12.454  0.1400 -0.0612 -0.0493
 6935W        W23196  14.078   2.068  15.168  0.2319  0.1629  0.1490
 6936W        W23197  10.343  17.935   3.048  0.3039  0.2240 -0.4182
 6937W        W23198  12.105  14.800  14.274 -0.2919  0.0855 -0.3076
 6938W        W23199   6.415   2.221   0.612  0.0379  0.1778 -0.2805
 6939W        W23200   7.790   4.014  15.338  0.2709  0.0567 -0.0106
 6940W        W23201  11.620   0.593  14.353 -0.1749 -0.0722 -0.1158
 6941W        W23202   5.070   2.976   0.739 -0.2226  0.2837 -0.1714
 6942W        W23203  11.609   3.568  13.622  0.1062  0.0703 -0.0305
 6943W        W23204  10.376  16.196   0.606 -0.1029  0.1552  0.0920
 6944W        W23205   1.964  12.263  13.273 -0.1456  0.0347 -0.2331
 6945W        W23206   2.712  15.249  13.116  0.1870 -0.1286 -0.0315
 6946W        W23207   9.340  14.811   0.858  0.0852 -0.0998  0.0190
 6947W        W23208  10.101   4.037  12.197 -0.2073  0.0438  0.0720
 6948W        W23209  14.154   0.335  13.349 -0.0862  0.2745 -0.2316
 6949W        W23210  11.135   0.074   5.250 -0.0435  0.0279  0.0985
 6950W        W23211   3.717   4.745   4.106 -0.1473  0.1120 -0.1094
 6951W        W23212   8.626  14.775  15.918 -0.3269 -0.1162  0.0041
 6952W        W23213   1.109   7.538   2.048  0.2039  0.0239 -0.3037
 6953W        W23214   9.655  14.462   0.932 -0.1117  0.1184  0.1021
 6954W        W23215  15.010  11.754  14.691 -0.0443 -0.0683  0.2597
 6955W        W23216   7.066  11.467  13.725 -0.0463 -0.0668 -0.1549
 6956W        W23217   9.032  10.037  12.484  0.0758 -0.1325 -0.2316
 6957W        W23218  13.456  12.110  15.316  0.1978  0.3851  0.2367
 6958W        W23219   5.973  10.225  14.131  0.1422 -0.1254  0.0218
 6959W        W23220   3.027   0.746  14.921 -0.2670  0.0210  0.2200
 6960W        W23221  12.307  17.952   5.950  0.0998 -0.0318 -0.0029
 6961W        W23222   8.409  11.804   1.852 -0.2978 -0.1891  0.0990
 6962W        W23223   2.065   8.610   6.115  0.2007 -0.3485  0.0858
 6963W        W23224   5.356   4.866  12.378 -0.0424  0.1321 -0.0230
 6964W        W23225   2.720   9.178   6.356 -0.1948 -0.0150 -0.1910
 6965W        W23226  18.177  16.261   4.407  0.1474  0.1245 -0.1165
 6966W        W23227  15.669  17.788  12.028  0.2341  0.0951 -0.4354
 6967W        W23228  17.846  13.298   5.614  0.2324  0.3059 -0.0164
 6968W        W23229  13.689   1.379  16.043  0.0299 -0.1545  0.2886
 6969W        W23230   6.026   6.845  16.374 -0.2228  0.1058  0.0659
 6970W        W23231  10.486   1.122   2.837  0.2337  0.0041 -0.2540
 6971W        W23232   6.809  14.414   0.097  0.2276 -0.3090 -0.0113
 6972W        W23233   3.136   0.089   5.944  0.1900  0.1883  0.3888
 6973W        W23234  16.236  14.101  10.879 -0.0518  0.3074  0.1041
 6974W        W23235   6.056   3.713   5.246  0.1509 -0.0266 -0.1122
 6975W        W23236   4.173   7.761  16.597  0.0881 -0.2379  0.2714
 6976W        W23237   9.932   6.226  14.752  0.3457  0.3754 -0.0606
 6977W        W23238   3.409   4.994  13.260  0.0505  0.1739 -0.0354
 6978W        W23239  16.062  13.160  15.204 -0.0548 -0.1262 -0.0832
 6979W        W23240  17.317   4.835  16.229  0.1619  0.0258  0.2348
 6980W        W23241  14.851  12.944  14.807 -0.1691 -0.0835  0.4527
 6981W        W23242   3.478   6.059  11.888  0.0516  0.1399 -0.0702
 6982W        W23243  16.080  13.658   4.445  0.0782  0.1417 -0.1374
 6983W        W23244  17.986  16.891   0.457 -0.2257  0.1264  0.0794
 6984W        W23245  11.111  13.056  14.060 -0.1376  0.1227 -0.4004
 6985W        W23246  14.610  15.107   2.808 -0.0992 -0.0034  0.1068
 6986W        W23247   1.527  12.765  14.005  0.2994 -0.1005  0.1803
 6987W        W23248   1.015  14.944   2.778  0.0839 -0.0616  0.0824
 6988W        W23249   0.622  15.795   1.080  0.3027 -0.0708  0.1511
 6989W        W23250   4.377  17.219  15.208  0.3220  0.1056  0.2470
 6990W        W23251  13.404  13.762   3.589  0.2601 -0.0904  0.0031
 6991W        W23252  17.948   8.368   2.761 -0.0038 -0.0721 -0.0948
 6992W        W23253   4.153  15.506   2.065  0.1536 -0.1738  0.1977
 6993W        W23254   1.553  14.398   1.149  0.0206 -0.0512  0.1205
 6994W        W23255  14.080  17.896   0.037  0.0268  0.1511  0.1923
 6995W        W23256  16.257  10.893   4.575 -0.3050 -0.1420  0.2491
 6996W        W23257   6.635  12.591   4.152  0.2503 -0.2105  0.1859
 6997W        W23258   9.084  11.540  12.042 -0.0467  0.1183  0.1460
 6998W        W23259   8.234   9.514   4.070 -0.0385 -0.1228 -0.1595
 6999W        W23260   5.302  11.251   3.603  0.1403  0.2828 -0.0311
 7000W        W23261   7.328  17.244   2.180  0.0936  0.1585 -0.0459
 7001W        W23262   7.237   7.296  15.489 -0.0892 -0.0359 -0.2136
 7002W        W23263   5.676  12.955  14.920 -0.0504  0.2059  0.3990
 7003W        W23264   0.225   9.778  14.129 -0.2515  0.0040 -0.3223
 7004W        W23265   6.124   5.786   2.928 -0.1179 -0.3718  0.4308
 7005W        W23266  12.033   3.048   4.397 -0.0723  0.0322  0.1312
 7006W        W23267   3.660  12.142   3.592  0.0115 -0.3604  0.0858
 7007W        W23268  17.704   8.786   4.724 -0.1067 -0.0300 -0.0129
 7008W        W23269   2.179   1.996  14.591 -0.4257 -0.1337 -0.1351
 7009W        W23270  11.869  13.322  13.607  0.3929 -0.0491 -0.0017
 7010W        W23271  11.572  15.829  15.386 -0.0255  0.1306 -0.2706
 7011W        W23272  12.484  16.225  15.171  0.1739  0.0413 -0.0280
 7012W        W23273   3.881   1.025  14.569  0.0902  0.1148 -0.1082
 7013W        W23274  10.082   2.889  11.397 -0.0890 -0.0864  0.1501
 7014W        W23275   6.156   5.511  15.331  0.2965 -0.5338  0.0127
 7015W        W23276   0.131   8.833  16.473  0.3030 -0.3061 -0.0273
 7016W        W23277  10.668   0.194   3.021  0.4133 -0.1746  0.4172
 7017W        W23278   6.297  10.325  16.398 -0.0480 -0.3717  0.2101
 7018W        W23279  10.802   0.322  12.045  0.1502 -0.0346 -0.2673
 7019W        W23280   7.945  11.846  14.807  0.1071 -0.0881 -0.1002
 7020W        W23281   8.748   1.465   2.760  0.0307  0.0456 -0.0273
 7021W        W23282   9.089   7.115  16.486 -0.0598  0.1528 -0.0214
 7022W        W23283  17.216  12.632   1.844 -0.1351 -0.4446 -0.0358
 7023W        W23284  16.639  13.923  11.500  0.0977  0.0227  0.3070
 7024W        W23285   2.762  18.145  12.235  0.0788 -0.1265 -0.1734
 7025W        W23286  17.042  15.919  13.805  0.0169 -0.0282  0.0118
 7026W        W23287   5.131  13.417  14.188 -0.1218  0.1342  0.0806
 7027W        W23288   6.997  11.026  13.430  0.0909  0.0107 -0.0278
 7028W        W23289   9.477  12.691   4.055 -0.0218 -0.1215  0.3539
 7029W        W23290   3.758  16.062   0.693 -0.0401  0.2307 -0.3347
 7030W        W23291  14.801   1.224   2.106 -0.1012  0.1918  0.2624
 7031W        W23292   1.410   6.251  12.747 -0.0673  0.2122  0.1772
 7032W        W23293   6.342   3.183   1.639 -0.0519 -0.3724  0.0312
 7033W        W23294  11.097   5.207   0.510 -0.0287 -0.1277  0.1584
 7034W        W23295  11.030  11.931   5.129  0.1142 -0.0316 -0.0047
 7035W        W23296   8.691  17.972  12.911  0.1655 -0.0419  0.4399
 7036W        W23297   3.220   0.402  14.547 -0.1117 -0.1553 -0.2852
 7037W        W23298   2.459   8.849   0.798 -0.0613 -0.0902 -0.1245
 7038W        W23299   7.849   6.446   4.294 -0.0859  0.1208 -0.0274
 7039W        W23300  16.519  17.919  12.192 -0.1339  0.0219 -0.1126
 7040W        W23301   7.343   6.056   4.591 -0.0541 -0.0908 -0.1094
 7041W        W23302   0.053   2.463  14.396 -0.0449 -0.0741  0.2068
 7042W        W23303  10.197  10.181   2.269  0.0978 -0.2322  0.2152
 7043W        W23304   0.834   9.027  15.075  0.1500 -0.0096  0.1842
 7044W        W23305  14.870  15.685  14.632  0.2966  0.0607  0.2369
 7045W        W23306  13.518   0.077  15.821  0.3798  0.1715  0.1448
 7046W        W23307  11.924  17.155  16.384 -0.2517 -0.3152 -0.1188
 7047W        W23308  11.484  12.692  14.215  0.0407 -0.0110  0.1559
 7048W        W23309  12.242   9.681  13.764 -0.1685 -0.0147 -0.3136
 7049W        W23310  16.919  17.044  15.923  0.0269 -0.4081 -0.1543
 7050W        W23311   4.084   1.605   4.933 -0.0307  0.2428  0.2634
 7051W        W23312   1.892   3.933  14.718 -0.2530 -0.4460  0.0870
 7052W        W23313   9.666   1.698  11.266  0.1509 -0.0903 -0.3084
 7053W        W23314  14.749   8.473   0.122 -0.0175  0.0090 -0.0833
 7054W        W23315  11.249  15.404  15.644 -0.5055  0.1700 -0.0641
 7055W        W23316   2.689   6.047   3.236  0.0533  0.3143  0.2154
 7056W        W23317   9.079   7.893  16.307 -0.0716  0.2039 -0.0013
 7057W        W23318   5.137  17.600   2.519  0.0582 -0.1222  0.0843
 7058W        W23319   1.510   9.340  12.389  0.2025  0.1390  0.1018
 7059W        W23320   9.862  15.979  13.900  0.2842 -0.1018  0.0999
 7060W        W23321   9.972  10.826   2.290  0.0605 -0.2295 -0.0384
 7061W        W23322  14.749  12.004  12.127 -0.0735  0.1309 -0.4212
 7062W        W23323   8.126  13.302  13.407 -0.5024  0.1245  0.1477
 7063W        W23324  14.954  18.092  11.326 -0.2803  0.1079 -0.1841
 7064W        W23325   7.142   3.622  16.248  0.4052 -0.0004  0.1893
 7065W        W23326   3.837   7.668   5.801  0.2130  0.0151 -0.2499
 7066W        W23327   4.759   6.699  13.048  0.0554 -0.1074  0.1850
 7067W        W23328  13.936   5.141  15.526  0.0052 -0.1601  0.0679
 7068W        W23329   2.069  12.812   3.305 -0.2026  0.2767 -0.2175
 7069W        W23330  15.066   7.150  16.135  0.0377  0.0729 -0.1634
 7070W        W23331  14.134  16.580  16.016  0.2554  0.1318  0.2478
 7071W        W23332   2.554   2.934   4.696  0.1655 -0.0385  0.2246
 7072W        W23333  11.295  13.140   1.204 -0.0163  0.1167  0.1642
 7073W        W23334   0.414   8.936  14.716  0.0833 -0.2003 -0.2573
 7074W        W23335  13.769   2.985  15.781  0.1666  0.1217  0.1816
 7075W        W23336   3.215   7.010   4.328  0.0503  0.0461  0.0578
 7076W        W23337   2.993   0.958   3.116  0.0557  0.1836 -0.0200
 7077W        W23338  17.313  18.159   3.737 -0.0970 -0.0759  0.2531
 7078W        W23339   9.394   0.885   4.872  0.0898 -0.1221 -0.0485
 7079W        W23340   2.443   0.753   2.251  0.3390  0.1868  0.1099
 7080W        W23341   0.132  10.830   6.309 -0.2817 -0.0967 -0.2787
 7081W        W23342   1.882   1.993   0.875  0.0719  0.2472  0.0204
 7082W        W23343  13.462  12.991  14.792 -0.1812  0.1338  0.1004
 7083W        W23344   7.834   0.582  15.982 -0.2176  0.1006 -0.1217
 7084W        W23345  11.105  16.150   6.156  0.0802 -0.2076 -0.0527
 7085W        W23346  11.341  14.324   5.958  0.2278 -0.5618 -0.2111
 7086W        W23347  10.931   2.026   5.043 -0.3717 -0.1365  0.1317
 7087W        W23348  17.905   1.038  11.484  0.0580  0.1708  0.1280
 7088W        W23349   1.896  10.920   3.845  0.1075 -0.0379 -0.0041
 7089W        W23350   5.558   7.230   1.999 -0.0822  0.2155  0.1811
 7090W        W23351  14.328   7.533  14.531 -0.3020 -0.0066  0.0523
 7091W        W23352   9.347   1.723  13.064 -0.2585  0.2314  0.2358
 7092W        W23353   9.965   6.847  15.083 -0.2547  0.0577  0.0973
 7093W        W23354   5.403   4.001  14.148 -0.1731 -0.0608 -0.2589
 7094W        W23355  11.280   4.310   1.609  0.2336  0.0325 -0.1671
 7095W        W23356  13.006  17.943   2.157  0.0479 -0.2188 -0.1918
 7096W        W23357  15.975   8.544   2.522  0.0321  0.0784 -0.0777
 7097W        W23358   0.343   0.140   4.626  0.0986 -0.4824  0.4141
 7098W        W23359  13.588   0.667  14.956  0.0759  0.1559  0.4176
 7099W        W23360   9.146   7.261   1.365  0.1545 -0.1933  0.4650
 7100W        W23361   9.462   5.145   1.725 -0.0657  0.0482  0.0805
 7101W        W23362  17.695  14.041  16.232  0.4688  0.0977 -0.0469
 7102W        W23363  11.072  11.760   1.948  0.2901  0.0684  0.1936
 7103W        W23364   7.210  11.323  16.309 -0.2081 -0.2927 -0.1279
 7104W        W23365  16.588   1.781  13.430  0.0362 -0.0834 -0.0109
 7105W        W23366  13.034  10.817   2.221  0.0926  0.1350  0.1516
 7106W        W23367   5.109  14.419   5.155  0.0953 -0.3396 -0.0615
 7107W        W23368   3.579   3.276  12.744  0.3473 -0.2770  0.2741
 7108W        W23369  17.165  17.445   4.186  0.2563  0.0787  0.0202
 7109W        W23370   5.013   1.580  14.500  0.0633  0.0408 -0.1817
 7110W        W23371   4.355   7.438  15.321  0.0789  0.1799  0.3204
 7111W        W23372   0.978  15.715   3.891  0.0581  0.3585 -0.0001
 7112W        W23373   0.223  14.142  15.149  0.0001  0.1334  0.0039
 7113W        W23374   2.139   6.900   5.218  0.1799 -0.0295 -0.0383
 7114W        W23375  13.389   8.912   1.691 -0.1781 -0.1167  0.2850
 7115W        W23376   7.661  16.370  12.990  0.3660 -0.1942 -0.2957
 7116W        W23377   9.800  17.370  12.451  0.2494  0.0865 -0.2001
 7117W        W23378   9.900   8.579   4.697 -0.0971  0.2210 -0.1377
 7118W        W23379  13.585   0.308  13.671 -0.4235  0.0393  0.1077
 7119W        W23380  14.820   6.337   1.600 -0.3275  0.3134 -0.1964
 7120W        W23381  11.931   2.584   2.513 -0.0586 -0.0017 -0.0738
 7121W        W23382  13.251   3.766  14.679 -0.0684  0.2540  0.2165
 7122W        W23383  12.079   2.988   0.154 -0.0210  0.1916 -0.4544
 7123W        W23384   6.847  15.297   0.418  0.0393  0.3806  0.1016
 7124W        W23385  11.917   4.860  13.609 -0.1317  0.0185 -0.0317
 7125W        W23386  11.720  11.692   3.928 -0.0342  0.0723  0.1240
 7126W        W23387  14.679  12.482   5.201  0.0633 -0.1285 -0.1040
 7127W        W23388   1.111   3.223   4.028  0.0549  0.0485  0.0767
 7128W        W23389  14.947  15.775   0.753 -0.2359 -0.2965  0.3244
 7129W        W23390  10.794   3.055   4.202  0.2460 -0.0541 -0.0544
 7130W        W23391   9.965  10.227   5.517 -0.1858  0.1829 -0.0583
 7131W        W23392   4.126   4.398   5.864  0.0529  0.4235 -0.5200
 7132W        W23393  11.196  10.728  13.218 -0.3328  0.1433 -0.3830
 7133W        W23394  15.145   2.384   3.028  0.3180  0.0325  0.1128
 7134W        W23395   2.909  13.583   3.602 -0.2647 -0.1515 -0.0483
 7135W        W23396   8.568  11.850   2.514 -0.1491  0.0047 -0.1654
 7136W        W23397  11.258  11.686   0.751 -0.0663  0.3412 -0.3003
 7137W        W23398   1.756  12.305   4.640 -0.4042  0.0991 -0.1389
 7138W        W23399  15.464  11.501  16.398  0.1437  0.1995 -0.0048
 7139W        W23400  15.866   8.124  14.931 -0.0723 -0.1581 -0.2282
 7140W        W23401  13.228   4.322  13.772  0.0866 -0.3545 -0.3093
 7141W        W23402   9.836   3.842  14.811  0.1445 -0.1090  0.2883
 7142W        W23403   0.800   2.531   3.584 -0.2333  0.3146  0.0532
 7143W        W23404   3.391  14.541  15.084 -0.0873 -0.1507 -0.0149
 7144W        W23405   7.683  14.714  14.606  0.1428  0.0249  0.2562
 7145W        W23406   4.946  11.172   3.986 -0.1089 -0.0346 -0.1953
 7146W        W23407   8.210   4.001  13.808 -0.0214 -0.3128  0.1909
 7147W        W23408   2.646   7.868  11.854 -0.0921 -0.4127  0.0803
 7148W        W23409   0.114  14.011   3.208  0.1024 -0.0227 -0.1198
 7149W        W23410  12.987  12.252  12.862 -0.1519 -0.1493  0.0499
 7150W        W23411   0.645   4.176  11.985  0.0122 -0.0543  0.0061
 7151W        W23412  14.707   4.505   5.977  0.2486 -0.0763 -0.0048
 7152W        W23413  14.601   3.530   2.792  0.0042  0.5928  0.0580
 7153W        W23414   7.835   7.334   3.160 -0.2652  0.0517  0.3026
 7154W        W23415   7.065  14.185  15.876  0.0396 -0.1043  0.0607
 7155W        W23416  12.788  15.438  15.630  0.3374 -0.1910 -0.0306
 7156W        W23417  11.067   8.182  16.390  0.0537 -0.1657 -0.0704
 7157W        W23418  16.301   2.130  11.342  0.1782 -0.2520 -0.1803
 7158W        W23419   5.436   5.363   1.108  0.1922  0.2543 -0.0857
 7159W        W23420  10.177   6.587  11.676  0.2159 -0.2588 -0.1400
 7160W        W23421  15.526  14.032   0.198  0.1537 -0.1528  0.3157
 7161W        W23422   3.372  16.761  15.673  0.3120 -0.1047 -0.2460
 7162W        W23423  15.858   8.863  13.776  0.2185  0.1718  0.2784
 7163W        W23424   8.816  13.444   2.760 -0.0196  0.0927 -0.1777
 7164W        W23425  15.867  11.692  16.193 -0.0076  0.3320 -0.1699
 7165W        W23426  12.436   2.108   0.145  0.0216  0.1395  0.1842
 7166W        W23427  18.063   5.681  13.564  0.0053 -0.1481 -0.3292
 7167W        W23428  11.745  18.110  13.202  0.0502  0.1706 -0.1254
 7168W        W23429   1.369   0.035   2.617 -0.2528 -0.0556 -0.2861
 7169W        W23430  12.765   8.327  13.602 -0.0194  0.2970  0.1929
 7170W        W23431  10.251  12.808  12.549 -0.0142 -0.3783  0.2326
 7171W        W23432  11.462   8.022  12.548  0.1411 -0.1735 -0.2577
 7172W        W23433   3.346  15.596  16.208 -0.3093 -0.0011 -0.2123
 7173W        W23434  10.127   4.578  15.412  0.1920 -0.0358  0.0207
 7174W        W23435   2.645   7.949  13.630  0.1054 -0.3364 -0.0491
 7175W        W23436   7.278  18.106   6.657 -0.1235 -0.0919  0.0639
 7176W        W23437   7.882   0.497   2.945  0.2392  0.1523 -0.0705
 7177W        W23438   9.272   9.540   2.446  0.0274  0.0587 -0.2435
 7178W        W23439   8.017   2.008  11.683 -0.0926  0.1931  0.2269
 7179W        W23440  16.138  14.966   4.342  0.0719 -0.0011  0.1686
 7180W        W23441   7.062  16.551   4.597 -0.0381 -0.0110 -0.1562
 7181W        W23442  17.202  12.554  16.091 -0.1000 -0.4646  0.0496
 7182W        W23443   5.471  12.615  14.614  0.0179  0.1027 -0.3432
 7183W        W23444  15.189   2.840  11.213  0.2040 -0.1929  0.1917
 7184W        W23445   6.933  12.233   4.270 -0.5103  0.0495  0.0154
 7185W        W23446   0.438  13.061   4.635  0.0627  0.2726 -0.2660
 7186W        W23447   5.378   1.124   0.835 -0.1076  0.1208 -0.0309
 7187W        W23448   4.112   4.526  14.060  0.4018 -0.3306 -0.1126
 7188W        W23449   9.776  11.905   0.914 -0.3630 -0.0699 -0.0840
 7189W        W23450   2.833  16.769   3.947 -0.2407  0.2121 -0.2727
 7190W        W23451   7.609   3.670   0.466  0.1188 -0.0720 -0.1018
 7191W        W23452  10.763   1.980  11.687 -0.0429  0.2546  0.0230
 7192W        W23453   7.888   2.376  15.147  0.2893 -0.0670 -0.2793
 7193W        W23454  11.691   6.278  13.503 -0.1824  0.0037  0.1371
 7194W        W23455   1.157   0.424   3.979  0.2931 -0.0960 -0.2265
 7195W        W23456  13.704  16.358  15.113  0.0981  0.2566 -0.2507
 7196W        W23457   0.967  11.178  12.842  0.2496 -0.1380  0.0441
 7197W        W23458  16.892  15.330   2.828  0.4651  0.2180 -0.0622
 7198W        W23459  11.810   8.525   6.187 -0.0144 -0.0992  0.0426
 7199W        W23460  13.849  13.343   0.864 -0.1663 -0.1507  0.2819
 7200W        W23461   5.569  12.159   3.488 -0.1186 -0.2759  0.3153
 7201W        W23462   3.317  12.398   0.692  0.1188  0.1311  0.2104
 7202W        W23463  14.260   2.924   0.675 -0.0752 -0.0746 -0.2445
 7203W        W23464   3.097   2.913  14.980  0.1442  0.0578 -0.0957
 7204W        W23465   8.332   8.531   5.065 -0.0413 -0.2473 -0.0646
 7205W        W23466   8.432   5.220   6.288 -0.1049  0.0619 -0.0353
 7206W        W23467   7.953   7.094  14.413  0.2764 -0.0148 -0.0073
 7207W        W23468   1.232  11.979   2.599 -0.3688 -0.0228 -0.1406
 7208W        W23469   7.157   3.007  15.649 -0.1834  0.0491  0.1952
 7209W        W23470   4.618   4.130  16.050  0.2124 -0.0316 -0.0100
 7210W        W23471  11.171  17.545   4.550 -0.3004 -0.2825 -0.0998
 7211W        W23472  14.332   1.792   4.131  0.2297 -0.0974 -0.2173
 7212W        W23473  10.352  14.375  11.984 -0.1404 -0.2397 -0.0563
 7213W        W23474   7.870   4.702   4.817 -0.1524 -0.2528 -0.2498
 7214W        W23475   8.994   4.968   1.010  0.0329 -0.0875 -0.0020
 7215W        W23476   0.775  13.327  15.577 -0.0147  0.0601  0.1243
 7216W        W23477  11.973   5.318   0.454  0.2312  0.0966  0.0904
 7217W        W23478  10.208  17.713   1.862  0.1026 -0.1810  0.1991
 7218W        W23479  11.660   1.758  11.316  0.3853 -0.0098  0.1232
 7219W        W23480  17.910  11.219   1.358 -0.3515  0.0839  0.1548
 7220W        W23481   8.214  11.774  12.773  0.4556  0.0913 -0.1097
 7221W        W23482  14.261  12.764  15.647 -0.0026 -0.0184 -0.3640
 7222W        W23483   4.806   4.934  15.368  0.0814 -0.1650  0.0676
 7223W        W23484  14.671  17.179   3.278  0.2519 -0.0373  0.2484
 7224W        W23485   9.746   1.869   0.665 -0.0870 -0.0909  0.2349
 7225W        W23486   8.785  11.309   0.833  0.0780  0.0324  0.1519
 7226W        W23487   9.870   0.082  11.700 -0.0567 -0.0822  0.0214
 7227W        W23488   5.241  18.173  13.810  0.0618 -0.0164 -0.2620
 7228W        W23489  16.224  13.223   6.095 -0.0319 -0.2074 -0.2697
 7229W        W23490   3.894   7.424  15.060  0.2104  0.1328  0.2947
 7230W        W23491  10.082   1.311  14.809  0.3092  0.2593  0.1831
 7231W        W23492   3.144  13.762   0.520 -0.3314  0.0310  0.0768
 7232W        W23493   6.855  10.644   0.710  0.1488  0.0366 -0.3471
 7233W        W23494  16.945   9.363   5.212  0.3702 -0.0232 -0.0224
 7234W        W23495   1.033   3.288  12.114 -0.0820  0.0314 -0.0945
 7235W        W23496   5.765   0.637  11.590 -0.0853  0.1175  0.1583
 7236W        W23497  17.881  15.224  12.888  0.0290  0.2403 -0.2089
 7237W        W23498  12.444  12.447   3.451 -0.0153  0.0441 -0.3613
 7238W        W23499  17.132   9.462   3.806  0.1209  0.0295 -0.2003
 7239W        W23500   0.105  11.056   5.788  0.0229  0.1604 -0.0987
 7240W        W23501  17.708   1.706   1.324 -0.1535 -0.0296  0.2710
 7241W        W23502   0.320   9.664  15.457 -0.2958  0.0598 -0.1167
 7242W        W23503  15.587  16.271   6.184 -0.2169  0.0688  0.2287
 7243W        W23504   1.311  16.250  12.687  0.1181 -0.1470 -0.0881
 7244W        W23505   4.344   2.442   1.464  0.2093 -0.1495  0.1158
 7245W        W23506   3.406   2.590   0.316  0.0998  0.3101  0.0623
 7246W        W23507  11.840   5.563  14.309 -0.0930  0.0237  0.0920
 7247W        W23508   1.837  17.502   5.024 -0.0732 -0.1528 -0.0819
 7248W        W23509  16.678   2.301  11.702 -0.0429 -0.2282  0.2529
 7249W        W23510   2.968  13.777   5.459  0.1575  0.2206 -0.3324
 7250W        W23511  14.118   1.332   2.167 -0.2097 -0.4624 -0.1709
 7251W        W23512  15.770  14.393   0.512  0.2825  0.1363  0.0818
 7252W        W23513  17.493   5.101   4.015  0.0462  0.0506  0.1102
 7253W        W23514  13.054   9.071  12.214  0.0193 -0.2663 -0.0089
 7254W        W23515  14.486   0.832   0.767 -0.0483 -0.1241 -0.0650
 7255W        W23516  15.011   3.517   4.492  0.2028  0.2629 -0.0473
 7256W        W23517   0.461  13.975  12.237 -0.0606  0.0470 -0.3693
 7257W        W23518  15.970   7.541  13.616  0.1739  0.1401  0.0976
 7258W        W23519  11.949  12.771  11.330  0.1165 -0.5338  0.1386
 7259W        W23520   6.426   0.608  16.430 -0.2937 -0.1012  0.2159
 7260W        W23521   3.286   1.310   4.416  0.2782 -0.1870  0.0081
 7261W        W23522   1.889  12.578  15.484 -0.0487 -0.0984 -0.0454
 7262W        W23523   9.345   1.863   5.100  0.0426  0.2831 -0.1783
 7263W        W23524  15.108   6.390   3.437 -0.1746  0.4523 -0.0373
 7264W        W23525   8.770  12.175  16.190  0.0570  0.0398  0.0885
 7265W        W23526  17.980   5.131   0.012 -0.1355  0.0664 -0.1080
 7266W        W23527  15.923   5.964  15.352 -0.0975  0.2124  0.0997
 7267W        W23528   8.314   1.845   4.961  0.4083 -0.3645  0.0019
 7268W        W23529   7.841  17.246   2.173 -0.0065  0.1217  0.2239
 7269W        W23530   1.382  14.177  15.880  0.1073 -0.2253  0.1395
 7270W        W23531   8.897   5.128  11.836  0.2971 -0.3448  0.0477
 7271W        W23532  15.193  16.653  12.608 -0.2604  0.1764 -0.0037
 7272W        W23533  12.269   7.019   1.890  0.0469  0.0863  0.0473
 7273W        W23534   2.624  17.995  13.379 -0.0737  0.0921 -0.2226
 7274W        W23535  15.370  11.275  13.139 -0.1913  0.4297  0.1415
 7275W        W23536  15.590   2.039   0.415  0.1168  0.4658  0.2630
 7276W        W23537   0.331  12.286   1.183  0.1003 -0.0443  0.1707
 7277W        W23538  12.722  11.535  14.840 -0.0076  0.0610 -0.2928
 7278W        W23539   8.017   7.342  10.848 -0.0761 -0.0478  0.0936
 7279W        W23540  11.985   2.800  14.244  0.0871 -0.3885  0.0818
 7280W        W23541  15.737  15.431  15.116  0.0249 -0.0951 -0.0974
 7281W        W23542   5.455  15.786  13.097 -0.1942 -0.0754  0.1470
 7282W        W23543   8.221   7.848   0.986 -0.0451  0.1984 -0.1695
 7283W        W23544   8.774   1.311   1.895  0.0440 -0.3957 -0.1382
 7284W        W23545  13.972  13.431   4.192 -0.1523 -0.3712  0.0161
 7285W        W23546  14.696   1.904   2.303 -0.1905  0.2197  0.1189
 7286W        W23547   9.992  12.958  12.979 -0.3311 -0.1677  0.3656
 7287W        W23548   1.400   5.082  12.130 -0.1713 -0.1734  0.2838
 7288W        W23549  15.807   2.764   1.189  0.0155 -0.0981  0.0068
 7289W        W23550   9.440  16.442  14.858 -0.1624  0.0437  0.0125
 7290W        W23551  13.629  11.433  12.592 -0.4798 -0.2259 -0.1896
 7291W        W23552  17.155   8.706  15.218 -0.0631 -0.1901  0.0557
 7292W        W23553  14.829  11.528   1.888  0.1069  0.0794 -0.0697
 7293W        W23554  16.248  17.424   3.809 -0.1140  0.1209 -0.1200
 7294W        W23555  15.262   8.891  16.612  0.0431  0.0980  0.2290
 7295W        W23556  10.177  10.474  15.445  0.1310  0.1119 -0.1606
 7296W        W23557  15.159  17.696  13.780  0.1550  0.3217  0.0336
 7297W        W23558   6.982   3.554  15.756  0.1808 -0.1372 -0.2759
 7298W        W23559  13.339   3.809  11.639 -0.1755 -0.0074 -0.1144
 7299W        W23560   7.543   3.077  13.201 -0.2133  0.2999 -0.2674
 7300W        W23561   0.579   5.620   4.707  0.2610 -0.0311  0.1863
 7301W        W23562   3.719   1.965   1.956  0.2773 -0.0604 -0.3258
 7302W        W23563  13.561  13.299   5.738 -0.0341  0.3688 -0.0319
 7303W        W23564  12.689   4.483  15.979 -0.1133  0.0360 -0.1796
 7304W        W23565  10.240   8.044   3.482 -0.1869 -0.0339 -0.2169
 7305W        W23566   7.753  14.887   5.920  0.0318 -0.0909 -0.0965
 7306W        W23567   9.955   6.397  14.212  0.0498 -0.0664  0.0543
 7307W        W23568  10.490   3.326   4.536 -0.2134  0.0307 -0.2827
 7308W        W23569  17.327   2.528  16.011  0.1664  0.0726  0.0082
 7309W        W23570   9.018  13.499   0.210  0.1508 -0.0202 -0.3439
 7310W        W23571   8.586   0.653   4.944  0.1159  0.0937 -0.0582
 7311W        W23572  17.097   5.281  16.249 -0.2351  0.1474 -0.0212
 7312W        W23573   7.166  17.643   1.857  0.0604 -0.2532  0.0936
 7313W        W23574  16.684  10.655  13.302 -0.1544  0.0597  0.0967
 7314W        W23575   3.598   7.581  11.510 -0.2526  0.1391 -0.2433
 7315W        W23576  12.059   0.838  14.398 -0.1106  0.0156 -0.3033
 7316W        W23577   4.067   0.636  12.489  0.1419  0.0792 -0.2303
 7317W        W23578  13.949   6.971  10.255 -0.2528 -0.0890 -0.2038
 7318W        W23579  14.585  10.535  13.501 -0.0512  0.0268 -0.0726
 7319W        W23580  16.456   3.923   1.707  0.0954 -0.0092 -0.0030
 7320W        W23581   9.290   2.189   4.363  0.0015  0.1489  0.0735
 7321W        W23582   3.974   4.655  16.546 -0.0242 -0.2067 -0.0871
 7322W        W23583  14.605  12.793   0.996 -0.0739 -0.0385  0.1520
 7323W        W23584   5.481  10.334   6.128 -0.1782  0.0837 -0.1129
 7324W        W23585   6.510   5.635   3.186 -0.1374  0.0482 -0.0736
 7325W        W23586  10.935   9.482  13.705  0.0641  0.1563 -0.0717
 7326W        W23587   5.785   3.293   0.368 -0.0825 -0.0759  0.0240
 7327W        W23588  14.091   6.050  14.569  0.1472  0.0317  0.0076
 7328W        W23589  14.039   8.506   3.109  0.0301 -0.0419  0.0679
 7329W        W23590   1.575  17.369  15.543 -0.0016  0.0291  0.2878
 7330W        W23591   4.405   2.863  13.232 -0.1008  0.0424  0.1747
 7331W        W23592   6.901   8.428   3.273  0.0859  0.0449 -0.1961
 7332W        W23593  13.112  11.387  12.277 -0.0723  0.2369 -0.3264
 7333W        W23594   6.518   7.437  12.015  0.2716  0.2309 -0.4080
 7334W        W23595  15.290  16.376   3.923  0.0116 -0.2653 -0.0428
 7335W        W23596   9.584  15.392  13.422 -0.0245  0.2969 -0.2027
 7336W        W23597  15.380  17.474   0.882 -0.1649  0.2997 -0.1686
 7337W        W23598   2.838  10.087   1.441  0.1350  0.0377  0.3333
 7338W        W23599   0.075  16.508   5.231  0.0710  0.2256 -0.1884
 7339W        W23600   3.977   2.671  14.072  0.2608  0.1824  0.1741
 7340W        W23601  17.675  14.951   1.716  0.0547 -0.0253 -0.2211
 7341W        W23602  11.795  15.776   0.265 -0.1612  0.1867  0.3000
 7342W        W23603   0.796   8.140   3.784 -0.0360 -0.0648 -0.2042
 7343W        W23604   6.259  16.813  15.704 -0.3567 -0.0190 -0.0648
 7344W        W23605   3.285   4.465  13.134  0.0239 -0.1212 -0.2973
 7345W        W23606   6.932   4.786  14.684 -0.2118 -0.0711  0.1863
 7346W        W23607   7.075   0.891   2.382 -0.0441  0.1205 -0.2365
 7347W        W23608   3.387  16.414   0.871  0.3076  0.1259  0.0095
 7348W        W23609   8.885   5.377   2.576  0.1699  0.1638 -0.2215
 7349W        W23610   7.871  13.225   3.181  0.1192 -0.1419 -0.0897
 7350W        W23611   7.492  16.819  15.556 -0.1086 -0.1110  0.2589
 7351W        W23612   1.110   0.640   1.755  0.3715 -0.1490  0.4326
 7352W        W23613  11.725   2.772  15.961  0.4270 -0.1335 -0.2348
 7353W        W23614  10.733  16.073  16.100 -0.1275 -0.0878 -0.3290
 7354W        W23615   7.760  11.652   3.246 -0.0519 -0.0526  0.1281
 7355W        W23616   7.897   7.118  12.523  0.1511 -0.4439  0.0666
 7356W        W23617  10.508  15.616   5.650 -0.3985  0.0267  0.1436
 7357W        W23618   4.509  11.813   0.535 -0.1440  0.0610 -0.5321
 7358W        W23619  17.727   3.115  13.905  0.2414  0.0020  0.4362
 7359W        W23620  13.423   4.563   2.766 -0.0784 -0.0556  0.4303
 7360W        W23621   6.000  16.676  14.217  0.1801 -0.1330 -0.1740
 7361W        W23622  16.900  13.508  12.244  0.1017  0.2011  0.0036
 7362W        W23623   4.351   5.785  15.718 -0.0984  0.1596 -0.1399
 7363W        W23624   5.855   3.913  14.971 -0.0615  0.0472 -0.3481
 7364W        W23625  14.878  16.043   2.387  0.2926  0.1883 -0.1279
 7365W        W23626   7.069  13.228  14.854 -0.1782  0.1436 -0.1059
 7366W        W23627   7.893   1.691   1.661 -0.2238 -0.1403 -0.2403
 7367W        W23628  11.898   7.520   4.876  0.1769 -0.0220  0.3978
 7368W        W23629   6.600  11.147  12.145  0.1372  0.1312 -0.0350
 7369W        W23630   8.229   0.481  11.633 -0.0938  0.0644  0.2631
 7370W        W23631   8.648  16.893  12.508  0.0847 -0.0402  0.1301
 7371W        W23632   2.891   1.588   2.241  0.1518  0.0278  0.0214
 7372W        W23633   4.927  10.321   2.646  0.1584  0.0345  0.0546
 7373W        W23634   4.610  13.130  15.183 -0.0203  0.1136  0.0154
 7374W        W23635  13.555   5.587  13.751 -0.2469  0.1661 -0.0072
 7375W        W23636  17.673   3.491   5.556  0.1926 -0.1297 -0.1408
 7376W        W23637   9.641   7.264  12.754  0.0363  0.0681  0.2238
 7377W        W23638   5.779  15.874  15.953  0.0433  0.0492  0.4242
 7378W        W23639   2.227   0.945   5.722  0.1125 -0.0287 -0.3053
 7379W        W23640  16.176  11.588   4.382  0.2391 -0.2411 -0.2228
 7380W        W23641   2.944   1.831   6.388 -0.1020 -0.0244 -0.2501
 7381W        W23642   3.277   9.184  15.036  0.0283 -0.2072 -0.0303
 7382W        W23643  12.762   4.593   1.103 -0.1185 -0.1365  0.0920
 7383W        W23644  16.462  10.137  14.323 -0.0194  0.0714  0.0610
 7384W        W23645   3.775  16.346   2.583 -0.2445  0.1004 -0.0061
 7385W        W23646   9.349  12.318  12.453  0.1460  0.0770  0.2681
 7386W        W23647  17.214   4.048   1.453 -0.0255  0.0849  0.4188
 7387W        W23648  16.418   5.881   2.019  0.0023  0.1566 -0.2001
 7388W        W23649   2.190   1.579   0.791 -0.1136  0.1407  0.2873
 7389W        W23650   6.310   3.755  14.181 -0.0777  0.2207 -0.0898
 7390W        W23651   9.678  11.047   1.227 -0.1687  0.3830  0.1305
 7391W        W23652  10.487   2.453   2.582 -0.2847 -0.0908 -0.0836
 7392W        W23653   7.034   1.287  15.830  0.4166 -0.1781 -0.1691
 7393W        W23654   5.149  12.440   5.637  0.1168  0.2455  0.1210
 7394W        W23655  12.289   9.079  11.799 -0.1054 -0.1247 -0.1377
 7395W        W23656   6.061   7.482   0.417  0.0133  0.3114 -0.2446
 7396W        W23657  15.149   5.491   1.100 -0.2146  0.2082  0.0166
 7397W        W23658  13.843  15.179   2.615  0.4165  0.1119  0.1576
 7398W        W23659   8.026   0.848   3.340  0.0450  0.2922  0.0355
 7399W        W23660   4.632   4.517   4.670  0.0899  0.1187  0.4545
 7400W        W23661   1.206  11.777  13.479  0.0910  0.0383 -0.0416
 7401W        W23662   4.633  17.962   5.524 -0.2172  0.0110  0.1565
 7402W        W23663   9.952  17.727  14.338  0.2497  0.0767 -0.0448
 7403W        W23664  11.175  12.165  16.002 -0.1911  0.2229  0.1373
 7404W        W23665   8.466  16.049  14.095  0.1544  0.0698  0.0983
 7405W        W23666  12.087   6.155  11.989 -0.1301 -0.0788  0.1836
 7406W        W23667   2.550   1.184  14.443 -0.0072  0.1533  0.1724
 7407W        W23668  13.710   9.050  14.883 -0.0374  0.3327  0.5243
 7408W        W23669   7.827  13.769   2.998  0.0758 -0.2191  0.0359
 7409W        W23670  17.848   7.357   5.190  0.1380  0.0985 -0.0463
 7410W        W23671  11.451  12.079   2.081 -0.0135 -0.3015 -0.1154
 7411W        W23672   9.194   4.314   0.164 -0.0521  0.1458 -0.0088
 7412W        W23673   8.594   8.855   1.368  0.0547  0.0681  0.4417
 7413W        W23674  18.069  10.426   0.772 -0.1735  0.0227 -0.0418
 7414W        W23675   0.066  16.982  13.788  0.1525  0.0046 -0.4094
 7415W        W23676   0.104   3.029   3.950 -0.0247  0.1070 -0.2027
 7416W        W23677   4.206  12.748   5.385 -0.1019  0.0541  0.0947
 7417W        W23678  13.783   5.969   4.854 -0.2037 -0.0116  0.0778
 7418W        W23679   8.236   8.151  13.531 -0.0309  0.2358 -0.1681
 7419W        W23680  14.249   1.158   2.959 -0.1606 -0.0556 -0.0359
 7420W        W23681  11.517  14.281   4.366 -0.0717 -0.0097  0.3445
 7421W        W23682   2.271   3.793   4.340  0.3102 -0.2085  0.2243
 7422W        W23683   8.603  13.782  14.583  0.1162  0.0676  0.0785
 7423W        W23684  17.942   3.233  14.857  0.1267  0.2614 -0.2717
 7424W        W23685  16.477  13.139  15.477 -0.4103 -0.1087  0.0058
 7425W        W23686   7.549   2.775  11.940  0.0656  0.0519 -0.1306
 7426W        W23687  16.966   8.875  11.355  0.0624 -0.0856  0.0766
 7427W        W23688  17.926   7.380  16.516  0.2589 -0.3428  0.0569
 7428W        W23689  17.808   2.933   2.225  0.0515 -0.0143 -0.3105
 7429W        W23690   8.062  13.812  14.518  0.3527 -0.2516  0.1391
 7430W        W23691   8.047   4.218  12.155 -0.0394 -0.1354  0.2113
 7431W        W23692   2.313   2.246  13.828 -0.1134  0.3336 -0.0638
 7432W        W23693  10.797   5.115   2.734  0.3590  0.3958  0.3681
 7433W        W23694   3.818   6.563   1.674  0.1097  0.1196  0.1094
 7434W        W23695   1.904  17.038   0.666  0.1801 -0.0358 -0.1072
 7435W        W23696  17.032  18.082  14.798  0.0777  0.1449 -0.2640
 7436W        W23697  12.811  15.811   1.859  0.1641  0.4027 -0.0669
 7437W        W23698   9.236  11.550  12.886 -0.0761  0.1495  0.2570
 7438W        W23699  14.830  10.492  16.219 -0.0635  0.1364 -0.2273
 7439W        W23700  11.657  12.452   4.498 -0.0655 -0.0646 -0.1541
 7440W        W23701   0.038  15.007  11.599  0.1552 -0.0402 -0.2032
 7441W        W23702   7.871  12.576   4.320 -0.1458 -0.0760 -0.2751
 7442W        W23703   5.951   9.793   0.294  0.0666 -0.3477 -0.0663
 7443W        W23704  13.092  15.708  15.863 -0.1726 -0.1324 -0.0318
 7444W        W23705   3.023  16.096   4.443  0.0962 -0.1457 -0.1450
 7445W        W23706  16.409  17.401  12.125  0.1417 -0.2287 -0.0092
 7446W        W23707  12.666  17.424   3.090 -0.0712 -0.0004  0.1087
 7447W        W23708  12.498  14.771   1.725 -0.3443 -0.1361 -0.0502
 7448W        W23709   6.380   8.899   0.849  0.3743  0.2725 -0.2370
 7449W        W23710   8.689   9.548   1.631 -0.2548  0.1027  0.1434
 7450W        W23711  16.905   9.917  14.209  0.0336  0.0734  0.1630
 7451W        W23712  15.858  13.509  12.273  0.0508 -0.0695  0.0490
 7452W        W23713  16.717  17.569  13.956 -0.0050 -0.5321  0.0167
 7453W        W23714  12.825  14.883  12.087 -0.3357 -0.0232 -0.2818
 7454W        W23715   3.742  11.820   5.288 -0.1290  0.1995 -0.4870
 7455W        W23716  14.742   7.528  13.277 -0.2073 -0.2489 -0.0489
 7456W        W23717   5.631   9.962   5.874 -0.1079  0.0868 -0.0300
 7457W        W23718   6.498  10.051  11.586  0.2863  0.4031  0.0329
 7458W        W23719  13.016   9.546   4.124  0.2542  0.0855 -0.0298
 7459W        W23720  13.192   1.219   3.970 -0.1380  0.1120 -0.0311
 7460W        W23721  14.263   9.717  16.204 -0.1896 -0.2637 -0.0698
 7461W        W23722   9.552  14.615  15.899 -0.1224  0.0696 -0.0216
 7462W        W23723  17.918   2.782   2.732 -0.0759  0.2325 -0.5849
 7463W        W23724   8.207   3.521   5.011  0.1298  0.3130 -0.1220
 7464W        W23725  17.738  12.322   0.846 -0.0027 -0.1359  0.0969
 7465W        W23726   9.881  13.232  12.565 -0.0514  0.1567 -0.0577
 7466W        W23727  17.787   4.062  11.894  0.1035 -0.0584  0.3624
 7467W        W23728   2.442  10.182   3.669 -0.2810  0.4118  0.1682
 7468W        W23729  13.204  10.086   4.005  0.2132 -0.4227  0.0422
 7469W        W23730  14.560  12.050   0.379 -0.1805  0.1686 -0.0579
 7470W        W23731   6.299   3.710  16.595  0.0717  0.2282 -0.2406
 7471W        W23732   4.476  10.943  15.107  0.0530  0.1867 -0.0806
 7472W        W23733  10.132   2.358  15.599 -0.0340 -0.1280  0.3333
 7473W        W23734  13.953   0.265  14.530  0.0342  0.1554 -0.4443
 7474W        W23735   4.770  11.349   1.040  0.2807 -0.1776  0.1354
 7475W        W23736   8.148   5.158   0.879 -0.2672 -0.0285  0.0266
 7476W        W23737   9.896   9.284   4.361  0.1854  0.2047  0.3594
 7477W        W23738  17.070   7.374  15.556 -0.0233 -0.2058 -0.0619
 7478W        W23739  12.733  10.489   0.336  0.0018  0.0973 -0.0547
 7479W        W23740   3.215  14.713   1.882 -0.1899 -0.1935 -0.1916
 7480W        W23741  13.432   8.632  12.297 -0.1556  0.1720 -0.1722
 7481W        W23742   8.966   5.530  14.394  0.2379  0.0951 -0.0343
 7482W        W23743   6.615  11.690   1.122  0.0022  0.0352 -0.0771
 7483W        W23744  15.143   1.685  15.029  0.0838 -0.2654 -0.0438
 7484W        W23745  13.334   2.376   4.868 -0.2221 -0.1109  0.3219
 7485W        W23746  16.134  13.529   5.245 -0.0568  0.2789 -0.2402
 7486W        W23747  13.845  12.752   1.565  0.1566  0.0740  0.0464
 7487W        W23748   9.828  14.080   1.858 -0.0576 -0.3583 -0.0890
 7488W        W23749   3.482  14.330   1.956 -0.1901  0.0516  0.3412
 7489W        W23750  11.484   9.320   3.536 -0.0361 -0.2749  0.1192
 7490W        W23751   9.555  18.128  15.856 -0.2080  0.0835  0.1459
 7491W        W23752   5.522   3.156  15.261 -0.0351  0.0802 -0.5401
 7492W        W23753   0.915   0.423  12.892  0.1227 -0.0184  0.1113
 7493W        W23754   5.930   0.553  16.567  0.2025  0.0596  0.1604
 7494W        W23755  12.757   5.181   0.927 -0.1049 -0.1105  0.0691
 7495W        W23756  14.528   4.026   4.396 -0.2332 -0.0706 -0.1663
 7496W        W23757   5.867   0.283   1.398  0.0464  0.1278 -0.3233
 7497W        W23758  17.984   5.833  11.298  0.2730  0.0254  0.1114
 7498W        W23759   0.286  16.713   3.157 -0.2159 -0.0224 -0.1149
 7499W        W23760   0.867  17.517   4.829  0.0994  0.0835  0.3133
 7500W        W23761  17.990  14.615   1.752 -0.1051  0.0629  0.0717
 7501W        W23762   8.230  11.807   4.646  0.1044 -0.0489 -0.0438
 7502W        W23763   7.305  14.277  13.692  0.2049  0.0198  0.1744
 7503W        W23764   4.586   5.370  12.468  0.0253  0.2145 -0.1767
 7504W        W23765   6.356  15.560   3.230 -0.0138 -0.3115 -0.0010
 7505W        W23766   5.946  14.825   0.866 -0.1221 -0.2114  0.2305
 7506W        W23767  13.092   3.522   3.159 -0.1117 -0.4950 -0.2095
 7507W        W23768   0.836   2.816   1.277 -0.1387  0.0420 -0.0615
 7508W        W23769  10.294   6.750  16.523 -0.0881 -0.2067 -0.2607
 7509W        W23770  12.358   0.544   3.692  0.3615  0.4361  0.0233
 7510W        W23771  16.716  16.134  13.064  0.1609 -0.2643  0.1140
 7511W        W23772  12.539   7.825   4.501 -0.2253  0.0410  0.4319
 7512W        W23773  14.807  14.431   6.439 -0.1232 -0.0869 -0.3159
 7513W        W23774   0.709  15.626   5.414 -0.1503 -0.1840 -0.0526
 7514W        W23775   4.032  13.433   1.890 -0.1096  0.2305  0.0838
 7515W        W23776   4.675  13.301  13.810 -0.2107 -0.1103 -0.1039
 7516W        W23777  14.371  16.476   1.419 -0.1510  0.0157  0.6277
 7517W        W23778   7.068  11.396   2.292  0.0889  0.0865  0.0877
 7518W        W23779  13.075   0.041  14.798 -0.3401  0.1915 -0.2190
 7519W        W23780  12.691  15.643  14.762  0.1732  0.2404 -0.0729
 7520W        W23781   1.201  11.286  13.254  0.1268 -0.0884 -0.0138
 7521W        W23782   4.896  12.362   6.804 -0.4405  0.1215  0.1346
 7522W        W23783   6.246  17.312   0.041  0.3368  0.1298 -0.3060
 7523W        W23784   7.674  10.325   6.411  0.2014  0.1564  0.1002
 7524W        W23785  16.455   0.145  14.145  0.2501 -0.2140 -0.0864
 7525W        W23786  15.156   6.298  11.417 -0.1101 -0.2440 -0.2482
 7526W        W23787   5.911   0.119   5.936 -0.2075  0.2724  0.0450
 7527W        W23788  14.096  12.536  15.108 -0.1589 -0.1714 -0.0376
 7528W        W23789  13.608  16.061  11.401  0.2165 -0.2902  0.2117
 7529W        W23790   8.708  16.578   4.696  0.2681  0.0265  0.0485
 7530W        W23791   2.358   5.306   4.449  0.2880 -0.0902 -0.1868
 7531W        W23792  15.863   9.728  11.739 -0.2858  0.2007  0.2052
 7532W        W23793  11.166   0.359   0.181  0.1441  0.2624 -0.1250
 7533W        W23794   6.469   6.384   1.717 -0.0824  0.0725  0.0150
 7534W        W23795  10.010   8.752  14.734 -0.0074 -0.2360 -0.1505
 7535W        W23796  12.056   8.890  13.589  0.0233  0.3815 -0.2355
 7536W        W23797  17.215  11.696  15.004 -0.1184 -0.0563 -0.2770
 7537W        W23798   7.078   8.193  12.907 -0.0583  0.1318 -0.2693
 7538W        W23799  13.404  11.267   0.163  0.1513  0.1149  0.3502
 7539W        W23800  11.972   8.816  12.493 -0.3778 -0.0492 -0.1542
 7540W        W23801  15.303   2.720   3.843 -0.2707 -0.0526 -0.1203
 7541W        W23802   0.878   2.371  13.343  0.3177 -0.0553 -0.0406
 7542W        W23803  13.235   0.278  12.712  0.2209 -0.1659 -0.1047
 7543W        W23804  13.866   1.438  15.261  0.0013  0.2795 -0.3279
 7544W        W23805  16.877  17.616   4.929  0.0786 -0.1553 -0.0473
 7545W        W23806   4.740   6.747  14.179  0.1083 -0.1362 -0.0134
 7546W        W23807  12.163  13.595   1.819 -0.1111  0.2051 -0.3325
 7547W        W23808   4.186  17.802   0.729 -0.0066 -0.3874  0.2252
 7548W        W23809  11.695  14.800  11.907  0.0068  0.0674  0.0402
 7549W        W23810   4.308   4.694   2.647  0.2241 -0.1275  0.1562
 7550W        W23811   6.591   5.609  14.537 -0.0941  0.5302  0.1962
 7551W        W23812   3.958   2.749   6.351  0.3728  0.0858  0.1093
 7552W        W23813  16.718   4.794   3.450 -0.1314 -0.0520 -0.0200
 7553W        W23814  13.248   1.664  12.970 -0.2488 -0.0396 -0.1169
 7554W        W23815   5.668   1.356   2.528  0.2689  0.4657  0.1919
 7555W        W23816  17.913   2.113  14.157 -0.1250  0.0678  0.0435
 7556W        W23817   6.678   4.315  16.220  0.0043  0.0959  0.5936
 7557W        W23818   9.672   4.767  15.407  0.3357  0.0188 -0.3446
 7558W        W23819  18.194   3.034  12.361  0.3477 -0.3219 -0.1537
 7559W        W23820   8.056  15.368   3.779  0.3609 -0.1173  0.0292
 7560W        W23821  16.366  14.538  16.371  0.1057  0.1592  0.3078
 7561W        W23822   4.280  17.116   5.379 -0.2008  0.0248 -0.0563
 7562W        W23823   2.466  16.769  11.960  0.0239  0.1666  0.1326
 7563W        W23824   9.761  11.480  14.666 -0.1049 -0.4270  0.1543
 7564W        W23825   3.432   9.613  15.225 -0.3111  0.0091  0.2759
 7565W        W23826   2.693   4.947   6.209 -0.2577  0.0190  0.1228
 7566W        W23827  12.245  14.502   4.851 -0.1012  0.0960  0.3209
 7567W        W23828  13.463  11.798  12.170  0.3011  0.3782 -0.0586
 7568W        W23829   6.845  13.078  10.736 -0.1971 -0.1328  0.1963
 7569W        W23830  13.289  10.485   0.456 -0.0609 -0.1882 -0.2443
 7570W        W23831   9.617  13.741   1.519  0.3535  0.1314 -0.0764
 7571W        W23832  17.772   4.831   3.200 -0.0978  0.1596  0.1080
 7572W        W23833  10.219   4.714  14.577  0.2114 -0.0852 -0.2243
 7573W        W23834   8.704  15.285   0.160  0.1152  0.1304  0.1044
 7574W        W23835  13.130  14.372  15.874  0.6398 -0.0393 -0.0255
 7575W        W23836  16.529  18.021  15.274 -0.0444  0.2141 -0.0300
 7576W        W23837  13.113   4.759  15.829 -0.0639 -0.1546  0.1105
 7577W        W23838  10.777   7.881  15.532  0.3619 -0.0576 -0.0134
 7578W        W23839   3.187   0.313   1.636 -0.0781  0.3481  0.2578
 7579W        W23840   2.063  17.945  12.068  0.2126  0.0589  0.1836
 7580W        W23841  12.758  17.642   1.242  0.1409 -0.0322 -0.0301
 7581W        W23842   1.722   5.422  14.479 -0.0753 -0.0822 -0.1835
 7582W        W23843  18.040  12.018   1.050 -0.3892 -0.0899 -0.1426
 7583W        W23844  16.140   4.233   2.173 -0.0467  0.1418  0.0240
 7584W        W23845   8.817  15.138  14.623  0.0248 -0.3093  0.2237
 7585W        W23846   6.085  18.174  14.527  0.0838  0.0422 -0.0893
 7586W        W23847   2.252  11.865   4.687  0.0988  0.1666 -0.2089
 7587W        W23848   7.032  15.402   2.576  0.1331 -0.1507 -0.1710
 7588W        W23849   0.472  18.126   2.136 -0.2522  0.0878 -0.1936
 7589W        W23850  13.105   0.988   0.843  0.0614  0.0136  0.1277
 7590W        W23851   1.050  12.191  14.752 -0.0903 -0.2188  0.0884
 7591W        W23852  15.928  16.233   1.242 -0.2395  0.0521 -0.2340
 7592W        W23853   0.867   7.371  13.839 -0.2709  0.1394  0.0758
 7593W        W23854   4.705  14.601  16.598  0.1413  0.3750  0.2909
 7594W        W23855   8.130   9.722   0.900  0.0305 -0.2892 -0.1996
 7595W        W23856   9.560   0.729  14.185 -0.1217  0.1910  0.0490
 7596W        W23857  14.410   2.354   2.408 -0.0981 -0.0978 -0.1118
 7597W        W23858  14.527  10.518   0.089 -0.0036  0.1615  0.0732
 7598W        W23859   5.246   1.819  15.687 -0.2027 -0.1305 -0.0508
 7599W        W23860  15.256   3.226  14.550 -0.1662 -0.1968  0.0823
 7600W        W23861   5.219   6.083  11.739 -0.1073  0.0328 -0.0116
 7601W        W23862  17.193   0.535  15.436 -0.1946  0.0059 -0.2405
 7602W        W23863   0.218  11.474   3.230 -0.0192  0.2102 -0.2558
 7603W        W23864  10.987   2.192  15.489  0.0607 -0.1123  0.3045
 7604W        W23865   9.586   6.475  15.431  0.1099 -0.2723  0.0160
 7605W        W23866  10.115  16.558   2.324  0.1057  0.0685  0.0704
 7606W        W23867  10.734   0.727   3.255  0.2789 -0.0767 -0.0386
 7607W        W23868  11.550   7.462   2.466  0.2074  0.0255 -0.0726
 7608W        W23869   7.371  10.208   3.969 -0.0653 -0.0930 -0.1745
 7609W        W23870  12.872   2.558  14.114  0.1861 -0.0951 -0.1237
 7610W        W23871  11.144   3.791   5.527 -0.1053  0.0623  0.0014
 7611W        W23872   4.735   1.495   3.678  0.2059  0.0209  0.0141
 7612W        W23873  11.067  15.821   0.931  0.4402 -0.2082  0.1321
 7613W        W23874  14.616  16.428  16.313  0.0733  0.0120 -0.2259
 7614W        W23875  11.428   7.734  15.402  0.0940 -0.1879  0.0200
 7615W        W23876  11.808  12.175   4.106 -0.3568 -0.0123  0.0187
 7616W        W23877  14.190  14.345  12.403 -0.1702  0.1707 -0.2458
 7617W        W23878  11.634  16.627   1.884 -0.4568 -0.2932 -0.3533
 7618W        W23879  16.530   8.927   1.578 -0.0712 -0.0619  0.1604
 7619W        W23880   9.892   6.149  12.070  0.0512 -0.1023  0.1334
 7620W        W23881   5.987  11.006   0.944 -0.0605  0.1125 -0.1360
 7621W        W23882  12.732  12.141  13.335  0.0841  0.1434  0.1757
 7622W        W23883   7.450   4.493   0.931 -0.0943  0.0720  0.0366
 7623W        W23884   8.804  10.689   3.681  0.2910 -0.2895  0.2634
 7624W        W23885  12.715  12.179  14.333  0.0319  0.3086 -0.0813
 7625W        W23886  18.160  15.426  16.454 -0.0955 -0.0961 -0.0037
 7626W        W23887  11.666   0.585   4.580 -0.0198 -0.0871 -0.0832
 7627W        W23888   6.211   2.377  16.321 -0.0583  0.0728 -0.3353
 7628W        W23889  10.867   1.805  13.860 -0.1067 -0.0528 -0.1902
 7629W        W23890   0.624   7.349   2.140 -0.0190  0.2317  0.0035
 7630W        W23891   3.129   5.450   1.797 -0.4672 -0.3716 -0.0611
 7631W        W23892   0.806  12.057  15.287 -0.0406 -0.3443  0.1890
 7632W        W23893   4.542  16.904   2.247  0.4042  0.2408 -0.0116
 7633W        W23894  12.886   9.081   3.352  0.0347  0.1491 -0.0820
 7634W        W23895   1.601   3.032   4.742  0.0865 -0.0815  0.3766
 7635W        W23896  10.207   2.641   0.720  0.1451 -0.3056  0.1255
 7636W        W23897   7.401  16.000  15.871  0.0371  0.0485  0.0774
 7637W        W23898   5.469   5.471  14.731  0.0341  0.0388 -0.0472
 7638W        W23899  13.855  12.685  14.633 -0.2753  0.4719 -0.0830
 7639W        W23900  15.070  14.498  14.822 -0.1515 -0.0344 -0.0450
 7640W        W23901   9.004   4.921   0.495 -0.0169 -0.0148  0.0860
 7641W        W23902  10.385   6.068  14.072  0.2493  0.1214  0.0108
 7642W        W23903   3.131   1.041   6.156 -0.1802  0.2413 -0.2723
 7643W        W23904   1.842   1.501   4.906  0.1253  0.0197  0.3014
 7644W        W23905  12.470  18.175   5.503  0.2706 -0.1251 -0.0402
 7645W        W23906  11.383  17.120   1.796 -0.3939  0.2508 -0.1377
 7646W        W23907   9.031  15.721   0.241 -0.2089  0.3516 -0.0275
 7647W        W23908  12.196  11.539   0.699 -0.1630  0.3850 -0.1778
 7648W        W23909   3.288   1.384  15.837  0.0947 -0.2716 -0.0055
 7649W        W23910  10.189  10.428   0.908  0.0408  0.0236 -0.3389
 7650W        W23911  16.721   1.586   0.900  0.0938  0.2504  0.2784
 7651W        W23912  16.620   4.461  14.488 -0.1077  0.3837 -0.0468
 7652W        W23913  17.136   5.250   1.156 -0.1392  0.1700  0.1834
 7653W        W23914   5.619  17.471  14.174 -0.1783  0.2926 -0.2041
 7654W        W23915   1.376   9.460   0.205  0.3136  0.0384  0.0711
 7655W        W23916   6.927   4.590   4.744  0.3082  0.1378 -0.1690
 7656W        W23917  15.520   8.375   2.534 -0.2960  0.0716  0.0353
 7657W        W23918   4.409  18.152  16.102  0.0554  0.0801 -0.0878
 7658W        W23919   1.144   2.470  14.391  0.2191  0.0648 -0.1410
 7659W        W23920   7.370   2.014  11.812 -0.0597  0.2063 -0.0882
 7660W        W23921   4.791   7.669  13.491  0.1318  0.1181  0.1821
 7661W        W23922   6.409   7.263  13.921  0.0244  0.0690  0.3171
 7662W        W23923   1.575   3.365  14.654  0.3952  0.1273 -0.2211
 7663W        W23924   5.965   8.836  13.578  0.0238 -0.2271 -0.0013
 7664W        W23925   6.237   4.603  13.550  0.0076  0.2693 -0.0242
 7665W        W23926   2.828   9.299  16.618  0.2852 -0.3968 -0.0954
 7666W        W23927  15.786   9.664   5.191 -0.1368  0.3143 -0.2167
 7667W        W23928  16.550   2.516  12.526  0.1775 -0.0293 -0.0729
 7668W        W23929   0.310  10.103   4.153 -0.2380 -0.0687  0.0458
 7669W        W23930   7.771   2.832   1.426 -0.0684  0.1530  0.3005
 7670W        W23931   0.024   8.128   3.871 -0.2816  0.4267 -0.0152
 7671W        W23932   0.168  10.992   0.938 -0.1210  0.1697 -0.0012
 7672W        W23933  15.637   5.714   0.812  0.1919  0.0238  0.2382
 7673W        W23934   5.177   5.699   2.903  0.0802 -0.1338  0.0690
 7674W        W23935   4.584   3.300   0.292 -0.1577 -0.2655 -0.1647
 7675W        W23936   8.633   7.950   3.378  0.0119  0.0395 -0.0450
 7676W        W23937   6.438  14.966  15.130 -0.1677  0.0580  0.3419
 7677W        W23938  13.737   1.708   0.320  0.5609  0.1046 -0.0151
 7678W        W23939   6.506  12.804   0.464  0.0012  0.0524  0.1670
 7679W        W23940   8.291   6.624  15.183  0.0364  0.0758 -0.1591
 7680W        W23941  12.546   8.009   0.878  0.1622 -0.0793  0.1824
 7681W        W23942   4.940   7.136   3.121  0.0339  0.2586 -0.2941
 7682W        W23943   4.092  18.014   2.438 -0.1665 -0.1405 -0.1990
 7683W        W23944  14.846   7.968  11.250 -0.1501 -0.0699 -0.2505
 7684W        W23945  17.337   6.181  13.761 -0.0145 -0.3454  0.1476
 7685W        W23946   6.518   2.038   4.876 -0.1703  0.2200  0.1841
 7686W        W23947  14.769   1.376  15.513 -0.2246  0.0413  0.0187
 7687W        W23948   2.402  16.428   1.274  0.0230 -0.1096 -0.0435
 7688W        W23949  12.816   5.622  12.625 -0.2668 -0.1839  0.1737
 7689W        W23950   5.717   7.843  16.166  0.1060 -0.0657  0.4377
 7690W        W23951   3.746   8.767   1.535  0.1123  0.0138  0.0097
 7691W        W23952   0.140  11.308  12.051 -0.0827 -0.0000 -0.2116
 7692W        W23953   7.689  10.788  11.299 -0.2717  0.1172 -0.1153
 7693W        W23954  16.901   2.052   2.235 -0.3426 -0.1306  0.2023
 7694W        W23955  11.419  14.512  13.099  0.3242 -0.1048  0.0779
 7695W        W23956  14.511   6.439  12.528  0.0247  0.2731  0.0013
 7696W        W23957  16.022   6.215   3.625 -0.0415 -0.0224  0.0464
 7697W        W23958   5.718   7.901  13.543 -0.2469 -0.0737 -0.0537
 7698W        W23959  14.647   4.459  15.878  0.2078 -0.2048  0.0251
 7699W        W23960  13.719  12.752   2.941 -0.0937  0.1799 -0.1138
 7700W        W23961   4.942   6.729   4.128 -0.0172 -0.1470  0.3856
 7701W        W23962   9.734  18.014  13.923  0.0993  0.1181  0.0589
 7702W        W23963  16.315   1.646   2.224  0.1181  0.3520  0.3215
 7703W        W23964   5.499  15.534   0.169  0.0883  0.2835  0.1343
 7704W        W23965   3.923   4.037   1.054  0.2277 -0.1801  0.0913
 7705W        W23966   0.383   5.598   0.990  0.1199 -0.1279  0.0187
 7706W        W23967   2.613  16.053  15.199  0.0119 -0.0068 -0.0870
 7707W        W23968   5.741  16.605   3.030 -0.2899  0.1233  0.0419
 7708W        W23969   1.053  13.757  15.790  0.1299 -0.0249  0.0831
 7709W        W23970   8.358   3.424  12.992 -0.0270 -0.0629  0.0097
 7710W        W23971   8.498   1.048   3.593 -0.0328  0.0289 -0.1641
 7711W        W23972  11.472   4.041  10.560  0.0984 -0.0301  0.0092
 7712W        W23973  13.807   5.854  16.051  0.2638  0.0692  0.3005
 7713W        W23974  15.531  13.977   5.699  0.1411 -0.1791 -0.3005
 7714W        W23975   3.612  10.257  13.572 -0.1437  0.3806 -0.2491
 7715W        W23976  18.061  14.321   1.352  0.1079 -0.1119  0.0304
 7716W        W23977  16.704  14.293   5.572 -0.0679 -0.2198  0.0840
 7717W        W23978   6.687  16.279   1.161  0.1085  0.4423 -0.1004
 7718W        W23979  13.944   6.381  14.100 -0.0264 -0.1919 -0.2504
 7719W        W23980  12.226   9.238   0.740 -0.3832 -0.0450 -0.0455
 7720W        W23981  14.632  11.704   5.285  0.2461  0.2637  0.0954
 7721W        W23982  13.411  16.579   1.800 -0.0244  0.3559 -0.4586
 7722W        W23983  14.206  13.665  15.801 -0.1372  0.0708  0.3984
 7723W        W23984  12.989  12.856   5.105  0.0189 -0.0080  0.0192
 7724W        W23985   3.382   6.210   5.697 -0.1490 -0.0220 -0.1363
 7725W        W23986  17.684   1.909   4.925 -0.1367  0.0982  0.0092
 7726W        W23987  17.215  11.499  16.461  0.2271  0.1709  0.0731
 7727W        W23988  17.094   0.581   4.490 -0.0372 -0.1402 -0.3155
 7728W        W23989   5.452   8.893  13.693 -0.0543 -0.1859  0.0063
 7729W        W23990   7.429  17.311  15.445  0.0557 -0.1247 -0.2824
 7730W        W23991   2.706   5.023   4.649 -0.0764 -0.0541 -0.0554
 7731W        W23992  17.686  16.511  11.451 -0.2596  0.2642 -0.0620
 7732W        W23993  12.149   1.013   3.706  0.3543 -0.0570  0.2861
 7733W        W23994  15.157   2.234  10.331 -0.0038  0.1050 -0.1102
 7734W        W23995   3.143  13.164   6.666 -0.2057  0.2957  0.0487
 7735W        W23996   0.754   6.066   5.094  0.1038  0.0296  0.1452
 7736W        W23997   6.871  14.869   4.340  0.2790 -0.0064 -0.0004
 7737W        W23998   8.631   0.250   2.374  0.1462 -0.1430  0.1934
 7738W        W23999   0.684  17.094  12.219  0.1546 -0.1282  0.1066
 7739W        W24000  12.675   3.791   4.264 -0.2408  0.0375 -0.2749
 7740W        W24001   5.167   7.913   3.061  0.2173  0.1751 -0.0237
 7741W        W24002   1.929   3.326  16.270 -0.0966  0.0903  0.1500
 7742W        W24003   5.178   7.951  11.964 -0.0817  0.0281  0.1615
 7743W        W24004   4.985   7.117   5.467 -0.0604  0.0666  0.2055
 7744W        W24005   7.755  17.872   0.966  0.1571  0.0477  0.0289
 7745W        W24006   4.024  13.217   5.810  0.1096 -0.5377 -0.0020
 7746W        W24007  17.616   0.425   5.578  0.2325  0.1649 -0.0766
 7747W        W24008   1.252   5.897  13.422  0.3232 -0.1085  0.1244
 7748W        W24009  18.110   9.330   1.584 -0.1470 -0.1147  0.0552
 7749W        W24010  12.573  17.163   2.632  0.0996  0.0299 -0.2048
 7750W        W24011   3.091   7.142   2.536 -0.0921 -0.0740 -0.0190
 7751W        W24012   7.624   2.296  12.178 -0.1333  0.0547  0.0274
 7752W        W24013  16.917   5.297  11.553 -0.2091  0.0031  0.2288
 7753W        W24014   4.029   3.565   0.890  0.2242  0.0498  0.1566
 7754W        W24015   6.417  15.702  16.564  0.0069 -0.1016  0.0656
 7755W        W24016   6.419  10.913   0.036 -0.3921  0.0718  0.2626
 7756W        W24017  11.625  13.142   5.240 -0.1540 -0.0749 -0.0862
 7757W        W24018   2.376  10.727  14.824  0.0150 -0.0924  0.1850
 7758W        W24019   3.909  16.214   0.229  0.1915  0.0057  0.3446
 7759W        W24020   3.691  10.082   3.584  0.1278 -0.0608  0.0569
 7760W        W24021  11.091   1.966  12.582 -0.1290  0.2641  0.0619
 7761W        W24022  11.566   1.477   1.632  0.1769  0.3591  0.1479
 7762W        W24023   1.176   9.204   0.719 -0.3175  0.0390  0.0845
 7763W        W24024   5.387  16.290  13.152  0.0946  0.2401 -0.1452
 7764W        W24025  10.997  12.139  13.797  0.0121 -0.0006 -0.0777
 7765W        W24026  17.254   2.809  16.430 -0.0655 -0.0040  0.0995
 7766W        W24027   7.441   1.287  13.954 -0.1036 -0.1341 -0.1395
 7767W        W24028   7.946  16.653   4.651 -0.1169  0.2411  0.1319
 7768W        W24029   7.913   7.999  11.345  0.0365  0.1478 -0.3216
 7769W        W24030  17.287   5.562   3.474 -0.0428 -0.0978 -0.1910
 7770W        W24031  11.652  10.411  11.964  0.1911  0.0736 -0.2639
 7771W        W24032   6.638  16.444   4.897  0.0898  0.2092 -0.2518
 7772W        W24033  17.085   7.877  14.412 -0.0597 -0.1041 -0.0846
 7773W        W24034  12.691  17.415   5.133 -0.0200  0.3298 -0.2814
 7774W        W24035   5.035   1.215   1.651 -0.1932 -0.0800 -0.1167
 7775W        W24036   6.612  13.311  14.763  0.2801  0.0922 -0.1109
 7776W        W24037   1.872   8.100  14.018 -0.1098 -0.2080 -0.1437
 7777W        W24038   4.781  16.435   2.081 -0.0045  0.1638 -0.0107
 7778W        W24039   0.428  14.797   6.099 -0.2098 -0.0063  0.2152
 7779W        W24040   5.172   3.512   1.297  0.2304 -0.1924  0.2288
 7780W        W24041  15.345   8.668   4.369  0.2503 -0.0176 -0.1078
 7781W        W24042  14.045   8.299  16.465  0.2406  0.0757  0.0665
 7782W        W24043  12.692   6.510   1.771  0.1780  0.1950  0.2675
 7783W        W24044   3.039   1.166   1.477  0.0198  0.0444 -0.1104
 7784W        W24045   9.950  11.913   1.935 -0.2510 -0.1759 -0.1990
 7785W        W24046  13.708   4.413   1.961 -0.1150  0.0238  0.1826
 7786W        W24047   3.311   4.376   2.035 -0.1673  0.2706 -0.0126
 7787W        W24048  11.423   2.341  12.511  0.2412 -0.0155  0.2111
 7788W        W24049  10.485  12.133  13.604  0.0832 -0.0246  0.2580
 7789W        W24050  15.886  14.166  14.964  0.1578 -0.0749 -0.1460
 7790W        W24051   2.317   7.137  12.083  0.0065  0.1896  0.0098
 7791W        W24052  10.081  15.293  13.444 -0.1403 -0.0976  0.2124
 7792W        W24053   3.648  13.864  12.056 -0.2972  0.0379  0.5173
 7793W        W24054   4.290  15.013  14.974 -0.1108 -0.1311  0.1178
 7794W        W24055  11.869  14.707   4.048  0.3328 -0.2582 -0.1465
 7795W        W24056  10.230  18.010   5.213 -0.4655  0.1096 -0.1630
 7796W        W24057   0.504  15.132   2.674  0.0504  0.1001 -0.0728
 7797W        W24058   4.119   5.737  13.695 -0.1569  0.2055  0.1580
 7798W        W24059   2.207   6.763  14.631  0.0062  0.4708 -0.2866
 7799W        W24060   4.712  18.121   0.844 -0.0992  0.0453 -0.3074
 7800W        W24061   2.344  12.215   5.529  0.0843 -0.1680  0.0091
 7801W        W24062   1.681  12.386  15.077  0.2549 -0.1055  0.0645
 7802W        W24063  11.639   7.833  16.490 -0.1744  0.1774  0.0220
 7803W        W24064   0.697   6.390   1.998  0.4024  0.0772  0.0428
 7804W        W24065  16.972   5.215  13.762  0.3046  0.2450 -0.0258
 7805W        W24066  11.550  10.754   0.625  0.3049 -0.3121 -0.1321
 7806W        W24067  10.080   4.776  12.639  0.2190  0.0406  0.0135
 7807W        W24068   0.244   3.189   5.357  0.1452  0.0632 -0.0657
 7808W        W24069   7.721   6.402  14.497  0.0016  0.2477 -0.0615
 7809W        W24070   1.578  12.196   3.680  0.0881 -0.2711 -0.2285
 7810W        W24071   1.006   9.765  15.608 -0.1329  0.0505 -0.0522
 7811W        W24072  12.704   5.174   3.705 -0.1218 -0.0861 -0.2511
 7812W        W24073   4.688   4.158   6.265 -0.2291 -0.0206  0.3405
 7813W        W24074   0.494   9.188   4.339  0.0581 -0.0120 -0.2168
 7814W        W24075  16.335   2.550   0.364 -0.2918 -0.1492 -0.0487
 7815W        W24076   5.807   6.376   5.871 -0.1026 -0.1087 -0.0747
 7816W        W24077   2.187   8.226  14.980  0.1783  0.0626 -0.0219
 7817W        W24078   3.008  12.035   2.180  0.4079 -0.0857 -0.0984
 7818W        W24079  17.052   8.519   2.386 -0.1544  0.2073 -0.2933
 7819W        W24080   8.128  10.150  14.322  0.1695  0.0743  0.1333
 7820W        W24081   6.135   7.886   0.020 -0.0399 -0.2414  0.1588
 7821W        W24082  14.077  15.624  16.015 -0.4136 -0.1873  0.3194
 7822W        W24083   1.274   4.264  15.489 -0.0075 -0.1360 -0.1080
 7823W        W24084   9.821  17.495  11.547  0.2668 -0.2834 -0.1703
 7824W        W24085   4.149   1.205   0.825 -0.2117 -0.2995  0.3593
 7825W        W24086  14.116  18.169  11.768 -0.0020  0.2133  0.1471
 7826W        W24087  10.080   7.764  12.626 -0.0922  0.0351  0.0178
 7827W        W24088   8.389   5.454   2.009  0.0160  0.0448 -0.0455
 7828W        W24089   6.845  13.824  15.600 -0.0553  0.1751  0.0851
 7829W        W24090   4.216   3.388   1.673 -0.0673  0.0397  0.2984
 7830W        W24091  13.473   2.520   3.417  0.4967 -0.1290 -0.1271
 7831W        W24092   1.008   8.637   1.433  0.1240  0.1174 -0.0337
 7832W        W24093  12.411   6.974   0.109 -0.0349 -0.0025 -0.2487
 7833W        W24094  15.798  12.297   1.370  0.5186  0.0257 -0.0332
 7834W        W24095   5.845   7.511   1.694 -0.0243  0.2566  0.2442
 7835W        W24096  16.838   8.036  16.001 -0.1254  0.0911  0.3167
 7836W        W24097  14.905  16.693   0.521 -0.1565 -0.0996  0.4968
 7837W        W24098  17.224   9.165  16.176  0.1276 -0.1647 -0.1531
 7838W        W24099  10.908  10.062  16.152  0.3497 -0.1068 -0.3725
 7839W        W24100  15.936   1.576  13.470 -0.2004 -0.1748 -0.0388
 7840W        W24101   0.362  10.348   2.189  0.0562 -0.0522 -0.1174
 7841W        W24102   9.408  17.284   0.251  0.1166  0.2274  0.2161
 7842W        W24103  11.849  12.060   4.899  0.1875 -0.0355  0.2468
 7843W        W24104   2.590  14.404  11.442 -0.0325 -0.0974  0.1588
 7844W        W24105   2.112  13.301  14.722  0.1862 -0.1256  0.0131
 7845W        W24106  17.023  16.129   3.961  0.0555 -0.3309  0.3364
 7846W        W24107   1.350   6.421   4.086 -0.0706  0.4452  0.0326
 7847W        W24108   8.390   6.891  14.267 -0.1122 -0.1787 -0.3526
 7848W        W24109   3.166  12.881   0.413 -0.2737 -0.1605 -0.3110
 7849W        W24110   6.107  15.060  15.996 -0.0899  0.4604  0.0479
 7850W        W24111  17.396  13.363  14.849  0.0627 -0.0355  0.0987
 7851W        W24112   5.540  16.330  15.759 -0.1011 -0.0514 -0.2117
 7852W        W24113  18.032   0.263   1.406  0.2102  0.1026  0.2856
 7853W        W24114  10.124   5.454   3.471  0.1655 -0.2317  0.1120
 7854W        W24115   3.597   6.163   3.995 -0.0906  0.0873 -0.2698
 7855W        W24116  11.690   1.753   1.163  0.1274 -0.0165 -0.0203
 7856W        W24117   3.236   1.177   0.553 -0.0582 -0.2537  0.3307
 7857W        W24118   8.768  10.375   0.672  0.1926 -0.0704 -0.0695
 7858W        W24119  10.486  15.905  12.847 -0.0785 -0.0838 -0.0985
 7859W        W24120  14.211   8.306   1.241 -0.2782 -0.1065 -0.1332
 7860W        W24121   6.371  13.315  13.479  0.0921  0.0312  0.0943
 7861W        W24122  10.290   3.612   4.980 -0.6652  0.1329  0.2800
 7862W        W24123   9.157   8.310  11.947 -0.0402 -0.0074 -0.0902
 7863W        W24124   7.594   5.625   6.155 -0.1881 -0.3465  0.0754
 7864W        W24125  11.673   3.986  15.695  0.2373 -0.1235 -0.1082
 7865W        W24126   5.070   6.676   1.254  0.1668  0.0237 -0.1043
 7866W        W24127   8.823  15.257  14.017 -0.0351  0.3059 -0.0333
 7867W        W24128   1.768   5.021  13.533 -0.0772 -0.0338  0.0127
 7868W        W24129   9.773  17.679   1.672 -0.2551  0.0135  0.1641
 7869W        W24130   3.835   3.313  11.428 -0.1775  0.1443  0.0699
 7870W        W24131  11.726  17.055   4.935  0.1559  0.0104  0.1722
 7871W        W24132  11.962   7.633   1.686 -0.1433  0.1207 -0.0353
 7872W        W24133   4.868  12.068   5.452 -0.3486 -0.1437  0.1127
 7873W        W24134  14.298  15.511   5.132  0.0198  0.1420 -0.4005
 7874W        W24135  14.734  14.474   3.304 -0.2415  0.3521  0.2580
 7875W        W24136   7.952   4.448  15.572 -0.0017 -0.0610  0.1875
 7876W        W24137  10.536   7.659  10.199  0.2767  0.0843  0.0836
 7877W        W24138  14.172  16.114  16.157 -0.1655 -0.0077  0.1266
 7878W        W24139   3.289   4.601   5.319  0.2342 -0.0229  0.0374
 7879W        W24140  12.663   5.617  16.150  0.0228  0.0556  0.2847
 7880W        W24141   6.482   0.507  15.933  0.1689  0.3714  0.1066
 7881W        W24142   1.657  17.932   5.336 -0.1822 -0.1733  0.1132
 7882W        W24143   5.368  12.443  11.878  0.2342  0.2019 -0.0772
 7883W        W24144   5.775   1.815  15.115  0.1114 -0.2444  0.2427
 7884W        W24145  13.485  11.185   5.477  0.0543 -0.0729  0.0949
 7885W        W24146   6.014   0.960   0.712  0.3121 -0.1952  0.1256
 7886W        W24147   9.674   8.087  16.449 -0.0653  0.0406 -0.2086
 7887W        W24148   6.618  11.674   5.329  0.0507 -0.2074 -0.1538
 7888W        W24149  10.008   6.242   2.183  0.0631  0.2146  0.1307
 7889W        W24150  12.915   6.624   4.080 -0.0036  0.1514  0.1210
 7890W        W24151  11.230   3.298   1.758  0.0109  0.1746 -0.3326
 7891W        W24152   7.010  18.138  14.169  0.0850 -0.3112  0.1689
 7892W        W24153  15.940  15.471   0.644 -0.0917 -0.1995 -0.1025
 7893W        W24154  14.641   4.569  12.826  0.2151 -0.0291 -0.1195
 7894W        W24155  15.027  14.790  12.621  0.2456  0.0550 -0.2476
 7895W        W24156   7.496  11.685  13.933  0.0085 -0.1390  0.1152
 7896W        W24157  15.385   8.576  13.488 -0.2797  0.1526 -0.2162
 7897W        W24158  11.652   9.041  13.272  0.1537 -0.1751 -0.3035
 7898W        W24159   7.055   9.374  12.803 -0.0772  0.2017  0.1279
 7899W        W24160   0.749   9.340   1.950 -0.2093  0.0910  0.1289
 7900W        W24161   2.666  14.704   1.930  0.0669  0.1105 -0.2103
 7901W        W24162   1.012  14.674  13.256 -0.0649 -0.2304 -0.1029
 7902W        W24163  13.152  15.209  12.889 -0.2351 -0.0928 -0.1143
 7903W        W24164   9.788   6.074  16.099  0.2123 -0.1275 -0.1324
 7904W        W24165  11.373  15.902   4.029 -0.1428  0.0627 -0.1962
 7905W        W24166   2.137  10.155  12.115 -0.1464 -0.2476 -0.3020
 7906W        W24167  14.976   8.100   5.670 -0.4675 -0.3041 -0.0248
 7907W        W24168  10.443   9.146  12.639  0.0263  0.0710 -0.0490
 7908W        W24169   7.347   2.804   0.187  0.1514  0.0399 -0.2911
 7909W        W24170  13.919  17.143   0.135  0.3205 -0.0608 -0.0447
 7910W        W24171  14.411   4.982  15.360 -0.2522 -0.2086 -0.1451
 7911W        W24172  14.809  11.854  15.757 -0.0193 -0.2729 -0.4812
 7912W        W24173  14.515   5.394   0.408  0.0902  0.0501 -0.0954
 7913W        W24174   6.559   9.568   4.495 -0.0744 -0.0310 -0.1300
 7914W        W24175   0.733   2.638   1.743  0.2110  0.2102  0.0485
 7915W        W24176  15.832  11.492  13.197  0.1573 -0.1998  0.0247
 7916W        W24177  15.844  16.645   3.252  0.0202  0.0806 -0.3299
 7917W        W24178  13.508  15.280  12.506  0.1947 -0.0645  0.0594
 7918W        W24179  14.487  13.380  11.577  0.0042  0.0627  0.1771
 7919W        W24180   9.192  12.748   1.211  0.1206  0.1639  0.2699
 7920W        W24181   8.139   8.865   1.843  0.1874  0.2087  0.1757
 7921W        W24182  14.194   6.354   2.456  0.3251 -0.1147 -0.0802
 7922W        W24183   9.622  16.440   3.763 -0.0787  0.0681  0.3809
 7923W        W24184  17.177   7.538  16.617 -0.1327 -0.0799 -0.2240
 7924W        W24185   7.413  10.569  12.314  0.0391 -0.0997 -0.1879
 7925W        W24186   5.237   7.483   2.868 -0.0106 -0.0522 -0.0602
 7926W        W24187   1.473  17.229   2.464 -0.1645  0.1305 -0.0697
 7927W        W24188   7.978   5.440   4.039 -0.1382 -0.3141 -0.3647
 7928W        W24189   3.382   3.589   5.133 -0.1107 -0.0290 -0.0889
 7929W        W24190   3.772   8.119   0.150 -0.0621 -0.0885  0.0968
 7930W        W24191  11.623  16.682   0.621  0.3563  0.2226  0.0541
 7931W        W24192   4.068   5.618   3.633 -0.2247 -0.0431 -0.2827
 7932W        W24193  10.262  14.904   5.824  0.0215  0.2276 -0.1694
 7933W        W24194   4.365  17.602   3.852 -0.0145  0.1336 -0.0927
 7934W        W24195  12.816  14.611   0.439 -0.0617 -0.2651  0.2544
 7935W        W24196   9.085   0.125  11.794  0.1690  0.2349  0.1399
 7936W        W24197  13.008   0.057  11.820  0.2508  0.2866  0.0491
 7937W        W24198   0.035   2.384  13.891 -0.3067  0.0073  0.2772
 7938W        W24199   0.209  10.355   5.386 -0.3499  0.0850 -0.3794
 7939W        W24200   5.528   5.587  12.487 -0.0438 -0.0719  0.2349
 7940W        W24201  12.846   3.999   1.944 -0.0345 -0.4048 -0.0489
 7941W        W24202   4.969  10.419   2.161  0.3535 -0.1060 -0.1522
 7942W        W24203   1.344  18.155  13.907  0.0872 -0.0253  0.0024
 7943W        W24204   3.285  13.036  13.124  0.0154  0.2838  0.0502
 7944W        W24205   4.462   2.049  16.308 -0.0404 -0.0937 -0.0605
 7945W        W24206  10.875   2.638   4.980  0.0303 -0.0451 -0.0990
 7946W        W24207  10.380  16.255  13.517  0.2907 -0.0833 -0.0433
 7947W        W24208  17.991   0.131   5.631  0.1657 -0.2065  0.0586
 7948W        W24209   8.238  12.335   4.812 -0.1360  0.3285 -0.2206
 7949W        W24210   8.724   8.442   4.748 -0.2574 -0.1596 -0.2513
 7950W        W24211  15.183   9.456  14.477 -0.0929 -0.0184 -0.0931
 7951W        W24212  16.250  11.493  16.535 -0.1556  0.0255 -0.1398
 7952W        W24213   2.130   3.056   2.630 -0.2412 -0.2857 -0.0172
 7953W        W24214   8.550  16.143  13.236 -0.0980  0.0711 -0.4041
 7954W        W24215   1.850  15.576  12.554  0.0855 -0.1806 -0.4069
 7955W        W24216   8.198  12.630  13.064 -0.1623  0.1091  0.0245
 7956W        W24217  10.377  13.510   1.192  0.0805 -0.0044  0.1893
 7957W        W24218   0.925   8.420  13.271  0.3469 -0.1177 -0.0832
 7958W        W24219   0.270  13.548   4.451 -0.1089  0.2621  0.2015
 7959W        W24220  14.723  10.417   2.791  0.0865  0.1811  0.1524
 7960W        W24221  14.306  17.539  13.700  0.0226 -0.0167  0.2166
 7961W        W24222   4.724  16.688  13.325  0.2301  0.0679  0.2988
 7962W        W24223   9.719   1.615   2.826 -0.2439 -0.3654 -0.0635
 7963W        W24224  12.212   6.504  14.953 -0.1901  0.2133  0.0190
 7964W        W24225   4.644   7.474   0.235  0.1515  0.0192  0.1577
 7965W        W24226  14.889   0.771  14.178  0.0061 -0.2602  0.1191
 7966W        W24227  15.706  14.359   4.665  0.0522 -0.0099  0.1499
 7967W        W24228  13.166   7.054   0.336  0.1124 -0.0859 -0.0493
 7968W        W24229  12.140   7.752  13.796  0.2414 -0.1899 -0.1139
 7969W        W24230  16.869   5.032  15.587  0.2996 -0.3288 -0.3020
 7970W        W24231  14.254   6.879   4.296 -0.1270 -0.4372 -0.0221
 7971W        W24232  17.231   9.432   3.267  0.2099  0.1767 -0.0627
 7972W        W24233  10.978  11.822  12.919  0.0020 -0.0075 -0.3866
 7973W        W24234   2.403  14.528  15.005 -0.0066 -0.0219 -0.0647
 7974W        W24235  12.410  14.880   4.241 -0.1273  0.0414  0.2650
 7975W        W24236  12.755   3.627  15.017  0.0530  0.0973 -0.2344
 7976W        W24237  17.490   6.419  15.028  0.4750 -0.0003  0.1253
 7977W        W24238  12.443  11.325  13.441 -0.1156 -0.0973 -0.2200
 7978W        W24239  17.119  12.075  16.529 -0.2056  0.0770  0.0256
 7979W        W24240  17.938  11.720   1.452  0.1338 -0.0140 -0.2098
 7980W        W24241  13.498   3.121   4.454  0.2160 -0.1197  0.0011
 7981W        W24242  16.136   9.769  14.412  0.0036  0.2575 -0.2369
 7982W        W24243   3.112   0.750  15.829 -0.1004 -0.0321 -0.2854
 7983W        W24244   3.241  17.580   0.021  0.0844  0.0968 -0.0918
 7984W        W24245  13.556  14.876  15.446 -0.0653  0.2000 -0.0641
 7985W        W24246  15.984   2.022   3.977 -0.1990 -0.0086 -0.3124
 7986W        W24247   6.854  17.462   4.976 -0.1226  0.4143  0.2117
 7987W        W24248   3.899  17.763   5.868  0.1457  0.0159  0.0274
 7988W        W24249   7.793   4.000  13.001  0.1986  0.0351  0.1648
 7989W        W24250   5.289   6.557   0.063 -0.1505 -0.0965 -0.3944
 7990W        W24251  13.720   0.790   0.396 -0.1393  0.0841  0.4468
 7991W        W24252  11.098  10.444   1.311 -0.0925  0.1291 -0.2360
 7992W        W24253   3.734   7.736   0.449  0.0648 -0.0829 -0.0572
 7993W        W24254   6.361   7.472  12.471  0.0038 -0.0937 -0.1212
 7994W        W24255  14.950   8.142   1.904 -0.2180 -0.0466 -0.0829
 7995W        W24256   1.392   3.631  15.475 -0.0692  0.1895 -0.1468
 7996W        W24257   9.917   0.353   4.423  0.2264 -0.0918 -0.2637
 7997W        W24258  17.683   9.217   1.165 -0.0619  0.2988  0.0198
 7998W        W24259  17.535   3.521  16.530  0.0485  0.2856 -0.0097
 7999W        W24260  18.171   7.606  11.639  0.0990 -0.0264 -0.0169
 8000W        W24261  15.604   5.488  12.548  0.2074 -0.2061 -0.2096
 8001W        W24262   9.760   6.790  11.377 -0.1759 -0.1465  0.0659
 8002W        W24263   7.865  11.891   1.961  0.0893 -0.0381 -0.1613
 8003W        W24264  13.711   4.820   1.319 -0.2716 -0.1456 -0.0966
 8004W        W24265   1.228   9.012  13.613 -0.1831  0.0836  0.1905
 8005W        W24266  12.812  15.482  11.573 -0.0963  0.4127  0.3978
 8006W        W24267   7.900  17.469  15.493 -0.0111 -0.2875 -0.0486
 8007W        W24268  17.265   2.388  11.850 -0.6202  0.1341  0.1373
 8008W        W24269   7.200   0.417  15.133  0.0052 -0.0677  0.0510
 8009W        W24270   8.421  16.073   4.919 -0.0844  0.0937 -0.0703
 8010W        W24271   7.761   0.623   3.909  0.3155  0.0782  0.1513
 8011W        W24272   8.625   5.879  15.446 -0.1994 -0.2129  0.3950
 8012W        W24273   2.037  12.243   3.669 -0.5141  0.4021  0.0037
 8013W        W24274  13.124  10.819   0.053  0.1283 -0.1619  0.0504
 8014W        W24275  15.968  10.425  14.448 -0.0280 -0.0938 -0.0050
 8015W        W24276   3.251   9.706   1.937 -0.0856  0.0630 -0.0130
 8016W        W24277   4.501  11.104   0.350 -0.1488  0.0213  0.0478
 8017W        W24278   8.897  17.295   2.267 -0.0452  0.0648 -0.1517
 8018W        W24279  15.399  18.118   2.595  0.0149 -0.0706 -0.0946
 8019W        W24280   1.172  10.728  13.277 -0.0639  0.0558 -0.0396
 8020W        W24281   3.347  16.656  16.600  0.0065 -0.0642 -0.0367
 8021W        W24282  17.661  15.965   1.490 -0.2922 -0.0727  0.0754
 8022W        W24283   4.938   6.407   4.718  0.0922  0.0913 -0.0259
 8023W        W24284  17.855  17.532   3.609 -0.2339 -0.1230  0.1706
 8024W        W24285  16.274   0.599   1.192 -0.0951 -0.0532  0.1989
 8025W        W24286   2.918  10.603   2.965 -0.1596 -0.1733  0.3889
 8026W        W24287  11.199   0.057  10.982 -0.2238 -0.1203  0.0516
 8027W        W24288  15.633   5.324  11.543  0.2147  0.0146 -0.0251
 8028W        W24289   0.815  12.546  16.003  0.0659 -0.0742 -0.0084
 8029W        W24290  10.906   5.910  12.383  0.1081 -0.1442  0.0568
 8030W        W24291  15.546  12.962   3.052 -0.0293  0.3545 -0.3991
 8031W        W24292  17.852  10.849   4.501  0.4135 -0.3317 -0.0564
 8032W        W24293   9.338   3.755  12.207 -0.3935  0.2533 -0.1671
 8033W        W24294   9.757  10.229   2.977 -0.1735 -0.2769  0.2664
 8034W        W24295  13.816  17.558  13.620 -0.2597 -0.1455 -0.0102
 8035W        W24296   9.044   7.875   1.447 -0.0854  0.3293 -0.0927
 8036W        W24297   5.576   7.130   2.571  0.6703  0.2950 -0.0252
 8037W        W24298   7.028  15.135  13.835 -0.2349  0.0117  0.3338
 8038W        W24299   9.188  13.839  12.739 -0.0057 -0.1495 -0.1845
 8039W        W24300  10.127   8.787   1.378  0.1143 -0.0540  0.0409
 8040W        W24301  16.859   1.676  12.574 -0.1747 -0.2569  0.1227
 8041W        W24302   3.809  17.065  11.869 -0.1461 -0.0793 -0.0920
 8042W        W24303   7.266   7.405   4.567 -0.0326  0.1231 -0.1069
 8043W        W24304   2.364   0.248   3.472  0.1571 -0.0358  0.2254
 8044W        W24305   5.181   3.877  15.366 -0.1156  0.2722 -0.0756
 8045W        W24306  10.794   0.017   0.047 -0.1249 -0.1380 -0.0447
 8046W        W24307   7.732   5.933   0.399  0.1548 -0.2225  0.2936
 8047W        W24308   5.015   8.871   3.486 -0.1683  0.0462 -0.1647
 8048W        W24309   2.836  10.539  15.974 -0.0867 -0.0988 -0.0462
 8049W        W24310   9.414   5.735   0.551  0.0915  0.0685  0.0704
 8050W        W24311  14.803  13.758   4.045 -0.0735  0.0822  0.2133
 8051W        W24312   8.631  16.703   0.927  0.3656  0.0891  0.4325
 8052W        W24313   3.574   4.934   5.688  0.1665 -0.0400  0.0435
 8053W        W24314  12.681  16.333  12.284 -0.2908  0.3115 -0.0086
 8054W        W24315  11.454   5.407  14.936 -0.1490 -0.1743 -0.0119
 8055W        W24316  16.110  16.699  13.488  0.3198 -0.0305  0.0366
 8056W        W24317   1.267  12.658  12.962  0.0393  0.1972  0.1206
 8057W        W24318   9.561  16.264  12.187  0.1973 -0.4463 -0.1585
 8058W        W24319   0.379   1.922   4.726 -0.1257 -0.0467 -0.1309
 8059W        W24320  14.348   1.198   3.473 -0.1355 -0.2297 -0.1438
 8060W        W24321   4.017  16.434  16.389  0.1075 -0.2422 -0.1537
 8061W        W24322   9.990   6.921   3.880 -0.2240  0.0411  0.1895
 8062W        W24323   5.360  11.735   0.483  0.0348  0.0630  0.0341
 8063W        W24324   1.064   9.044  12.369 -0.1340  0.3496 -0.3673
 8064W        W24325  10.536  17.213   1.185 -0.2554  0.2244  0.0635
 8065W        W24326   6.141   3.573  14.606 -0.1795  0.1256 -0.0026
 8066W        W24327  10.143  11.031   0.985 -0.0527  0.1488  0.2331
 8067W        W24328   1.833   6.893  15.900  0.2536 -0.1095 -0.0340
 8068W        W24329  16.987  16.587   2.615  0.0095 -0.1368  0.0894
 8069W        W24330  17.808  14.758  14.024  0.1513 -0.4890 -0.0548
 8070W        W24331   2.822  16.694  16.375  0.1225  0.3715  0.1948
 8071W        W24332  15.712  13.098   1.823 -0.0088 -0.1498  0.1935
 8072W        W24333   9.376   9.017  13.944  0.2265 -0.2457  0.0504
 8073W        W24334  16.513   5.417   5.242  0.0736 -0.0498 -0.1296
 8074W        W24335  14.935  12.524  13.995 -0.2728 -0.0922  0.1579
 8075W        W24336   7.016  12.352   1.661 -0.0397  0.0279  0.0432
 8076W        W24337  15.480  16.412  11.126  0.1135 -0.0133 -0.2540
 8077W        W24338   9.298  11.117   1.603  0.0186 -0.0365 -0.1117
 8078W        W24339  14.164   4.552  16.644  0.5654 -0.1369 -0.0861
 8079W        W24340   1.735   6.520  13.926 -0.2072 -0.1890 -0.0008
 8080W        W24341  11.809   2.997   1.793 -0.1524 -0.0504 -0.0184
 8081W        W24342   9.860   5.036   3.949  0.1964 -0.2500  0.0481
 8082W        W24343   0.691   8.090  12.988 -0.1881  0.0359  0.1052
 8083W        W24344  12.213  13.793   3.083  0.1472 -0.0051 -0.0693
 8084W        W24345   7.737  12.184  16.362 -0.3446  0.2981  0.0508
 8085W        W24346  16.226   3.396  16.033  0.0089 -0.4193  0.1038
 8086W        W24347  14.453   5.845  15.451 -0.0918  0.0681  0.1788
 8087W        W24348   4.318  16.175  15.322 -0.0490  0.0612 -0.1793
 8088W        W24349  13.675   0.179  11.739  0.1328 -0.0639  0.2736
 8089W        W24350  11.360  13.689  16.079  0.0420  0.0348  0.2892
 8090W        W24351   6.336   6.413   1.021 -0.2741 -0.5467  0.2745
 8091W        W24352   8.573  13.380  15.325  0.2662 -0.0893 -0.1499
 8092W        W24353   5.341   8.092   0.626  0.0322 -0.2381  0.1935
 8093W        W24354   0.067  11.977  14.511  0.0908 -0.2234 -0.3671
 8094W        W24355  13.167  13.523  12.279 -0.1375 -0.0882  0.3317
 8095W        W24356   3.381  13.547  12.354 -0.1512  0.2892  0.0687
 8096W        W24357  11.611  13.101   0.611  0.1685  0.2048  0.1952
 8097W        W24358  10.018  12.457  11.357 -0.0487  0.2838  0.0292
 8098W        W24359   4.015   1.241   2.386  0.0678 -0.1398  0.0772
 8099W        W24360  10.558  14.857  16.607  0.4619 -0.0548 -0.0179
 8100W        W24361   3.568   0.923  15.865  0.3781  0.0389 -0.0795
 8101W        W24362   1.998   8.719   1.022  0.0007 -0.1303 -0.2019
 8102W        W24363  15.408  17.197   5.021 -0.0894 -0.3360 -0.1596
 8103W        W24364  17.129  12.166   1.691  0.0708 -0.2326 -0.1732
 8104W        W24365   1.797   1.872  13.833 -0.2071 -0.0191  0.0043
 8105W        W24366   9.170  16.425  14.439 -0.1215 -0.0455  0.0304
 8106W        W24367   7.035   9.827  15.391  0.1718  0.0864 -0.2115
 8107W        W24368  12.394   8.494   4.839  0.2020  0.1039 -0.0207
 8108W        W24369  13.763   5.588  12.702  0.0997 -0.4238 -0.1642
 8109W        W24370   3.228  17.048   5.090 -0.3790  0.0469  0.0678
 8110W        W24371  16.655  12.337   1.324  0.1802 -0.0570  0.3140
 8111W        W24372  16.921   4.779   2.518 -0.3406  0.0376  0.0835
 8112W        W24373   5.341   9.134  12.756 -0.3179  0.2288 -0.2228
 8113W        W24374   7.693  16.729  11.994 -0.0421 -0.2696 -0.2771
 8114W        W24375   4.696   8.136   2.924 -0.0295  0.4368 -0.0737
 8115W        W24376  12.483   6.689  12.884 -0.2662  0.0755 -0.0794
 8116W        W24377  12.089  15.300   1.541  0.0336  0.1200 -0.0148
 8117W        W24378   0.194   6.352  15.241 -0.1831  0.1064  0.2613
 8118W        W24379  12.760   5.517  15.652  0.1087 -0.2297 -0.1051
 8119W        W24380  13.815   0.541   4.077  0.0923  0.0047  0.4187
 8120W        W24381  10.099  12.414  15.966 -0.1475  0.0799  0.1012
 8121W        W24382   2.978   9.073   4.574  0.0827 -0.1436  0.0242
 8122W        W24383  12.909   6.130   0.480  0.0373 -0.1703 -0.0629
 8123W        W24384  16.828   8.743   5.210  0.0195  0.0044 -0.1127
 8124W        W24385  12.847   5.477   4.226  0.0987  0.0110  0.0236
 8125W        W24386   7.852  11.196  11.731  0.0085  0.1104  0.2240
 8126W        W24387   2.695   3.693   4.547 -0.0106  0.2354  0.2953
 8127W        W24388  15.425  12.612   0.444 -0.3316  0.3421 -0.0034
 8128W        W24389  12.114   6.174   2.984  0.3558 -0.1098 -0.0488
 8129W        W24390  14.322  17.866   3.947  0.0243  0.3463 -0.0068
 8130W        W24391  18.162   9.400  15.161  0.1193 -0.0864  0.1222
 8131W        W24392   4.806  17.260  11.640 -0.2482  0.1511  0.0605
 8132W        W24393   4.892   5.979   3.513  0.0656 -0.0203 -0.0008
 8133W        W24394  11.502   8.218  12.066  0.4601  0.0132 -0.0509
 8134W        W24395  16.123  15.823  10.702 -0.0331  0.0173 -0.3087
 8135W        W24396  14.116   7.743   0.442 -0.1610 -0.1004 -0.1318
 8136W        W24397   4.060   1.193  11.703  0.3095 -0.0328 -0.0399
 8137W        W24398  14.814  11.262  13.637  0.0296 -0.2765 -0.4084
 8138W        W24399   1.451  11.287   3.134 -0.0534 -0.0991 -0.0078
 8139W        W24400   1.316  12.378   0.159  0.1466  0.2230 -0.0959
 8140W        W24401   0.740   5.196  15.493 -0.1096  0.0332 -0.0064
 8141W        W24402  16.304   5.540   6.287  0.2638 -0.1755  0.1094
 8142W        W24403  10.938   3.177  14.840 -0.0152 -0.2337  0.1031
 8143W        W24404  10.759   6.635  11.750 -0.3306 -0.0642  0.0685
 8144W        W24405  13.456   9.978   4.593  0.1956 -0.3180  0.0929
 8145W        W24406   1.737   3.283   4.331 -0.2683  0.0663 -0.0778
 8146W        W24407  16.501   5.800  16.367 -0.2954 -0.1590 -0.0342
 8147W        W24408  12.265   7.527   2.026 -0.2190  0.1256  0.0396
 8148W        W24409   6.283   3.430   5.721 -0.0956  0.0487  0.0746
 8149W        W24410   3.906   0.313  11.560 -0.0638  0.2868 -0.0805
 8150W        W24411  16.649   9.391   4.851  0.2800  0.0311  0.0514
 8151W        W24412   1.717  15.647  14.685  0.2910 -0.4900  0.0269
 8152W        W24413  10.826  16.656   3.194 -0.2723  0.1549 -0.2385
 8153W        W24414  16.335   2.807   1.854 -0.2116 -0.2978 -0.0724
 8154W        W24415  15.945   4.012  15.396  0.0143 -0.1633  0.0457
 8155W        W24416   5.574   1.827   2.258  0.1423 -0.0013 -0.2615
 8156W        W24417   9.242  10.197   5.658 -0.0864  0.0217 -0.0430
 8157W        W24418  17.695   2.405   4.603 -0.0311  0.3171  0.1330
 8158W        W24419  15.357  13.353  12.435  0.0989 -0.2698  0.1440
 8159W        W24420   2.774   7.966  13.117 -0.0208  0.2957  0.3204
 8160W        W24421  16.210  13.624  11.188 -0.3226 -0.0113 -0.1238
 8161W        W24422   5.703   9.189  12.374  0.2259 -0.1808  0.1009
 8162W        W24423   1.455   3.649   6.411 -0.0619 -0.1863 -0.0277
 8163W        W24424   8.733   5.297   5.319 -0.0575  0.1070 -0.4473
 8164W        W24425   0.405   1.163   3.362  0.2811  0.1953  0.2089
 8165W        W24426   6.063  13.744   4.362  0.1319  0.0009 -0.2032
 8166W        W24427   8.298   6.179  12.186  0.2079  0.0422 -0.3957
 8167W        W24428   0.030  14.064   1.798 -0.2645  0.1276  0.3350
 8168W        W24429   4.082   7.334   2.542 -0.1634 -0.1969  0.0221
 8169W        W24430  14.749  11.924  16.615  0.2432 -0.1314  0.3661
 8170W        W24431  12.891   0.342  13.165  0.3313  0.2965  0.3777
 8171W        W24432  16.025  17.712  15.342  0.0625  0.0556  0.2120
 8172W        W24433   6.194   4.230   4.311  0.2884 -0.0888  0.0572
 8173W        W24434  10.063  15.832   0.708  0.2795 -0.1163  0.0132
 8174W        W24435  16.477   2.215   0.712 -0.2134 -0.1464 -0.0780
 8175W        W24436  11.176   9.475   2.151 -0.1700  0.1514  0.2509
 8176W        W24437  16.196  16.914  13.064 -0.0890 -0.3065  0.2382
 8177W        W24438   1.437   3.823   3.555  0.1502  0.1980  0.0839
 8178W        W24439  12.046   5.844   3.650 -0.0703 -0.2607 -0.1747
 8179W        W24440   7.236   2.595  14.314 -0.1478 -0.0524  0.1254
 8180W        W24441   2.437   9.848   1.663  0.1154  0.3185  0.1027
 8181W        W24442   7.125  15.837   2.786  0.1825 -0.0268 -0.1582
 8182W        W24443  12.993  16.583  16.647 -0.1325 -0.2420 -0.0606
 8183W        W24444   0.751  18.139  12.466  0.0772  0.0947  0.1065
 8184W        W24445  11.919   4.569  14.480  0.1175 -0.2268  0.1243
 8185W        W24446   6.947   2.247   0.783  0.1623  0.1650 -0.1395
 8186W        W24447  17.233   1.409  14.125 -0.0924 -0.1854 -0.4632
 8187W        W24448  16.713  15.943  12.177 -0.0638 -0.0481 -0.0764
 8188W        W24449  15.496   5.951  15.098  0.2693  0.2422  0.2576
 8189W        W24450   4.680  11.657   4.671  0.1838 -0.0211  0.2118
 8190W        W24451   2.129  16.299  15.067 -0.2503  0.0535  0.0463
 8191W        W24452   3.428   5.168   0.604 -0.1413  0.0093  0.2454
 8192W        W24453   2.592  11.731  13.959 -0.1003  0.0189  0.0763
 8193W        W24454  15.151   6.799  11.470 -0.1056 -0.1363  0.1077
 8194W        W24455  10.381   7.822   2.190  0.0156  0.0758  0.3387
 8195W        W24456   5.542  14.548  11.831 -0.2958 -0.0199  0.2187
 8196W        W24457  15.862  13.712   3.459 -0.2419  0.0266 -0.0257
 8197W        W24458  17.851  18.173  11.885  0.1822 -0.1910 -0.1359
 8198W        W24459   7.150  17.025   5.825  0.0028 -0.1511 -0.3848
 8199W        W24460   0.780  16.039  15.456 -0.2231 -0.0981  0.0909
 8200W        W24461   6.382   0.670  11.955 -0.1584  0.5390  0.0399
 8201W        W24462  10.737  16.033  14.394 -0.2372  0.2490  0.0283
 8202W        W24463   3.474   4.513  11.425  0.1288  0.1103  0.0722
 8203W        W24464   6.362   0.135  16.355  0.2396 -0.3785 -0.1006
 8204W        W24465  13.567   0.885   1.698  0.1388 -0.1475 -0.3327
 8205W        W24466   0.281  11.749   0.089  0.0498 -0.0392 -0.0269
 8206W        W24467   2.908   0.200  14.951  0.1548  0.0545 -0.3716
 8207W        W24468   5.679   2.109   1.308  0.1056  0.0314 -0.0663
 8208W        W24469   9.935  10.447  14.179  0.0030  0.1270  0.1251
 8209W        W24470   5.680  17.550  12.612 -0.2499 -0.2118 -0.2179
 8210W        W24471  13.080   3.414  11.467  0.0090 -0.1056 -0.3543
 8211W        W24472   5.514  17.721   6.494  0.0936  0.1188 -0.0034
 8212W        W24473  13.870  17.999   3.799  0.0737 -0.0270  0.0218
 8213W        W24474   9.614   0.653   1.848  0.0623  0.1425 -0.2945
 8214W        W24475   5.335   6.827   2.912  0.2178  0.0959  0.0257
 8215W        W24476   2.349  13.010   4.789  0.3070  0.1202 -0.0783
 8216W        W24477  17.817   4.082   3.163 -0.1151  0.2880  0.0581
 8217W        W24478   6.695   6.876   0.214  0.1215 -0.3359 -0.0237
 8218W        W24479  14.976  11.668  13.373 -0.4329 -0.1623 -0.3702
 8219W        W24480   1.456  16.254   3.367 -0.5020  0.0086  0.1663
 8220W        W24481   8.335  15.288  14.100  0.0362 -0.0745 -0.0036
 8221W        W24482   5.301  12.541  12.890 -0.2216  0.1967 -0.1829
 8222W        W24483   6.202  16.278   6.523 -0.0612 -0.2551  0.2543
 8223W        W24484  13.220   7.537  15.057 -0.0895 -0.0997 -0.1397
 8224W        W24485  15.025   9.809   0.806  0.1250 -0.0866  0.2364
 8225W        W24486   5.460   6.183   4.586 -0.2423 -0.0075 -0.1014
 8226W        W24487   8.995  17.274  16.093 -0.0596 -0.0022  0.2341
 8227W        W24488  10.740   6.951  14.860  0.1828  0.1994  0.0192
 8228W        W24489   5.920   1.754  16.450 -0.0153 -0.1200  0.2619
 8229W        W24490   7.782   3.767   3.706 -0.1306 -0.0051 -0.4425
 8230W        W24491   0.364   9.744  13.652 -0.3946  0.1675  0.1356
 8231W        W24492  10.713  14.034  15.453 -0.0294  0.1291 -0.1267
 8232W        W24493   4.312  11.445  15.038 -0.1316  0.0702 -0.4936
 8233W        W24494  11.326  14.670  13.609  0.3618  0.0794 -0.1996
 8234W        W24495  12.962   1.255   3.411  0.0888  0.1773  0.2521
 8235W        W24496  11.594   4.400  10.890  0.0596 -0.1112  0.0940
 8236W        W24497   2.488  10.511  12.246  0.2039  0.2425 -0.0536
 8237W        W24498  13.169  12.717  16.565 -0.0900  0.1086  0.0092
 8238W        W24499  17.398  13.256   5.439  0.3148  0.1985 -0.0806
 8239W        W24500   2.851  11.492   0.307  0.2606  0.2781  0.1218
 8240W        W24501   4.799   5.360   5.331 -0.0772  0.0446  0.3651
 8241W        W24502   2.445   8.850  15.059  0.0679 -0.2198 -0.2744
 8242W        W24503   8.598   6.042   0.909  0.0869 -0.4191  0.2391
 8243W        W24504  15.163   3.703  15.411 -0.1118  0.4042 -0.0799
 8244W        W24505  16.455   5.368  14.131  0.1771 -0.3304  0.1208
 8245W        W24506  13.476  17.441  10.710 -0.2607 -0.0554 -0.0077
 8246W        W24507  13.828  13.248  12.950  0.1950 -0.1885 -0.1787
 8247W        W24508  15.622  17.063  16.317  0.1874  0.0278  0.0629
 8248W        W24509   2.414   8.715   1.297 -0.0531  0.2514 -0.0533
 8249W        W24510  11.050  11.411  14.885 -0.1180 -0.1335 -0.0251
 8250W        W24511   7.144  10.147   2.895 -0.1309  0.1175 -0.0440
 8251W        W24512  11.784  12.263   0.154 -0.1253 -0.4137  0.3088
 8252W        W24513   2.049   2.134  13.385 -0.1738  0.2116 -0.2312
 8253W        W24514   6.498   4.475   3.902 -0.3527 -0.1867 -0.3542
 8254W        W24515  17.210   1.313   2.159  0.0719 -0.3582  0.0167
 8255W        W24516   1.711  17.982   0.743 -0.0155 -0.4091 -0.0789
 8256W        W24517  11.322   2.731   1.804  0.0747 -0.0832 -0.0323
 8257W        W24518   7.185   2.804   3.353  0.0025  0.0057 -0.0429
 8258W        W24519   3.957  12.463  15.210 -0.0300 -0.2759 -0.0402
 8259W        W24520  12.985   9.857   4.593 -0.0082  0.1840 -0.1743
 8260W        W24521  11.747  13.368   4.459 -0.0939  0.2386  0.2944
 8261W        W24522  13.327  18.009  12.847 -0.2914  0.2072  0.0973
 8262W        W24523   5.896   4.234   2.524  0.0529 -0.0177  0.2316
 8263W        W24524   3.107   6.319   3.226  0.1579  0.3633  0.1587
 8264W        W24525  10.107  11.087   1.491  0.2563  0.0883 -0.0346
 8265W        W24526  17.147   9.487  14.061  0.2833 -0.0609  0.0733
 8266W        W24527  17.090  11.661  14.545 -0.1470 -0.1476  0.1046
 8267W        W24528   5.902   8.752  11.644  0.0252  0.0951  0.1158
 8268W        W24529  14.184  15.148  15.822  0.0613 -0.0054  0.0225
 8269W        W24530   8.326  11.938  11.763 -0.2713 -0.2095  0.2483
 8270W        W24531  12.621   0.296   5.080 -0.2115 -0.0774 -0.3892
 8271W        W24532   8.556  17.537   2.833 -0.0708  0.1136 -0.1175
 8272W        W24533   6.805   5.720  12.052  0.1681 -0.1819  0.3641
 8273W        W24534  10.161   0.713   0.390  0.1613 -0.2297 -0.1248
 8274W        W24535  15.371   1.009  16.386  0.2927 -0.0247 -0.1814
 8275W        W24536  17.241   5.242   0.709  0.0005 -0.0608 -0.3232
 8276W        W24537  13.643   4.603  11.197  0.1924 -0.0115  0.3515
 8277W        W24538  12.552  13.785  15.528  0.5051  0.2352  0.0018
 8278W        W24539   7.216  15.886   1.757 -0.2657 -0.0910  0.0659
 8279W        W24540  10.481   6.869   5.255 -0.2556 -0.3372  0.1811
 8280W        W24541  10.621   2.108  15.081  0.2643 -0.0757 -0.0982
 8281W        W24542   4.129  14.194   2.486 -0.0528 -0.0856 -0.0069
 8282W        W24543   3.991  14.657  14.731  0.2675 -0.0978  0.3219
 8283W        W24544   0.826   3.511   4.422  0.0144 -0.1543  0.1982
 8284W        W24545   3.387   8.470  13.708 -0.2130 -0.5410 -0.3304
 8285W        W24546   1.825   1.409  13.987  0.2114  0.2230  0.2248
 8286W        W24547  13.724  13.322  15.974 -0.0248  0.2632 -0.0677
 8287W        W24548  14.373   4.203  13.129 -0.1045  0.1077  0.2955
 8288W        W24549   4.851   4.499   3.615  0.1124  0.1151  0.1219
 8289W        W24550  12.739   9.580  15.493  0.0254  0.1740 -0.0557
 8290W        W24551  11.859  12.288   1.145  0.1875  0.0803 -0.2725
 8291W        W24552  11.181   7.601  12.803  0.0254  0.0109 -0.1062
 8292W        W24553  11.318  12.460  14.756  0.1419  0.0042  0.1921
 8293W        W24554   4.123   6.579  12.428 -0.1493  0.3180  0.1379
 8294W        W24555   4.149  18.040   5.510  0.2012 -0.1188  0.1174
 8295W        W24556   4.506   4.342  12.310 -0.0160  0.1030 -0.1924
 8296W        W24557   6.826   4.798   2.485  0.2857 -0.0711  0.1902
 8297W        W24558  12.683   2.718  12.160 -0.3083  0.2016 -0.0494
 8298W        W24559   4.097   1.556   3.802  0.1116 -0.2130  0.1209
 8299W        W24560  17.915   8.202  14.712 -0.1146  0.0284 -0.1796
 8300W        W24561   4.556  11.529   4.131 -0.3474  0.1025  0.1911
 8301W        W24562   5.225  12.402  13.331 -0.2952  0.0156  0.2752
 8302W        W24563   5.278  17.757  15.679  0.1047 -0.0981  0.3278
 8303W        W24564   8.964  11.117  14.297  0.3582 -0.3318 -0.1817
 8304W        W24565   8.948   4.134  13.414  0.0996 -0.3413  0.2888
 8305W        W24566   3.275   3.829  15.602 -0.0103  0.2706 -0.2122
 8306W        W24567   2.412  16.925   5.552  0.0987 -0.3127 -0.0822
 8307W        W24568  18.082   2.687   0.441  0.3214  0.4011 -0.2185
 8308W        W24569  13.493   0.497  16.472 -0.1510 -0.0151 -0.2840
 8309W        W24570  17.180   1.059  13.754  0.0816  0.1237 -0.1777
 8310W        W24571   2.013  17.839  12.736 -0.0056  0.1148  0.2558
 8311W        W24572   1.983   5.764   5.411 -0.1354 -0.1814  0.2405
 8312W        W24573  16.189   5.668  14.449 -0.0143 -0.0752 -0.1659
 8313W        W24574   6.193   6.370  13.733 -0.0243  0.2063  0.4099
 8314W        W24575   3.920  17.800  13.651  0.0887  0.1020  0.3315
 8315W        W24576   6.465  10.331  13.868 -0.0169  0.1188 -0.2611
 8316W        W24577  16.163  10.456   1.359 -0.0113 -0.2202  0.0773
 8317W        W24578   7.390   4.386   4.879 -0.5308  0.0132 -0.0324
 8318W        W24579  14.883   3.609  11.657  0.2680 -0.0240  0.0837
 8319W        W24580  14.323  14.585  15.287 -0.1111  0.0654  0.0408
 8320W        W24581   4.747  11.500  14.278 -0.0741 -0.2631 -0.0414
 8321W        W24582   4.349  15.349  13.234 -0.4193 -0.1840  0.1311
 8322W        W24583  16.259   0.359   4.555  0.3157 -0.0066 -0.1149
 8323W        W24584  14.891   6.938   1.300 -0.3624 -0.2099 -0.0757
 8324W        W24585   7.833   2.916  15.595 -0.0296  0.0093 -0.1444
 8325W        W24586  12.294   3.108   5.344 -0.1105  0.1390  0.2639
 8326W        W24587   8.932  17.638   1.864 -0.0574  0.0356 -0.0176
 8327W        W24588   9.183   5.031   5.129  0.2404  0.1778  0.2619
 8328W        W24589  11.162   7.325   3.242  0.1346  0.3886 -0.4878
 8329W        W24590  11.327   9.596   3.117 -0.0596 -0.0187 -0.1167
 8330W        W24591  10.789  10.121  11.859  0.2453 -0.3327  0.2456
 8331W        W24592   0.724  13.501   4.507 -0.0283  0.1902  0.0848
 8332W        W24593  11.396  15.498  12.674 -0.1185  0.1119 -0.2329
 8333W        W24594  14.169  10.499  13.149  0.0812 -0.1571  0.0164
 8334W        W24595  14.377   5.300  14.752  0.1736  0.0775  0.1792
 8335W        W24596  15.000   5.336  13.434 -0.0743 -0.0368  0.2773
 8336W        W24597   8.499  10.780   0.124  0.2344 -0.4289 -0.1378
 8337W        W24598  11.238   2.987  15.797  0.1089  0.0446 -0.3050
 8338W        W24599  10.712   3.256   0.260 -0.0625 -0.0533 -0.0795
 8339W        W24600   7.014   3.711  14.093  0.0886 -0.2355 -0.1598
 8340W        W24601   3.521   7.145  13.635  0.0607  0.1442  0.1957
 8341W        W24602   2.013   7.619  16.604 -0.1706 -0.0701 -0.2801
 8342W        W24603   0.770   4.361   3.166 -0.1715 -0.3172  0.0625
 8343W        W24604   8.516   1.864   0.112  0.0013  0.1644  0.0058
 8344W        W24605   0.977   8.844  15.810  0.1089  0.3299  0.1546
 8345W        W24606   0.144   4.078   5.314  0.3450  0.1913  0.0162
 8346W        W24607  14.662   7.976  12.408 -0.2247  0.0790  0.0291
 8347W        W24608  12.078   1.603  12.844 -0.2976 -0.0820 -0.0891
 8348W        W24609   8.156   0.870   0.186 -0.0506  0.0585  0.0408
 8349W        W24610   1.705  16.855  13.960 -0.0693  0.0610  0.0967
 8350W        W24611   5.707  10.607   4.789  0.1581 -0.1083 -0.3313
 8351W        W24612   1.504   2.414   6.288  0.1074  0.1087 -0.1609
 8352W        W24613  15.400  12.768  13.080  0.1753 -0.0375 -0.1471
 8353W        W24614   7.780  15.286  11.915 -0.1803  0.0177 -0.1007
 8354W        W24615  14.880   2.782   1.283 -0.0779  0.1410  0.1492
 8355W        W24616   7.571   3.466  10.614 -0.1178  0.0263 -0.2610
 8356W        W24617   3.346   3.358   1.153  0.0096 -0.0642  0.3254
 8357W        W24618   7.839  11.450  12.567  0.0068 -0.1055  0.0396
 8358W        W24619  10.336  17.003   0.050 -0.2512 -0.2684  0.1943
 8359W        W24620  16.689   8.341   4.139  0.0575 -0.0950  0.1010
 8360W        W24621   2.204   5.441   2.381  0.0409 -0.1562  0.0189
 8361W        W24622  10.309   0.412  12.344  0.0836 -0.2708 -0.2958
 8362W        W24623  13.220   0.643  13.498 -0.2077  0.0243  0.0911
 8363W        W24624  17.860  18.080  16.333  0.1545 -0.1585 -0.0262
 8364W        W24625   6.757  16.621   0.500  0.1890  0.0107  0.2762
 8365W        W24626   2.971  13.607  12.685  0.2921  0.1247  0.0768
 8366W        W24627   0.671   3.591   2.016  0.1401  0.1152 -0.3399
 8367W        W24628   0.404  15.903  14.386  0.3262 -0.2126 -0.0667
 8368W        W24629   9.632  13.248   4.116  0.1152  0.1514  0.0972
 8369W        W24630   0.844   4.790   3.451  0.0510  0.3414 -0.1355
 8370W        W24631   5.661  17.515   2.656 -0.0770  0.0446  0.0710
 8371W        W24632  13.786   5.153  11.751  0.0874 -0.0309  0.0478
 8372W        W24633   0.506   8.571   5.166 -0.2991 -0.1015  0.4721
 8373W        W24634   9.939  16.454  11.946 -0.2131  0.0250 -0.0269
 8374W        W24635  13.651  18.051  15.242  0.0686  0.0811  0.0104
 8375W        W24636  10.603   7.039  14.216  0.2385  0.3647 -0.2470
 8376W        W24637   5.058   2.090   5.698  0.0637 -0.2606  0.0943
 8377W        W24638   3.705  10.993  12.545  0.0110 -0.0826 -0.3009
 8378W        W24639  16.489   4.744  10.596  0.3195 -0.3925  0.0588
 8379W        W24640   3.715   4.494   5.068  0.0667 -0.2084  0.1635
 8380W        W24641   8.506   3.181   4.700  0.0527  0.0899 -0.0221
 8381W        W24642   8.027  14.527   5.619 -0.1427 -0.2763  0.0655
 8382W        W24643  15.006  13.460   3.184 -0.4383  0.1256  0.0018
 8383W        W24644   8.088   0.895   4.862 -0.1001 -0.2253  0.1425
 8384W        W24645  11.169   3.716   2.856  0.2437 -0.1000  0.0098
 8385W        W24646   3.815  10.623  14.822 -0.0381  0.1840 -0.3373
 8386W        W24647   7.428  14.665  11.432  0.0685 -0.1328 -0.1225
 8387W        W24648   2.839   0.463   0.923 -0.3693  0.0485 -0.3694
 8388W        W24649   3.617  16.541   3.500  0.1658  0.1759 -0.1950
 8389W        W24650  10.922  16.337   4.866 -0.4831  0.0287  0.1668
 8390W        W24651  10.392   1.340  15.310  0.0054  0.0524  0.1096
 8391W        W24652   1.684  12.834   2.719  0.2180  0.1751  0.1661
 8392W        W24653  15.461   2.140  15.138 -0.1271 -0.3726 -0.0689
 8393W        W24654   3.605   5.456  14.831 -0.1948 -0.1808 -0.5562
 8394W        W24655  13.526  14.568   4.780 -0.0234 -0.2019  0.2043
 8395W        W24656  16.607   4.775   4.473  0.1338 -0.1368 -0.1242
 8396W        W24657  12.844  17.829  14.672  0.0404  0.0751 -0.2850
 8397W        W24658   1.862   4.677  13.943 -0.0060  0.0489  0.0629
 8398W        W24659   9.205   3.039   0.548 -0.0381 -0.0152  0.1171
 8399W        W24660  14.018  18.046   2.022 -0.1063  0.0080 -0.1183
 8400W        W24661   9.010   8.536  12.379  0.0053 -0.1815 -0.1766
 8401W        W24662  12.799   8.588  14.034 -0.2178 -0.0432 -0.1631
 8402W        W24663   3.302  10.109   1.141 -0.2756  0.1560 -0.2425
 8403W        W24664  14.626   3.364   1.443 -0.0937 -0.0866  0.0173
 8404W        W24665   0.403  17.133  14.790  0.3613  0.3666 -0.1995
 8405W        W24666  14.650   6.575   2.612 -0.1116 -0.0335  0.1971
 8406W        W24667   0.176   2.575   3.699  0.0509 -0.1737 -0.4235
 8407W        W24668   7.586  10.378  13.143  0.1663 -0.4155  0.1966
 8408W        W24669  16.428  17.262  15.993 -0.1862 -0.0401  0.0149
 8409W        W24670   4.412   5.818  12.834  0.0861  0.0288  0.0481
 8410W        W24671   8.210  12.964   0.133 -0.1461 -0.0956  0.0550
 8411W        W24672  13.244  14.399  12.403 -0.2742 -0.0098  0.0186
 8412W        W24673  10.182   1.261  15.909 -0.6005  0.0964  0.1587
 8413W        W24674   2.294   2.162  16.374 -0.0817  0.1856  0.2364
 8414W        W24675  16.577   7.089  12.889 -0.2226  0.0994 -0.1935
 8415W        W24676   4.942  11.687   1.369  0.0689 -0.1725 -0.3485
 8416W        W24677   3.365  17.679   0.969 -0.5053 -0.3025 -0.0528
 8417W        W24678  15.570  15.430  12.202 -0.1473  0.0712  0.1982
 8418W        W24679   9.895   4.907  15.875  0.6877 -0.2124 -0.1279
 8419W        W24680   4.233  13.236  12.777 -0.0261  0.0313  0.0376
 8420W        W24681  15.203  16.013  15.022  0.2026 -0.0546 -0.1612
 8421W        W24682   4.692   9.855   2.540  0.1779  0.0173  0.0247
 8422W        W24683   9.533   3.847  15.182  0.1311  0.3248 -0.0353
 8423W        W24684  16.209   5.485  15.425 -0.0041  0.3333  0.0781
 8424W        W24685   2.149   5.010   3.911  0.1847 -0.2597  0.1248
 8425W        W24686  15.474   1.614   2.817  0.0283 -0.1402 -0.0554
 8426W        W24687   2.469   1.460   5.711  0.1879  0.0116  0.1313
 8427W        W24688  17.787   6.418   2.276 -0.0076 -0.1058  0.0571
 8428W        W24689  16.043   5.077  12.289  0.1374  0.0859 -0.2161
 8429W        W24690   0.903   2.983  14.145 -0.1048 -0.1936  0.0424
 8430W        W24691  12.659  11.898   1.142  0.2190 -0.0066 -0.0716
 8431W        W24692  10.511   4.266  11.921  0.0985  0.0706 -0.2211
 8432W        W24693   7.876  11.135   3.353 -0.0898  0.0566  0.0458
 8433W        W24694   4.382   2.902   3.705 -0.1097  0.0031 -0.0050
 8434W        W24695  15.628  17.502  12.500 -0.3125  0.1257  0.2943
 8435W        W24696   7.479  11.747  16.422  0.0259  0.0422 -0.0937
 8436W        W24697   4.424   5.671   4.739 -0.0962 -0.1300  0.0882
 8437W        W24698   2.805   5.985  13.497  0.0951  0.1661  0.1735
 8438W        W24699   5.710   4.438  14.931  0.0900 -0.0016 -0.3330
 8439W        W24700  17.422   2.892   0.677  0.1498  0.2089 -0.1424
 8440W        W24701   1.372  12.769   0.489 -0.3943  0.0693 -0.2247
 8441W        W24702   4.249   2.791  12.736 -0.0974 -0.1925  0.2633
 8442W        W24703   4.352  12.967  16.108 -0.0590  0.2222 -0.4846
 8443W        W24704  17.130   1.169   4.268 -0.1701 -0.0320 -0.3308
 8444W        W24705  17.043   2.213  12.689  0.2299  0.1637 -0.1301
 8445W        W24706   0.585   9.881   4.892  0.0666 -0.0797 -0.3370
 8446W        W24707  11.919   6.280   4.325  0.2839 -0.0410  0.0281
 8447W        W24708  17.674   6.924   1.423 -0.1439 -0.0131 -0.0147
 8448W        W24709  14.702  14.661   4.168  0.2087  0.0683  0.2147
 8449W        W24710  13.051   2.512  12.526 -0.2310 -0.0651 -0.1478
 8450W        W24711   2.731   0.093  12.885  0.1260  0.0717  0.0818
 8451W        W24712  13.973   3.675  10.794  0.0492  0.1704 -0.1551
 8452W        W24713  15.559  17.117  14.216  0.1203 -0.0997 -0.0232
 8453W        W24714   0.849   4.184   0.910  0.0342  0.3636 -0.2589
 8454W        W24715   3.071  15.520   0.639  0.1102  0.3504 -0.0559
 8455W        W24716   5.620  13.192   3.277 -0.1266 -0.1122  0.1431
 8456W        W24717   9.577  11.204  11.897 -0.0578 -0.2014 -0.1943
 8457W        W24718   9.401  14.209   2.901 -0.0501 -0.2385 -0.1963
 8458W        W24719  10.474   0.963  12.926  0.0609 -0.0433  0.1495
 8459W        W24720  14.509  14.151  16.506 -0.1843 -0.2519  0.1262
 8460W        W24721   1.657   8.110   1.471  0.1473  0.0127  0.1258
 8461W        W24722  12.416   9.249   1.583  0.1077 -0.0874  0.2965
 8462W        W24723   9.397   0.857   5.564  0.0426  0.0646  0.2196
 8463W        W24724   4.818  11.248  15.199 -0.1756  0.2828 -0.0911
 8464W        W24725  15.590   4.541   2.294 -0.0360  0.2552 -0.0920
 8465W        W24726   8.652  11.248  11.829 -0.1365  0.1203 -0.4777
 8466W        W24727  17.798   5.200  16.210  0.0454 -0.0764 -0.1942
 8467W        W24728   5.774  15.586   4.970  0.0293  0.1234 -0.1704
 8468W        W24729  15.116  14.525  15.748 -0.4140 -0.0575 -0.1363
 8469W        W24730   4.601  14.274  12.481 -0.0790 -0.0149  0.1015
 8470W        W24731  17.265   1.971   4.602 -0.0112  0.1537  0.2512
 8471W        W24732   3.676   8.302   4.445 -0.0151 -0.1865 -0.0009
 8472W        W24733  17.640   8.216   3.153 -0.2823  0.1160 -0.1039
 8473W        W24734   1.243  10.185   3.796  0.2310 -0.2125  0.0511
 8474W        W24735  13.634  11.602   3.588 -0.1611 -0.1058 -0.2213
 8475W        W24736  16.177   6.209  15.031  0.1073 -0.1996  0.0641
 8476W        W24737  15.988   3.335   1.694  0.0601  0.2634  0.2103
 8477W        W24738  14.650   7.751   0.472  0.1838 -0.2304  0.1251
 8478W        W24739  14.025  16.374   3.720 -0.2517  0.3377 -0.2963
 8479W        W24740   7.479  14.947  14.075  0.0699  0.0865  0.0834
 8480W        W24741   9.356  16.942   3.058 -0.0032 -0.3010  0.1618
 8481W        W24742   1.763  13.022   5.252 -0.3489 -0.1929 -0.0278
 8482W        W24743   0.622   5.720   3.605  0.0731 -0.0870 -0.0069
 8483W        W24744   1.908   4.103  15.656  0.0679 -0.0629 -0.1394
 8484W        W24745   3.969  16.595  11.109 -0.0490  0.1892 -0.0576
 8485W        W24746   1.431  15.777  15.760  0.1851 -0.1344  0.3101
 8486W        W24747  15.542   2.903  14.212 -0.2074 -0.1903 -0.3717
 8487W        W24748  15.355   4.296   0.717  0.2895 -0.1005  0.0188
 8488W        W24749  16.255   2.926  12.719 -0.4552  0.2551  0.2127
 8489W        W24750   1.085   4.040  11.805 -0.0075 -0.1905 -0.2847
 8490W        W24751   2.649   3.394  12.432 -0.0797 -0.2883 -0.0648
 8491W        W24752  17.494   5.507  14.833 -0.1596 -0.0928  0.0546
 8492W        W24753   6.508  11.468  11.703  0.1422  0.2333  0.2703
 8493W        W24754  11.080   9.555  11.895 -0.1099  0.0733  0.0180
 8494W        W24755   8.432   2.648  14.736 -0.1264  0.4114  0.2091
 8495W        W24756  15.753  14.646   4.232  0.0366  0.1365  0.1517
 8496W        W24757   4.716   2.191   2.160  0.0476  0.1708 -0.2707
 8497W        W24758   6.261   1.830  13.913 -0.0717 -0.0302  0.2217
 8498W        W24759   8.651   3.733   6.255  0.0318 -0.0222 -0.0306
 8499W        W24760  12.338   2.677  13.800 -0.1601 -0.0324 -0.0737
 8500W        W24761  16.191   7.742   1.501  0.1029  0.1225  0.0314
 8501W        W24762  16.266   6.156  14.545 -0.0950 -0.1386  0.2468
 8502W        W24763   0.771  10.255   4.060  0.1889 -0.1080 -0.0832
 8503W        W24764   1.681  11.712   3.900  0.1540 -0.0811 -0.2094
 8504W        W24765   1.316  15.628  16.257  0.0842  0.2032  0.3335
 8505W        W24766   4.186  15.084   5.936  0.1452  0.3262  0.3238
 8506W        W24767   2.499  14.447   5.519 -0.1038  0.2389 -0.0241
 8507W        W24768   9.504   2.151  14.049 -0.1738 -0.0716  0.0223
 8508W        W24769  11.232   0.908   3.323  0.2761 -0.3863 -0.1326
 8509W        W24770   1.314  16.428  13.827  0.0862 -0.1541 -0.0607
 8510W        W24771   4.980  18.090   4.191 -0.0782  0.0666 -0.0039
 8511W        W24772  16.839   6.175   2.099  0.1836  0.1679 -0.3046
 8512W        W24773   1.703  10.137  15.084  0.0993 -0.0392 -0.1487
 8513W        W24774   9.108  15.582  15.964  0.0949  0.1757 -0.2268
 8514W        W24775  17.295  14.481   2.970 -0.0774 -0.3536 -0.1710
 8515W        W24776   6.574   0.076  11.480 -0.2626  0.1401 -0.0472
 8516W        W24777   6.301   2.607   1.518 -0.0510  0.1737  0.2198
 8517W        W24778  15.959  11.576   0.467  0.2653 -0.1747  0.4511
 8518W        W24779   8.615   6.780   5.169 -0.0882  0.0028  0.2239
 8519W        W24780   4.895   0.875   0.609  0.1166  0.1430 -0.0568
 8520W        W24781   8.168   2.949  13.841  0.3416 -0.0394 -0.3098
 8521W        W24782   5.992   9.777  12.517 -0.4601 -0.1558 -0.0534
 8522W        W24783  13.452  17.987   1.868 -0.1863  0.2589  0.2532
 8523W        W24784   2.230   2.828   2.160  0.1137  0.1058  0.1289
 8524W        W24785   7.580   1.177   0.955  0.1906  0.0385  0.1835
 8525W        W24786  15.040  12.226   4.856  0.0141 -0.1567 -0.4371
 8526W        W24787  13.942  14.397   0.616 -0.2253  0.0513 -0.1157
 8527W        W24788  13.551   6.387  13.661 -0.0722 -0.3080  0.1265
 8528W        W24789   0.897  13.047  11.973  0.1420 -0.0042 -0.1677
 8529W        W24790  14.381   1.913  10.340 -0.0662 -0.0012 -0.3628
 8530W        W24791   2.337   5.735   1.495  0.1090  0.4260 -0.1432
 8531W        W24792   7.568   6.868   0.055  0.2085  0.1682  0.2130
 8532W        W24793  15.169   4.629  12.317 -0.1713  0.2831  0.0388
 8533W        W24794   6.993  14.440   0.978  0.0864 -0.3221  0.3565
 8534W        W24795   6.964   8.871   4.331 -0.0485 -0.3404 -0.0056
 8535W        W24796  16.972   3.528  11.848  0.1536  0.1124  0.0183
 8536W        W24797   1.262   2.821   2.342  0.3947 -0.2546  0.1773
 8537W        W24798   9.788  15.334   0.666 -0.2019  0.0695 -0.1333
 8538W        W24799  16.354   1.459  15.291  0.2018  0.1430 -0.0871
 8539W        W24800  17.903  15.382   2.775  0.0097  0.3989 -0.5111
 8540W        W24801   9.185  17.305   3.404  0.0925  0.4107 -0.1947
 8541W        W24802  11.259  13.307  15.348  0.1759  0.0789 -0.0970
 8542W        W24803  14.296   9.617   5.560 -0.0492  0.0318  0.2109
 8543W        W24804  12.616   9.118  15.377  0.1076  0.1354  0.4118
 8544W        W24805   7.714  13.460   0.254  0.3232  0.5403  0.0777
 8545W        W24806   5.305   2.481  13.880  0.0621 -0.1096  0.2746
 8546W        W24807  17.420   5.979  16.189  0.0286  0.2144  0.1865
 8547W        W24808   1.283   0.159   5.367  0.2797  0.2639  0.2519
 8548W        W24809  15.665  13.228   5.819 -0.0060  0.2948 -0.3223
 8549W        W24810   7.185   5.314   4.800 -0.1696  0.0186  0.2351
 8550W        W24811   5.851  15.052   4.912  0.1446 -0.2832 -0.2006
 8551W        W24812   2.448  10.861  14.306 -0.1374  0.2364 -0.2215
 8552W        W24813  14.206  18.099   1.171  0.2065 -0.1341  0.1422
 8553W        W24814   3.424  14.205   3.020 -0.1643 -0.0197  0.0978
 8554W        W24815  12.014   4.807  15.473 -0.2123 -0.3557  0.0775
 8555W        W24816   5.259   2.064   0.381 -0.1399  0.0585  0.1376
 8556W        W24817  13.987   2.708  13.942  0.0642  0.0233 -0.1736
 8557W        W24818  13.454  12.460   5.136  0.0558  0.0862 -0.0955
 8558W        W24819   3.377  10.119   4.062  0.1147  0.2655  0.1863
 8559W        W24820  10.686  13.005  12.477  0.0896 -0.0860 -0.0609
 8560W        W24821   5.358   2.658  15.160 -0.0742 -0.2089 -0.0286
 8561W        W24822  15.091   0.252   4.485 -0.2283  0.0040 -0.1107
 8562W        W24823  13.445   8.050   0.816 -0.2370 -0.0656  0.1133
 8563W        W24824   1.908   4.268  16.631  0.1163  0.0902 -0.0693
 8564W        W24825  14.585  14.565  14.395  0.1951 -0.1038  0.0143
 8565W        W24826  15.641   7.359  15.500 -0.2650 -0.1753  0.2502
 8566W        W24827  10.877  11.741  15.987  0.0130  0.4360 -0.1472
 8567W        W24828   0.957  13.094  15.139 -0.0269  0.0440 -0.0028
 8568W        W24829   6.781   6.068  12.508  0.0384  0.1414 -0.1131
 8569W        W24830   9.464   8.793   3.584 -0.0684  0.0476 -0.0571
 8570W        W24831  11.517   0.332   3.239  0.1832 -0.0365 -0.1103
 8571W        W24832   2.541   4.270  11.832 -0.0404  0.3375 -0.1452
 8572W        W24833   2.989  14.154  13.826  0.0214 -0.1904 -0.0393
 8573W        W24834  11.686   4.205  14.292 -0.3287  0.0299 -0.1534
 8574W        W24835   6.608  12.394  15.293 -0.2276  0.0919  0.2255
 8575W        W24836   1.901   3.755  13.122  0.3657  0.1615 -0.1483
 8576W        W24837  16.861   1.149  15.883 -0.0536 -0.3635 -0.0739
 8577W        W24838   0.805   6.205  14.319  0.0166  0.0913 -0.2745
 8578W        W24839  15.629   5.652   4.172  0.1227  0.1250  0.1101
 8579W        W24840   4.776  11.953  14.046  0.0541  0.1821  0.3848
 8580W        W24841   8.150   4.622   2.340  0.1968  0.0747 -0.1052
 8581W        W24842  17.340   4.127   2.847 -0.2078 -0.1395 -0.0578
 8582W        W24843  16.534   6.357   4.857  0.0744  0.0737  0.2157
 8583W        W24844   4.220   2.142  13.035  0.1233  0.0112 -0.0437
 8584W        W24845   6.785   4.742   3.490 -0.0985  0.1251  0.0554
 8585W        W24846  10.979   3.881  11.263  0.2070 -0.0065 -0.0276
 8586W        W24847   8.846   1.893   5.035  0.2895 -0.0026 -0.1474
 8587W        W24848  10.593  15.047   4.126 -0.0212 -0.1557  0.0665
 8588W        W24849   7.406  11.159   3.606  0.0674  0.0611 -0.2535
 8589W        W24850   8.714   2.948  15.088 -0.0704 -0.0216 -0.2230
 8590W        W24851  17.851   4.226   5.153  0.3521 -0.0838 -0.0598
 8591W        W24852   6.536  10.726  16.163  0.0176  0.3586  0.0862
 8592W        W24853   6.903   7.701  11.261 -0.2011 -0.1870 -0.0222
 8593W        W24854  17.423   4.057  13.954  0.2703  0.1093 -0.0851
 8594W        W24855   2.085  16.358   5.209 -0.1399  0.1772  0.0313
 8595W        W24856   5.034   3.760  14.421  0.2985  0.0128 -0.1251
 8596W        W24857  10.464   4.382   4.408  0.1543  0.0245  0.1231
 8597W        W24858   9.695   9.694  14.841 -0.2700  0.1917 -0.0634
 8598W        W24859   8.713   1.995   5.917  0.0593  0.0728 -0.1636
 8599W        W24860   3.158   6.291   5.054 -0.0035  0.4392  0.2477
 8600W        W24861  16.128  14.469   5.580 -0.0681 -0.1337 -0.1446
 8601W        W24862  13.772  11.442   2.451  0.2260  0.1770 -0.3408
 8602W        W24863  16.515   5.964   5.567  0.1449  0.0537  0.1167
 8603W        W24864  12.861  16.635  11.351  0.0782 -0.1150  0.0942
 8604W        W24865   4.943  11.922   0.289 -0.3221 -0.1795 -0.6563
 8605W        W24866  17.714  16.243   1.039  0.0666  0.2446  0.1517
 8606W        W24867   1.760  12.849   4.676 -0.2081 -0.4205 -0.0179
 8607W        W24868   1.500   4.557   5.782  0.1285 -0.2273 -0.1944
 8608W        W24869  12.167   6.533  13.265  0.0970  0.0440  0.1431
 8609W        W24870  15.424   2.213  12.020 -0.1517  0.0532 -0.5380
 8610W        W24871   1.789  12.197   1.864  0.0704  0.1040 -0.0224
 8611W        W24872  12.117   0.242  13.534 -0.0911  0.0567  0.0882
 8612W        W24873   8.501   8.600  14.777  0.0177 -0.2294  0.0760
 8613W        W24874   5.932   4.455  11.225  0.0703  0.2547  0.0707
 8614W        W24875   5.642  14.841  15.130  0.0291 -0.2885 -0.1270
 8615W        W24876   1.738  17.605  13.085  0.1544  0.0716  0.1456
 8616W        W24877  16.827  14.399  14.923  0.3145 -0.3760  0.1059
 8617W        W24878   7.490  16.188   2.956 -0.0899  0.0091 -0.2401
 8618W        W24879   5.387  11.200   2.106  0.2012 -0.1179  0.0145
 8619W        W24880  10.609  17.558  13.661  0.0750 -0.2375  0.2628
 8620W        W24881  13.466  12.360  11.791 -0.0323 -0.4513 -0.2489
 8621W        W24882   7.597   9.012   0.368 -0.0908  0.0195  0.0317
 8622W        W24883  13.583   8.195   3.099 -0.0043  0.1896 -0.3996
 8623W        W24884  16.515   1.225  14.872  0.0900 -0.3563  0.2111
 8624W        W24885  11.715  15.502  12.084 -0.0731 -0.1631 -0.0592
 8625W        W24886   4.509  14.936  13.477  0.0209 -0.1098 -0.1175
 8626W        W24887   1.741  10.616  16.352  0.1780 -0.3427  0.3602
 8627W        W24888  11.407   8.669  15.499  0.3596  0.0317 -0.1716
 8628W        W24889   2.576   7.303   2.479 -0.0357 -0.1390 -0.1849
 8629W        W24890  13.188   3.457   4.869 -0.1178  0.2727 -0.0462
 8630W        W24891   8.637   7.075   2.888  0.1748 -0.1306 -0.6050
 8631W        W24892   2.572  15.907   4.147  0.0365 -0.0803 -0.1818
 8632W        W24893  10.751   3.044  12.423  0.0184  0.3478  0.0299
 8633W        W24894  17.467  15.209   2.184 -0.0468 -0.2785  0.0367
 8634W        W24895  11.453   6.800   1.538  0.2232 -0.3606  0.1249
 8635W        W24896   7.124   2.885  12.888  0.0164 -0.2428 -0.4123
 8636W        W24897  16.943   8.507  16.228 -0.0279 -0.0173  0.2335
 8637W        W24898   1.933   4.588  16.284  0.0936  0.2379  0.2535
 8638W        W24899   6.148   7.422   3.811  0.4499  0.1549  0.1594
 8639W        W24900   6.646  16.828   3.245 -0.0353 -0.2505  0.1258
 8640W        W24901  12.001  18.028   5.540  0.4220 -0.1314  0.1354
 8641W        W24902   7.241   9.683  12.317 -0.2074 -0.0093 -0.0264
 8642W        W24903   5.104   4.256  13.684  0.1260  0.1921  0.1825
 8643W        W24904   2.994  12.549  11.755  0.3116  0.0244  0.0476
 8644W        W24905   9.635  11.724  12.610  0.1504  0.0904 -0.1555
 8645W        W24906  15.700  15.917  15.014 -0.1447  0.0373 -0.3462
 8646W        W24907   7.212   6.015  13.894  0.2043  0.0978 -0.2384
 8647W        W24908   0.897  16.888   3.159  0.0597  0.0745 -0.2716
 8648W        W24909   5.614   4.223   2.996 -0.1668 -0.0227 -0.1510
 8649W        W24910   0.808  10.364   1.670 -0.0645  0.0254 -0.0518
 8650W        W24911  17.831  14.542  11.984 -0.0244  0.0539  0.0348
 8651W        W24912  16.458   0.443  12.766 -0.0508 -0.2807 -0.0135
 8652W        W24913  12.243   8.213   5.411  0.1574 -0.0697  0.1360
 8653W        W24914   6.214   5.465  14.119 -0.1182  0.0334 -0.1887
 8654W        W24915  12.311   7.992   1.866  0.1315 -0.1732  0.1123
 8655W        W24916  15.535   9.365  14.093  0.0230  0.0655 -0.0960
 8656W        W24917  12.290  17.320   0.029 -0.0776 -0.1253  0.0778
 8657W        W24918   9.014   6.346   6.277 -0.0804  0.0829 -0.3596
 8658W        W24919  17.282   9.656   4.705 -0.3221 -0.0878 -0.2008
 8659W        W24920  11.030   5.634  15.205  0.0081  0.3881  0.0631
 8660W        W24921  10.812   6.342   2.593 -0.3003 -0.1252 -0.4122
 8661W        W24922   5.765  18.046   4.868 -0.1772  0.1858  0.1827
 8662W        W24923  16.239  14.351  12.289 -0.2367 -0.0818 -0.0764
 8663W        W24924   1.709   7.989   0.372 -0.0779 -0.1161  0.2227
 8664W        W24925  15.387   7.447  14.245 -0.0104 -0.1012  0.0301
 8665W        W24926   1.709   2.044  15.103  0.2808  0.1390  0.1136
 8666W        W24927   1.168  18.131   4.157 -0.0727  0.0135 -0.1693
 8667W        W24928  16.383  14.935   1.242  0.2489 -0.3640  0.1796
 8668W        W24929  10.003  15.814  14.992  0.0512 -0.0599 -0.3397
 8669W        W24930  14.874  11.910   2.728 -0.0711  0.1755 -0.0920
 8670W        W24931   9.654  17.746   0.978 -0.0868 -0.1250 -0.0432
 8671W        W24932  10.472   5.783   4.050  0.0249 -0.0682 -0.1337
 8672W        W24933   4.717  10.546   4.815  0.1680 -0.0437 -0.3211
 8673W        W24934   3.178  10.106  16.366 -0.0913  0.0634  0.3471
 8674W        W24935   5.676  16.892   0.347  0.0787 -0.2987 -0.2080
 8675W        W24936   0.390   3.588   5.187  0.0474 -0.3372  0.1291
 8676W        W24937  10.715   2.784  10.919 -0.0002  0.1473 -0.2014
 8677W        W24938   8.491   2.329   4.954  0.2230 -0.0568 -0.1349
 8678W        W24939  10.634  14.431  13.888 -0.0639 -0.2485  0.0863
 8679W        W24940  16.244  13.013  14.503  0.2926  0.1299  0.4046
 8680W        W24941   9.866   8.019   4.835 -0.0324 -0.0263 -0.0089
 8681W        W24942   6.828   5.152  13.625 -0.1121 -0.2307  0.0203
 8682W        W24943   2.056  10.405  12.626  0.1788 -0.2003 -0.0764
 8683W        W24944   4.393   4.584  15.827  0.0795 -0.1316 -0.2518
 8684W        W24945  18.053  13.643   0.008  0.0699  0.2889  0.0529
 8685W        W24946  17.556   6.552   1.864  0.4006 -0.2973 -0.1909
 8686W        W24947   6.812   4.202   4.354  0.0911  0.0140 -0.1194
 8687W        W24948   4.403   1.887   1.408 -0.0018 -0.0531  0.1770
 8688W        W24949   6.195   1.659   1.214  0.0959 -0.1102  0.2784
 8689W        W24950  11.958  17.735   1.352 -0.1394  0.1301 -0.2367
 8690W        W24951   5.152   8.821   4.080 -0.0681  0.4444 -0.0705
 8691W        W24952   0.750  11.006   2.755 -0.0013 -0.0335 -0.1522
 8692W        W24953   9.340   9.059   5.652 -0.3611  0.0301 -0.0779
 8693W        W24954   2.431   0.454   1.243 -0.0016 -0.0711 -0.3302
 8694W        W24955   2.942  15.624   5.144  0.1139 -0.0849 -0.0832
 8695W        W24956   6.364  14.187   2.752 -0.0491  0.0826 -0.0899
 8696W        W24957   7.199   0.299   4.722  0.0516  0.1439 -0.0561
 8697W        W24958   4.093   5.504  13.098  0.0070  0.3207  0.0323
 8698W        W24959  13.180  16.566  13.948  0.2078 -0.2154 -0.0470
 8699W        W24960   0.157   6.564   6.579  0.0179 -0.2806  0.0476
 8700W        W24961  15.675  13.600  12.815  0.1934 -0.2051  0.0678
 8701W        W24962   5.443   3.880   3.942  0.1442  0.0283  0.1712
 8702W        W24963  16.906   1.492  13.684 -0.1254  0.1003 -0.1536
 8703W        W24964   8.720  15.569   5.002 -0.0031  0.0488 -0.0282
 8704W        W24965   3.507   6.573  16.612  0.1468 -0.0424  0.0744
 8705W        W24966  11.732   7.039  12.680  0.1937 -0.1317 -0.2837
 8706W        W24967   8.633   3.386   2.032  0.0686 -0.1161  0.0054
 8707W        W24968  14.982   5.311  14.823 -0.1369  0.1149 -0.0961
 8708W        W24969  17.691  11.240  16.630 -0.1260 -0.2148 -0.2570
 8709W        W24970   6.781  17.326   5.855  0.1892 -0.1075  0.1286
 8710W        W24971  14.375   2.348  14.865  0.2878  0.1698  0.0831
 8711W        W24972   4.254   5.920   0.165  0.2890  0.1111  0.3721
 8712W        W24973   3.901   7.131   3.026  0.4372  0.0969  0.2191
 8713W        W24974  13.393  17.653  14.002 -0.0082 -0.0403 -0.0456
 8714W        W24975  13.503   3.977  14.135 -0.1013 -0.1460 -0.1676
 8715W        W24976   8.194   4.706   1.154  0.0462  0.3577  0.2452
 8716W        W24977   9.483  14.260  15.496  0.0389  0.2227 -0.0826
 8717W        W24978   1.800  11.036  12.574  0.0880 -0.3731  0.0638
 8718W        W24979   5.157  15.958   1.109  0.0742 -0.0640 -0.0494
 8719W        W24980  10.471   5.350   3.840 -0.4988 -0.1525  0.2082
 8720W        W24981   7.073  10.877  15.181  0.0173  0.0702  0.4871
 8721W        W24982  15.870   1.209  16.293  0.6071 -0.1897  0.1061
 8722W        W24983   9.232   9.647   5.625 -0.2130 -0.3559 -0.3313
 8723W        W24984   7.989   0.326  12.709 -0.5504 -0.3210  0.0059
 8724W        W24985   5.917   4.715   5.092  0.1372 -0.0851  0.3295
 8725W        W24986   6.696   5.088   4.604  0.1042  0.3301 -0.2507
 8726W        W24987   1.007  11.682  11.625 -0.1518 -0.0253 -0.0233
 8727W        W24988  12.336  10.442   5.166 -0.0026  0.2019  0.0810
 8728W        W24989  13.267  15.225  15.789  0.2523  0.1325 -0.0049
 8729W        W24990   9.937  16.736  11.541 -0.3836 -0.0956 -0.0721
 8730W        W24991  17.202  11.952  15.497  0.1402 -0.1001 -0.2611
 8731W        W24992  12.583   9.269   4.166 -0.0335 -0.1430 -0.1765
 8732W        W24993  14.167  12.021   4.637  0.1636  0.0421 -0.0347
 8733W        W24994  10.814   9.459  10.752  0.1248 -0.0400  0.3421
 8734W        W24995  11.982   8.758   0.769 -0.2673 -0.1220  0.0124
 8735W        W24996   4.422  11.201   3.718 -0.0536  0.1292  0.2140
 8736W        W24997  15.878   2.598  16.304 -0.0111 -0.2762  0.2973
 8737W        W24998   2.700   3.465  13.897  0.1400 -0.2506 -0.0721
 8738W        W24999  10.127  13.010   1.303  0.3625 -0.0248  0.1295
 8739W        W25000  15.804  16.212  11.446  0.0073  0.0007  0.0728
 8740W        W25001  16.359   1.589  13.895 -0.2626 -0.0565 -0.1749
 8741W        W25002   7.178   6.374  12.523 -0.2387 -0.0302  0.2202
 8742W        W25003  16.894   2.542   3.570 -0.3441  0.0516 -0.2325
 8743W        W25004   7.018   3.680  13.583 -0.1595  0.1883  0.4292
 8744W        W25005   8.851   4.344   5.452  0.0812 -0.0775 -0.4103
 8745W        W25006  15.534   3.137   1.963 -0.2277  0.0386  0.1010
 8746W        W25007  13.015   1.574   1.384 -0.2166  0.4351 -0.1951
 8747W        W25008  17.409   5.045   5.056  0.2140 -0.4152 -0.1545
 8748W        W25009  17.593   0.821   5.247  0.3968 -0.1208  0.0682
 8749W        W25010   0.359   7.400  12.514  0.0611  0.2610  0.1873
 8750W        W25011  16.101   3.556  13.978  0.2561  0.0041 -0.1307
 8751W        W25012  15.499   3.259  12.982  0.1412 -0.1921  0.2097
 8752W        W25013  14.783   5.429  12.122  0.2442 -0.2227 -0.2784
 8753W        W25014  13.590   4.329   1.465  0.3440 -0.1511  0.1358
 8754W        W25015   0.686  13.517   5.398  0.2414 -0.0318 -0.1634
 8755W        W25016   2.099   6.976   0.711 -0.0550  0.0454 -0.1672
 8756W        W25017   5.372   5.727  14.349  0.1486  0.0772 -0.4305
 8757W        W25018  12.770   7.337   0.079  0.0848  0.1312 -0.1113
 8758W        W25019  10.234   8.439  13.184 -0.0487  0.4001  0.0957
 8759W        W25020   6.654   7.577   3.755  0.0845 -0.1542 -0.1980
 8760W        W25021  14.280   3.511   4.047 -0.0740  0.1159 -0.4063
 8761W        W25022  12.560  10.296   1.104  0.3542 -0.0318  0.2173
 8762W        W25023   9.165  17.434  13.339  0.1199 -0.0526  0.1693
 8763W        W25024   1.833  10.398  13.883  0.2572  0.0880 -0.1132
 8764W        W25025   7.855  13.945  11.798  0.0843  0.1392  0.0017
 8765W        W25026   4.173  10.321  13.867 -0.0559 -0.2523 -0.0090
 8766W        W25027   1.117  16.560  10.507 -0.0919  0.1053 -0.0834
 8767W        W25028   7.533   0.624   0.615  0.0017 -0.1771 -0.0384
 8768W        W25029   6.624   6.544   4.316 -0.0550  0.0247  0.0343
 8769W        W25030   1.255   9.036   2.704 -0.0363  0.1263 -0.3857
 8770W        W25031   2.659   8.385  15.054  0.0998 -0.3714 -0.0953
 8771W        W25032  17.859   4.369  12.809  0.1767  0.1642 -0.1916
 8772W        W25033   7.285  17.069   4.510  0.0760 -0.0637 -0.1685
 8773W        W25034  16.946   6.750  12.701  0.0246 -0.0614  0.2426
 8774W        W25035  11.449   3.447  15.687 -0.1273 -0.2041 -0.2780
 8775W        W25036  10.402   4.987   1.205 -0.0096  0.0769  0.1649
 8776W        W25037  12.646   2.348   2.466 -0.3149 -0.2165  0.1157
 8777W        W25038  12.823   4.230  12.457 -0.2430  0.3477  0.0708
 8778W        W25039  16.888  17.206  12.145 -0.1402  0.1590 -0.1406
 8779W        W25040  15.964  11.551   5.389 -0.1120  0.5124  0.1549
 8780W        W25041   0.755   5.293  14.632 -0.1602  0.1333  0.1782
 8781W        W25042  15.483   8.655   6.089 -0.0035  0.0689  0.0143
 8782W        W25043  14.469  16.700   3.508  0.0570  0.0963 -0.4621
 8783W        W25044  16.618   7.494  11.329 -0.1245 -0.0391  0.0776
 8784W        W25045   3.691  13.218   2.261  0.0883 -0.1564  0.3250
 8785W        W25046   9.360   9.995   3.771  0.0097  0.0417 -0.2396
 8786W        W25047   6.699  10.382   1.776  0.2590 -0.0386 -0.0373
 8787W        W25048  16.627   5.824  14.298  0.2333  0.1854 -0.1966
 8788W        W25049   4.291  16.457   4.697  0.1569  0.1168 -0.1458
 8789W        W25050   2.231  15.190   1.131 -0.1610 -0.1842 -0.0136
 8790W        W25051   3.870   1.795   5.358  0.0372 -0.1014 -0.0246
 8791W        W25052  14.456  10.579   3.806 -0.0219  0.2284  0.0373
 8792W        W25053  12.622  15.634   3.721  0.0895  0.2877  0.0108
 8793W        W25054   7.722  14.015  11.130  0.2844 -0.1272 -0.3710
 8794W        W25055  14.340  15.648  12.498 -0.1471  0.0949 -0.3040
 8795W        W25056  17.523  15.712  14.777  0.3314  0.0658 -0.0433
 8796W        W25057   4.734  16.772  16.587  0.0209 -0.1530  0.1492
 8797W        W25058  14.039  10.532   4.596 -0.3488  0.2317  0.0843
 8798W        W25059   7.224   6.992  13.139 -0.2161  0.2037 -0.1921
 8799W        W25060  14.463  16.761  15.316 -0.1183  0.1488 -0.1199
 8800W        W25061   8.787  15.758  12.336 -0.3420  0.1676 -0.0490
 8801W        W25062  12.906  12.442   4.286  0.0580 -0.0312 -0.0636
 8802W        W25063  16.390  16.662   1.058 -0.0883 -0.0826 -0.1466
 8803W        W25064  10.099  14.057   4.848 -0.0145 -0.0825  0.1265
 8804W        W25065   3.379  12.523   1.204 -0.1396 -0.0034  0.0273
 8805W        W25066   2.362  10.316  15.713  0.3037 -0.1052  0.1281
 8806W        W25067  12.742   2.154   3.829  0.1775  0.1128 -0.0696
 8807W        W25068   5.641   8.781  12.688 -0.0815 -0.0030  0.0489
 8808W        W25069   0.328   3.045   3.423  0.1709  0.0491 -0.2046
 8809W        W25070   9.582   1.162   2.731 -0.1091 -0.1511 -0.3022
 8810W        W25071   2.128  13.740   0.496 -0.2261 -0.1368  0.2968
 8811W        W25072  17.996  11.240   2.679 -0.2702 -0.0717  0.3700
 8812W        W25073   4.971   9.142   0.180  0.0669 -0.2281  0.0704
 8813W        W25074  13.398   3.153  13.851  0.0449 -0.2874 -0.0125
 8814W        W25075  14.254  14.495   0.259 -0.3367 -0.2700 -0.1082
 8815W        W25076  10.784   9.100  15.476 -0.0887  0.1479 -0.0023
 8816W        W25077  13.023  12.298   0.356 -0.1205  0.2231  0.1288
 8817W        W25078  17.752   2.466   5.618  0.1793  0.2206  0.0534
 8818W        W25079  11.804  17.704  14.334  0.0174 -0.0095 -0.0859
 8819W        W25080   2.822   0.683  12.044 -0.1911  0.3040 -0.0069
 8820W        W25081  17.484   1.840  14.570  0.1895  0.1292  0.1087
 8821W        W25082   5.795   7.337  15.348  0.1208 -0.0648 -0.0661
 8822W        W25083   8.780   9.781   5.873 -0.0675 -0.1851  0.0301
 8823W        W25084  10.409   9.527  13.053  0.2628  0.1046 -0.1834
 8824W        W25085   4.633   9.927  16.233  0.5833 -0.2475  0.1156
 8825W        W25086  17.673   2.467   1.345  0.1731 -0.3081 -0.1215
 8826W        W25087  11.026  11.916  16.429 -0.1251 -0.1564 -0.0533
 8827W        W25088  10.373   6.128  14.569  0.0850  0.0267 -0.2508
 8828W        W25089  14.716   0.585   1.121  0.0614 -0.1440 -0.1951
 8829W        W25090  10.369   2.190   2.174  0.2101 -0.1272  0.1166
 8830W        W25091   3.931   5.294   1.405  0.0002 -0.1223  0.2249
 8831W        W25092  15.018  11.244  14.631  0.1023  0.1570 -0.0866
 8832W        W25093   0.561   8.229   2.632 -0.0983 -0.0910  0.4215
 8833W        W25094  18.156  10.586  11.593  0.0297 -0.1595 -0.1896
 8834W        W25095   4.207   8.681   5.509  0.0175  0.1181  0.0637
 8835W        W25096  15.594   1.776  11.810 -0.0468  0.2630  0.0951
 8836W        W25097  15.209   7.053   2.295  0.1590 -0.1269 -0.2534
 8837W        W25098  15.443   1.971   3.168 -0.5105 -0.0884 -0.2182
 8838W        W25099   8.199   2.987   4.111  0.1071  0.5288 -0.0765
 8839W        W25100   1.769  17.704   1.983  0.2361  0.1271  0.1184
 8840W        W25101   0.927  10.869   1.529  0.1392  0.3516  0.2070
 8841W        W25102  14.668  10.049  13.706  0.2308 -0.0832  0.1719
 8842W        W25103  11.716  15.710   3.611 -0.1082 -0.2300 -0.1242
 8843W        W25104   2.208  16.018   1.010  0.3646  0.1629 -0.3759
 8844W        W25105   6.735   2.506   3.276  0.1238 -0.0179 -0.0011
 8845W        W25106   2.090   1.497  14.483 -0.0901 -0.2035 -0.4509
 8846W        W25107   9.900  10.649   1.353 -0.1307 -0.3697  0.1655
 8847W        W25108   1.338   9.098  14.311 -0.2167 -0.0639 -0.1174
 8848W        W25109  11.997  13.298   2.318  0.0338  0.2070 -0.1903
 8849W        W25110  10.282  15.017   1.841  0.1609 -0.1397 -0.0332
 8850W        W25111   3.241  13.496   1.537  0.0264 -0.0780  0.2071
 8851W        W25112  11.765  10.810  14.127  0.2451 -0.1532  0.1361
 8852W        W25113  13.396   6.356  12.280 -0.0040  0.2022  0.2452
 8853W        W25114   8.970   6.702   5.559  0.0344 -0.6130  0.1387
 8854W        W25115   6.639   0.763   0.240 -0.1615 -0.2794 -0.1028
 8855W        W25116  14.523  12.713   2.773 -0.2167 -0.0163  0.2234
 8856W        W25117  16.167  12.452  13.884 -0.0255 -0.1544  0.1961
 8857W        W25118   8.654  10.637  13.635  0.0704  0.1260 -0.3119
 8858W        W25119   5.216   2.355  10.615  0.1104  0.1755 -0.0920
 8859W        W25120  12.069  13.147  16.527 -0.1023  0.0329 -0.6114
 8860W        W25121  12.402   5.318  13.021 -0.0184  0.1599 -0.2025
 8861W        W25122   7.480   3.257  12.691 -0.0383 -0.0455  0.1309
 8862W        W25123  15.863  18.134   2.362  0.0001 -0.2579 -0.0380
 8863W        W25124   2.353  11.135  13.879  0.1476 -0.0232  0.0952
 8864W        W25125   1.880   2.652   2.526 -0.2974  0.0887 -0.3369
 8865W        W25126   0.257   9.676   1.101  0.0946  0.1346  0.2901
 8866W        W25127  14.736   7.348  16.610 -0.0209 -0.1115 -0.0112
 8867W        W25128  17.425  13.693  13.933 -0.0502  0.1661  0.1686
 8868W        W25129  13.276   5.484  10.530 -0.1080 -0.3456  0.0403
 8869W        W25130   8.728   5.280  16.257 -0.0685  0.0310 -0.1397
 8870W        W25131   0.274   4.987  13.210  0.2026 -0.3263  0.0469
 8871W        W25132   3.217   1.482   0.933 -0.0439 -0.1193 -0.0063
 8872W        W25133   6.667  11.407   0.047  0.2262  0.2217  0.0872
 8873W        W25134   9.265  10.361   2.609 -0.2954  0.2362  0.0681
 8874W        W25135   8.433  17.662   4.038  0.0598 -0.0436  0.1183
 8875W        W25136   9.920   2.032  12.273 -0.2837 -0.2515 -0.1932
 8876W        W25137  15.613  17.875   3.645 -0.1014 -0.2817  0.2053
 8877W        W25138   4.653  14.341   4.929  0.2504 -0.2267  0.0316
 8878W        W25139   1.040   2.383  15.772 -0.0183  0.0250  0.2022
 8879W        W25140  15.043   0.632  16.554 -0.2001 -0.1871  0.0932
 8880W        W25141  10.123  14.579   1.079 -0.0023 -0.0187  0.1630
 8881W        W25142   8.261   8.915  12.803 -0.0672 -0.1155  0.0731
 8882W        W25143   3.934  13.956   0.376 -0.0721 -0.0970 -0.1682
 8883W        W25144   5.614   1.371  11.888 -0.1976  0.1876  0.2336
 8884W        W25145   3.678  16.846   2.676  0.1535  0.1816  0.2700
 8885W        W25146  15.223  12.140   2.451 -0.1146  0.1012 -0.3958
 8886W        W25147  12.080   4.901   4.125 -0.0331  0.2711  0.0995
 8887W        W25148   6.924   3.763   2.213  0.1800 -0.0282  0.0260
 8888W        W25149  11.231   8.986   2.278 -0.0739  0.3260  0.2213
 8889W        W25150   9.877   3.120  13.597 -0.1081  0.1588 -0.3649
 8890W        W25151  10.919   1.752  15.691  0.1528 -0.2571 -0.3724
 8891W        W25152   5.457   6.292   2.979 -0.4629 -0.2925 -0.1106
 8892W        W25153  15.606  10.294  13.584  0.1522  0.0898 -0.2714
 8893W        W25154   4.829  12.539  14.705  0.0499 -0.0847  0.0766
 8894W        W25155  16.802  17.030  16.591 -0.0452 -0.0312  0.0753
 8895W        W25156   4.370  15.429   4.361  0.0909 -0.1263 -0.2186
 8896W        W25157   9.489   3.982  13.362 -0.2096 -0.0229  0.1459
 8897W        W25158   5.114  18.092   1.245 -0.2680  0.2009  0.0652
 8898W        W25159  15.788   7.283  15.014  0.0911 -0.0841  0.0753
 8899W        W25160   5.695   3.306  12.132 -0.2556 -0.1088  0.0411
 8900W        W25161  12.889   8.667   4.714  0.0325 -0.1958  0.0954
 8901W        W25162  10.565   4.005  12.904 -0.1386 -0.0441  0.0987
 8902W        W25163  17.131   8.074  16.386 -0.2832 -0.1460  0.0559
 8903W        W25164   4.466  13.465   4.584  0.2434  0.1808  0.1761
 8904W        W25165   3.417  17.739  15.174  0.0221  0.0989 -0.3195
 8905W        W25166   7.539   4.757   5.705 -0.3266  0.2428 -0.2229
 8906W        W25167   8.498   7.884  15.585 -0.0996  0.0169  0.0400
 8907W        W25168   4.604  17.907  15.597 -0.1314  0.0670 -0.1878
 8908W        W25169  12.593   6.884   5.445  0.2639 -0.1117 -0.0554
 8909W        W25170   6.308  11.735   0.651 -0.1011  0.5056 -0.2991
 8910W        W25171   5.685   2.104   1.803  0.1440 -0.0525 -0.0949
 8911W        W25172  16.682   8.041   3.381 -0.2634 -0.3289 -0.1803
 8912W        W25173   6.089   8.813   4.155 -0.0967  0.1753 -0.1358
 8913W        W25174   2.856  14.176  12.382 -0.2882 -0.0823  0.0393
 8914W        W25175  16.328  11.614  15.962 -0.1721  0.0896 -0.1329
 8915W        W25176   6.416  10.481   4.924  0.3015  0.1248  0.1496
 8916W        W25177  15.494   9.485  11.017  0.0141  0.2127 -0.0561
 8917W        W25178   6.810   8.783   0.553 -0.0419 -0.0831  0.1724
 8918W        W25179   0.776   0.211   1.589 -0.0652 -0.2032  0.0265
 8919W        W25180   6.003   1.727  14.356  0.2480  0.3338  0.2772
 8920W        W25181   3.363  12.333   1.785  0.2926 -0.2214 -0.1308
 8921W        W25182   1.952   8.691  15.797  0.0218 -0.2101  0.0372
 8922W        W25183   5.471   1.031  12.187 -0.1068  0.0424 -0.5172
 8923W        W25184  15.116   6.469  15.303 -0.3319 -0.0145  0.0029
 8924W        W25185  11.166  14.565   1.413  0.0900  0.3154 -0.0852
 8925W        W25186  10.852   2.326   4.554  0.0856 -0.0792  0.0219
 8926W        W25187  12.357  16.975   4.052 -0.2149 -0.0098  0.2259
 8927W        W25188   8.469   7.563   1.512  0.0607 -0.0337 -0.3212
 8928W        W25189  15.477   8.287  13.044  0.0116 -0.1552 -0.2390
 8929W        W25190  14.511   4.940  15.891  0.1578 -0.2345  0.1558
 8930W        W25191   6.954  11.606  12.057  0.2357 -0.1632  0.0724
 8931W        W25192   5.970  10.499  13.702 -0.4914 -0.1138  0.0385
 8932W        W25193   3.188  16.495   3.213  0.1275 -0.0072 -0.2114
 8933W        W25194  15.225  11.802   4.401  0.0137 -0.0166  0.1786
 8934W        W25195  15.231   3.680  13.601  0.0236  0.1106  0.0688
 8935W        W25196  11.735  10.031  14.423 -0.1344 -0.0932  0.4774
 8936W        W25197  15.403  17.449  16.015 -0.1292  0.0643  0.1239
 8937W        W25198  17.966   2.741   3.440 -0.2010  0.1049  0.0046
 8938W        W25199  15.704  11.999   2.571  0.0539 -0.0081  0.0364
 8939W        W25200   6.061   2.925   0.367  0.1923  0.1430  0.3986
 8940W        W25201  16.447   3.879  12.097 -0.0399 -0.1217 -0.1129
 8941W        W25202   3.535   5.175   2.686 -0.0400 -0.1814  0.3799
 8942W        W25203   1.495   8.334  11.128  0.1836 -0.0685 -0.1589
 8943W        W25204   2.834   1.595   4.595  0.0796  0.3064 -0.0564
 8944W        W25205   6.449   2.343  13.839  0.1242 -0.3654 -0.1609
 8945W        W25206   5.967   7.400  13.381 -0.1222  0.1307  0.3282
 8946W        W25207  14.231   4.529  16.159  0.0214  0.0277 -0.1246
 8947W        W25208  12.756  14.568   3.189  0.1395 -0.0393 -0.2306
 8948W        W25209   1.826  16.415  13.787  0.0008 -0.1345  0.2102
 8949W        W25210  15.722   0.517  12.121 -0.0009 -0.3694 -0.0108
 8950W        W25211   1.352   0.471   5.735 -0.3112 -0.0245 -0.0461
 8951W        W25212  16.653  13.267   1.559  0.1989  0.1504  0.1464
 8952W        W25213  16.731  14.211   2.266  0.2237 -0.0632  0.0936
 8953W        W25214  13.917   0.764  10.768  0.0301  0.1286 -0.3476
 8954W        W25215  11.351  18.075   0.972 -0.1806 -0.4666 -0.2815
 8955W        W25216   5.891   8.986   1.216 -0.1442 -0.2705 -0.1072
 8956W        W25217  17.205  17.496  13.441  0.0138  0.1859 -0.2294
 8957W        W25218   2.969  16.634   6.390 -0.1863  0.2450  0.4397
 8958W        W25219   1.845   4.794   6.227  0.0254 -0.3800 -0.2528
 8959W        W25220  10.963   6.189  11.921 -0.1641  0.1279 -0.4146
 8960W        W25221   3.951   7.305  11.813 -0.0645  0.1960 -0.3009
 8961W        W25222   2.050   2.206   1.338  0.2913 -0.1354  0.3230
 8962W        W25223   1.787   3.797   4.301  0.3242 -0.0164 -0.4367
 8963W        W25224  12.805   7.547  14.823 -0.5355 -0.0391 -0.1781
 8964W        W25225   3.671  15.142   1.665  0.0230  0.1056 -0.0830
 8965W        W25226  17.307   2.247   0.363 -0.1082  0.1549  0.0372
 8966W        W25227   6.053  17.853   2.257  0.0046  0.3638 -0.0990
 8967W        W25228   8.343  10.384  15.357 -0.0420 -0.2556  0.0142
 8968W        W25229   6.520   4.069  13.378 -0.0372 -0.0389 -0.1143
 8969W        W25230  13.611   8.215  14.611 -0.1276 -0.0334  0.0976
 8970W        W25231  16.684   8.866  15.215  0.0760  0.0274  0.1083
 8971W        W25232   7.601  14.904  12.882  0.0035  0.3064 -0.2170
 8972W        W25233  10.684   2.964  13.180 -0.2301  0.0143  0.3466
 8973W        W25234   9.819   9.333  11.372 -0.0301  0.1965 -0.0352
 8974W        W25235   8.268   0.797   3.965  0.1845  0.1116  0.0451
 8975W        W25236  15.444   7.072   1.306  0.0846 -0.0112 -0.0698
 8976W        W25237  14.486   3.544  12.136  0.0818 -0.0684 -0.0837
 8977W        W25238  16.374  11.006   0.015  0.1712 -0.1434 -0.1416
 8978W        W25239   8.288  10.463   0.637 -0.0323 -0.0476 -0.0957
 8979W        W25240   4.940   8.324   3.756  0.0768  0.1091  0.0975
 8980W        W25241  16.593  17.756  12.950 -0.1195  0.1198  0.1243
 8981W        W25242  14.762  12.983  12.836  0.1224 -0.3764 -0.0599
 8982W        W25243   9.796  13.231  11.266  0.3441 -0.0336 -0.0618
 8983W        W25244  12.823   9.418  15.025  0.3946  0.0720  0.2587
 8984W        W25245   1.680  10.725  11.695  0.1861 -0.1319  0.0432
 8985W        W25246  15.208  13.026  13.851 -0.0529 -0.4239  0.3258
 8986W        W25247   0.964   2.235   0.031 -0.1950  0.0409  0.1240
 8987W        W25248   0.134   1.849  13.427 -0.0003 -0.1293  0.3585
 8988W        W25249   9.476   6.831  15.119 -0.1815 -0.1152  0.2707
 8989W        W25250  11.623   2.497  12.962  0.1837 -0.0955 -0.0744
 8990W        W25251  17.063   4.600   5.145 -0.0279  0.1805  0.2052
 8991W        W25252   5.017   8.484  11.506 -0.0258  0.3381  0.0106
 8992W        W25253  12.186   8.267   1.035  0.3368  0.1579 -0.1790
 8993W        W25254   1.947   4.604   3.585  0.1465 -0.1348 -0.1095
 8994W        W25255   5.154   3.290  14.297  0.1547  0.0619  0.1590
 8995W        W25256  14.792  10.789  14.760  0.1022  0.2523 -0.4290
 8996W        W25257  13.850   2.144   0.414 -0.0639  0.1623 -0.0880
 8997W        W25258   7.757  16.365   0.172  0.1641 -0.1195 -0.0008
 8998W        W25259  11.995   4.491   3.463  0.1004  0.0149  0.1046
 8999W        W25260   6.654  13.107  13.792  0.3075  0.1367 -0.0253
 9000W        W25261  18.191  17.074  12.766  0.0944 -0.0075 -0.2024
 9001W        W25262   1.603  10.362   1.747 -0.0303 -0.2852 -0.2107
 9002W        W25263   5.749  11.677  14.031  0.2742 -0.2361  0.0804
 9003W        W25264  14.467  11.280   3.339 -0.0055  0.1621 -0.2011
 9004W        W25265  12.111  12.355  11.557 -0.1155  0.2523  0.1564
 9005W        W25266  15.060  17.725  15.771  0.0171  0.1585  0.0614
 9006W        W25267  14.564  16.456  15.799  0.1529  0.4521 -0.2209
 9007W        W25268   6.758   9.293   0.494 -0.3429  0.1136 -0.2980
 9008W        W25269   2.071  12.308  14.682 -0.1891 -0.0378 -0.0093
 9009W        W25270  14.016  10.717  13.705 -0.2977  0.0409 -0.1613
 9010W        W25271   1.213   7.611  16.334  0.0222  0.2970 -0.1182
 9011W        W25272  17.580  13.776   5.194 -0.1034  0.5037  0.2384
 9012W        W25273   5.437  17.860  16.144 -0.2138 -0.1396 -0.2890
 9013W        W25274   8.706   4.328  12.716  0.0367  0.0623 -0.2820
 9014W        W25275  10.139  17.786  13.749 -0.1906  0.0079 -0.0646
 9015W        W25276  12.115   8.262   4.384  0.0473 -0.2212  0.0361
 9016W        W25277   2.276  16.503   3.254  0.2278 -0.0160  0.1880
 9017W        W25278   1.198  14.564   3.699  0.1072 -0.0739  0.1640
 9018W        W25279   7.188   4.638   2.215  0.0550 -0.1373 -0.1030
 9019W        W25280   3.155   4.900   5.967  0.2254 -0.1882 -0.2095
 9020W        W25281   2.776   3.571  15.730  0.0454  0.0613  0.1443
 9021W        W25282  14.837   9.138  15.976 -0.0141  0.0085 -0.2736
 9022W        W25283  16.336   7.890   3.887  0.1645 -0.1899  0.1155
 9023W        W25284   9.909   9.779  13.185  0.1713 -0.4090  0.1926
 9024W        W25285   6.759   6.237   4.928  0.0684 -0.1731 -0.3759
 9025W        W25286  17.959   9.826  15.047  0.1412  0.2765 -0.1276
 9026W        W25287   8.815  13.601  11.495  0.0437  0.1573  0.0552
 9027W        W25288  16.909  10.186   2.956 -0.0895  0.0750  0.1307
 9028W        W25289   0.042   3.425  14.096 -0.4433 -0.1731 -0.4570
 9029W        W25290  15.702   3.815   4.088 -0.1098 -0.1111 -0.2044
 9030W        W25291  14.786   9.767  14.553  0.2985 -0.1742 -0.0032
 9031W        W25292  12.239   3.656   4.430 -0.1060 -0.2910  0.0414
 9032W        W25293   3.667   3.711  16.058  0.0883 -0.2768  0.1573
 9033W        W25294   3.213  16.776  14.143 -0.1988 -0.1129 -0.2047
 9034W        W25295   4.447   0.204   2.466  0.0149  0.1422 -0.0618
 9035W        W25296  13.808  14.465  16.606  0.1048 -0.1931 -0.2957
 9036W        W25297   0.775   6.692  14.261 -0.1886 -0.0868  0.0202
 9037W        W25298  17.146  11.643   1.043  0.0154 -0.2809 -0.1296
 9038W        W25299  15.937  14.782  12.049 -0.4263 -0.1547 -0.0024
 9039W        W25300   8.198   7.384   5.639 -0.0862 -0.0412 -0.1109
 9040W        W25301   8.043  13.352   1.261 -0.1521 -0.0642 -0.0425
 9041W        W25302   1.827  11.420   5.845  0.1276 -0.2637  0.2427
 9042W        W25303  17.681   9.947  11.851 -0.1171 -0.1363  0.2776
 9043W        W25304   7.665   4.817   3.432  0.0037 -0.0629  0.3056
 9044W        W25305   9.233  15.907   5.609  0.0154 -0.1195 -0.3388
 9045W        W25306  12.711  17.601   0.171  0.0786 -0.0518  0.0938
 9046W        W25307   3.710   7.176   0.068  0.2857 -0.1801  0.0088
 9047W        W25308  10.381   3.867  16.508 -0.0734  0.2424  0.1770
 9048W        W25309   6.697   9.089  11.692 -0.3927  0.1278  0.0156
 9049W        W25310  11.596  16.209   5.052 -0.0288  0.1527 -0.1418
 9050W        W25311   5.962  13.525  13.656  0.0453  0.1582 -0.1622
 9051W        W25312   9.836   0.345  14.516  0.1095 -0.2403  0.0461
 9052W        W25313  17.824   9.117  12.187 -0.4422 -0.1066 -0.1082
 9053W        W25314  10.112  17.693  12.629 -0.0607  0.1853  0.1489
 9054W        W25315  10.637   9.106   2.956 -0.1991 -0.2498 -0.3510
 9055W        W25316   6.140   9.701   3.000  0.3183 -0.2778  0.2023
 9056W        W25317   4.167  11.488   4.589  0.2642  0.4319 -0.0321
 9057W        W25318  17.222  11.014  15.626  0.0284  0.2345  0.0197
 9058W        W25319   5.826   3.392  14.939  0.0992 -0.1644 -0.0140
 9059W        W25320   8.277  16.230  13.605 -0.0470  0.1539  0.0989
 9060W        W25321   6.011   6.384   1.930  0.0156  0.1119 -0.0042
 9061W        W25322   6.336   0.587   0.667  0.1130  0.1579 -0.0462
 9062W        W25323  10.760  11.018  14.621  0.0878  0.2693 -0.0646
 9063W        W25324   7.924  12.636   2.419  0.2854  0.2611  0.3838
 9064W        W25325   2.451  14.478  16.171  0.1846  0.0385 -0.1280
 9065W        W25326  18.004   2.675  11.581  0.3388 -0.0876 -0.0870
 9066W        W25327   5.188   6.297  16.123  0.1329 -0.0874  0.1031
 9067W        W25328  12.609  12.415   0.173  0.5278  0.1095  0.0762
 9068W        W25329   9.112  10.000   5.173 -0.1928  0.0461  0.1766
 9069W        W25330  14.899  11.169   4.053 -0.0386  0.1499 -0.1598
 9070W        W25331  10.239   5.968   1.246 -0.2473 -0.2837  0.0844
 9071W        W25332   1.344   4.780  13.864  0.0752 -0.1005 -0.1468
 9072W        W25333   9.576  15.560  14.809 -0.0911 -0.3620 -0.0202
 9073W        W25334   0.767  13.554   1.714 -0.2646 -0.4536 -0.1614
 9074W        W25335  13.619   3.849  15.056  0.5311  0.0302  0.0255
 9075W        W25336   1.698  17.076   3.017 -0.0563 -0.2066 -0.2493
 9076W        W25337   1.803  16.208  14.694 -0.0833 -0.1296 -0.1414
 9077W        W25338  16.745   0.810  16.288  0.1096  0.4822 -0.0807
 9078W        W25339   2.253  14.263  12.440 -0.0897 -0.0225  0.1110
 9079W        W25340   3.168   2.095  14.215  0.2175  0.0689  0.2205
 9080W        W25341   3.412  10.302  12.150  0.0523  0.0384  0.3172
 9081W        W25342   7.178   4.506  13.914  0.1615  0.0793  0.0258
 9082W        W25343   1.250   1.586   6.604 -0.0059  0.2792 -0.1479
 9083W        W25344   7.276  17.572  16.598 -0.2541 -0.1693 -0.0559
 9084W        W25345   9.345  12.362   0.297 -0.1333  0.1241 -0.0557
 9085W        W25346  13.223  15.295   0.845 -0.1511 -0.0939 -0.0033
 9086W        W25347   4.015   2.744  12.243 -0.2389 -0.0400  0.1931
 9087W        W25348  12.199   2.638   5.474  0.2493  0.1181 -0.1195
 9088W        W25349   7.781  16.264  13.489 -0.0088 -0.3005  0.0261
 9089W        W25350   2.799  14.779  16.020 -0.2365  0.0979 -0.2895
 9090W        W25351   5.871  14.851  14.648 -0.2787 -0.0845 -0.2183
 9091W        W25352  16.258   7.334  12.613  0.1606  0.3315 -0.3293
 9092W        W25353   4.687   9.003  15.229 -0.2193 -0.1532  0.2725
 9093W        W25354  12.570  14.843  13.886  0.0131 -0.1910 -0.0899
 9094W        W25355  10.374  17.788   2.390 -0.0257  0.0430 -0.1567
 9095W        W25356   2.026   4.842   4.435  0.0380 -0.1819  0.2060
 9096W        W25357  16.724   7.605  15.823  0.0228  0.0279  0.0728
 9097W        W25358   7.501  14.259   3.852 -0.3256  0.1362  0.0631
 9098W        W25359  11.371  11.053  16.335  0.0551  0.1933  0.0526
 9099W        W25360   7.204   6.270   2.575  0.2175  0.1217 -0.1734
 9100W        W25361   0.262  11.282   0.489  0.2157  0.1077 -0.0269
 9101W        W25362   2.530   6.821   4.688 -0.1364 -0.3174 -0.0960
 9102W        W25363   3.442   8.915   4.383 -0.0251  0.1294  0.2273
 9103W        W25364   2.615  15.962   5.307  0.0696  0.2499  0.2746
 9104W        W25365   4.426   7.259   3.020 -0.0366  0.4058  0.3004
 9105W        W25366   9.948   9.642   3.013 -0.4526 -0.3601 -0.0001
 9106W        W25367   7.540   4.979  11.067 -0.2173  0.1601  0.0018
 9107W        W25368   5.462  10.142  13.059 -0.0769  0.1839  0.0448
 9108W        W25369  13.057  12.145   1.659 -0.1014 -0.0053  0.0118
 9109W        W25370  16.804   0.774   0.941  0.1884 -0.3272 -0.0678
 9110W        W25371   3.445   9.404   5.840  0.0558  0.0966 -0.1302
 9111W        W25372   7.726   7.689  13.018 -0.4095  0.0179 -0.2082
 9112W        W25373   6.155   5.521   2.107 -0.1094  0.3044 -0.0520
 9113W        W25374   6.896  12.219  16.133 -0.1033 -0.2951 -0.1701
 9114W        W25375  12.365   0.085   3.390 -0.3410  0.0335  0.2038
 9115W        W25376   1.712  17.507   4.531 -0.1243  0.2793  0.2701
 9116W        W25377  16.127   4.230   4.968 -0.2618 -0.1799  0.1723
 9117W        W25378   0.209  17.053   6.396 -0.0043 -0.1862  0.0350
 9118W        W25379  12.625   8.658  14.507  0.1757  0.1959  0.0124
 9119W        W25380   0.982  16.449   3.365 -0.0271 -0.0083  0.3708
 9120W        W25381   4.566   5.479  13.862 -0.1208 -0.1209 -0.1951
 9121W        W25382  10.114   4.956  10.963  0.1468 -0.3024 -0.2366
 9122W        W25383  16.160  13.047  11.933 -0.0477 -0.2030 -0.1858
 9123W        W25384   9.782  14.950   5.670  0.0295 -0.0603  0.2715
 9124W        W25385   6.175  16.008   1.438 -0.0472  0.3988 -0.0490
 9125W        W25386   7.673   3.559   1.859  0.1941 -0.0830 -0.3793
 9126W        W25387  16.744   2.707   0.029 -0.2059  0.1470 -0.3183
 9127W        W25388   9.338  16.433   3.292 -0.0056 -0.1375  0.1480
 9128W        W25389  10.423   2.832  12.035  0.0251 -0.1654  0.0400
 9129W        W25390   0.113  11.609   2.726 -0.3639  0.0363 -0.0746
 9130W        W25391   3.833   5.344   0.354 -0.1153  0.1916 -0.0165
 9131W        W25392   5.586   4.894   0.826  0.1871  0.1042 -0.0292
 9132W        W25393  14.758  15.428   4.933  0.2023  0.3365 -0.0016
 9133W        W25394   2.336   0.162  12.027 -0.4498 -0.3707  0.0700
 9134W        W25395   8.276   0.516   0.941  0.1285 -0.0437  0.0508
 9135W        W25396   3.122  14.487   3.397  0.0674 -0.1451  0.0324
 9136W        W25397   4.116   8.171   5.505 -0.2960 -0.0223  0.1181
 9137W        W25398  10.339   7.105   0.235 -0.2588  0.0288  0.1336
 9138W        W25399   2.621   2.733   0.566  0.0074 -0.0235  0.3596
 9139W        W25400   0.182  17.118   5.884  0.0384  0.0038 -0.1966
 9140W        W25401   3.550  14.246  13.668  0.1400  0.2791 -0.1516
 9141W        W25402  14.601  12.971  12.381  0.1940 -0.2229  0.2319
 9142W        W25403   5.745  11.821   5.268 -0.0343  0.0473  0.0202
 9143W        W25404  15.784   4.433   1.399 -0.1118 -0.1819  0.1656
 9144W        W25405  10.421   2.553  14.508 -0.1410  0.1164 -0.0663
 9145W        W25406   2.686   3.728   1.533 -0.1336  0.2291 -0.2195
 9146W        W25407   1.796   6.530  12.928  0.1497 -0.2128  0.2288
 9147W        W25408  15.402   2.424   1.375 -0.0561 -0.3387  0.3203
 9148W        W25409   6.171   6.687   6.188 -0.0004 -0.1791 -0.4304
 9149W        W25410  12.469   5.067   1.903 -0.2255 -0.0790  0.1915
 9150W        W25411   0.524   0.063   3.428 -0.0739 -0.0683  0.0891
 9151W        W25412  12.429  16.083   1.537 -0.0007  0.0109  0.1306
 9152W        W25413   5.943   6.010   5.577  0.1513  0.0074 -0.0210
 9153W        W25414   2.162   7.426   6.232 -0.0701 -0.3203 -0.0939
 9154W        W25415   2.826  15.176   1.108  0.0680 -0.0922  0.1159
 9155W        W25416   0.329  14.640  12.817 -0.3249 -0.1377  0.2427
 9156W        W25417  15.699  12.587  13.526  0.1352 -0.2604 -0.0596
 9157W        W25418  14.597   5.434   1.855 -0.0151  0.2244 -0.0649
 9158W        W25419   3.138   4.858   1.944 -0.3176  0.0543  0.0040
 9159W        W25420  15.954   4.425   2.625 -0.1959  0.1294  0.1703
 9160W        W25421  16.296  13.401  13.064  0.1491  0.0979  0.2746
 9161W        W25422  17.494  11.156   2.735  0.0828  0.1654 -0.2866
 9162W        W25423   9.866  14.226  15.174  0.1362  0.4993  0.1019
 9163W        W25424   8.310   5.619   0.496  0.1836  0.0966  0.0101
 9164W        W25425  15.931   8.169  16.057 -0.1096 -0.3694 -0.1013
 9165W        W25426  16.032   8.282   1.132 -0.0314  0.0187 -0.1703
 9166W        W25427   7.517   1.004   5.728 -0.1479 -0.0357  0.1768
 9167W        W25428   5.344  14.489  13.867 -0.3534  0.0645 -0.2559
 9168W        W25429  16.228  17.517  13.810 -0.1279 -0.1017  0.0625
 9169W        W25430   9.551  14.038  11.943 -0.0559 -0.0920  0.1004
 9170W        W25431   9.042  15.094   3.697  0.2376  0.0349  0.3124
 9171W        W25432  15.378   0.404   5.594 -0.1885  0.2193  0.1930
 9172W        W25433   3.478   1.234   0.137 -0.1291 -0.1690  0.1762
 9173W        W25434   8.906   6.197   4.564  0.3299 -0.2635  0.0271
 9174W        W25435   8.474   6.340  16.075 -0.4498  0.0254  0.1166
 9175W        W25436   7.517   5.149  14.353 -0.0798 -0.1355  0.3648
 9176W        W25437   0.059   7.296  12.092 -0.0280 -0.0613 -0.2844
 9177W        W25438  16.620  11.103  13.120  0.0984  0.0022  0.4844
 9178W        W25439   4.245  17.648   2.941  0.0044  0.0478 -0.0016
 9179W        W25440  12.164   7.104   1.112 -0.1627 -0.3348 -0.2894
 9180W        W25441   5.572  11.399   0.099  0.2533  0.1378 -0.4005
 9181W        W25442  18.120   1.571  13.850 -0.1656  0.2450  0.1583
 9182W        W25443   0.840   3.750  14.727  0.3760  0.0110  0.2755
 9183W        W25444  14.704   7.375  14.909 -0.1734 -0.2124 -0.1258
 9184W        W25445  12.438   6.701  11.954  0.1729  0.1041  0.2982
 9185W        W25446   7.287   4.644  11.687 -0.5013  0.2051  0.1452
 9186W        W25447   2.565   6.592   5.249  0.2225 -0.0700  0.1096
 9187W        W25448  13.265  13.568  13.653 -0.2510 -0.1077  0.1153
 9188W        W25449   6.622  17.831   4.381  0.0014 -0.1524 -0.2110
 9189W        W25450  12.739  17.211  16.340 -0.1169 -0.2626  0.1402
 9190W        W25451   9.159   5.905   0.990  0.1227 -0.0230  0.0206
 9191W        W25452   3.525  13.102   5.672  0.3796 -0.1311  0.3684
 9192W        W25453   1.735  12.214  13.753 -0.1436  0.1366 -0.2150
 9193W        W25454  10.475   0.405   0.848  0.1364 -0.2333  0.0516
 9194W        W25455   7.509   2.102   1.628 -0.1394 -0.2406  0.0780
 9195W        W25456  18.154   3.230   2.496  0.2827  0.2124  0.2461
 9196W        W25457  10.976   5.534  16.153 -0.1592 -0.0832 -0.1128
 9197W        W25458  16.531  14.723   1.830  0.0365  0.2270  0.4186
 9198W        W25459   6.672   8.604   0.090  0.3647 -0.3052 -0.0548
 9199W        W25460   4.537  12.633   1.985 -0.2091  0.0810  0.1807
 9200W        W25461  13.181  15.134   4.153  0.0539  0.1037  0.0030
 9201W        W25462   4.287   7.800   1.287 -0.1041  0.1378 -0.0596
 9202W        W25463   4.072   5.606   6.412  0.0388  0.0274  0.1591
 9203W        W25464   9.076  12.901  11.922  0.4096 -0.1115  0.2010
 9204W        W25465  13.057   6.995   2.406  0.0356  0.0551 -0.1197
 9205W        W25466  17.511  15.805  15.294 -0.2524  0.2463  0.1734
 9206W        W25467  16.006  14.658   3.582  0.1005 -0.2445 -0.1551
 9207W        W25468   2.841   1.896  12.766  0.0535 -0.1384  0.0604
 9208W        W25469  13.996  16.500  11.354 -0.0349 -0.1725 -0.1040
 9209W        W25470   2.344  12.622   3.723  0.1029  0.0381 -0.1735
 9210W        W25471   7.936   8.974   3.175  0.0496 -0.3090 -0.0495
 9211W        W25472  13.429  15.414   4.513  0.0037  0.1432  0.1235
 9212W        W25473   5.734   5.875   2.645 -0.0451  0.0248  0.3842
 9213W        W25474  17.074  12.670   6.160 -0.2610 -0.0095  0.2100
 9214W        W25475  16.403   0.119  13.134 -0.2577 -0.3407 -0.0111
 9215W        W25476  11.055  16.618   2.751 -0.1020  0.0037  0.0205
 9216W        W25477  15.332  16.188  15.711 -0.1224 -0.2145 -0.0094
 9217W        W25478   5.079  16.337  14.117 -0.1568 -0.1175  0.0002
 9218W        W25479   0.353  13.974   0.710 -0.0550  0.1491 -0.0915
 9219W        W25480  13.296  15.510   5.539  0.0700  0.0372  0.0322
 9220W        W25481   3.442   8.081   1.115 -0.0543 -0.1742  0.0853
 9221W        W25482   2.692  12.558  11.365 -0.0500  0.3357 -0.2614
 9222W        W25483  17.478   1.356  11.402  0.1641 -0.2307 -0.0047
 9223W        W25484   5.827  10.427   1.669  0.1000  0.0892  0.1710
 9224W        W25485   6.489   6.462  14.198  0.2565 -0.0534  0.1386
 9225W        W25486  12.623   5.799  13.115  0.0427 -0.0153  0.1410
 9226W        W25487   3.259   9.870   3.531  0.0694  0.0991 -0.1164
 9227W        W25488  12.821   0.628  15.024  0.0654 -0.2723  0.1595
 9228W        W25489  13.778  14.967  11.741  0.0039 -0.1683 -0.1562
 9229W        W25490   0.203   0.448   5.623  0.3492 -0.2031 -0.0931
 9230W        W25491   9.507   0.570  15.176  0.2772 -0.2387  0.1197
 9231W        W25492   0.423   4.244  15.738 -0.3950 -0.0848  0.0928
 9232W        W25493  11.698  11.729   4.419  0.1801  0.0742 -0.0175
 9233W        W25494  10.652  12.948  13.645 -0.4437  0.2250  0.0452
 9234W        W25495  16.776   1.654  15.023  0.0398  0.1295 -0.1343
 9235W        W25496   4.790   3.882  12.581 -0.1030 -0.2829 -0.4278
 9236W        W25497   1.102  13.973   4.783  0.2114  0.0983  0.3912
 9237W        W25498   4.872   5.890  13.675 -0.1551  0.1732 -0.1740
 9238W        W25499   2.922  10.564   5.496  0.0113 -0.0464 -0.2408
 9239W        W25500  12.660   7.521  12.804 -0.2085  0.0427  0.1005
 9240W        W25501   3.936  17.102   0.449  0.0677  0.0058 -0.0467
 9241W        W25502   7.455  10.152  13.565 -0.0386 -0.0487 -0.0141
 9242W        W25503   0.180   4.830   0.245 -0.0884 -0.1431  0.0286
 9243W        W25504   3.541   9.426  13.463  0.2735  0.0704  0.0744
 9244W        W25505   8.414   3.542   2.554 -0.1399  0.4114 -0.1757
 9245W        W25506  16.306   5.150   1.486  0.3487  0.1595  0.0920
 9246W        W25507   2.933  13.434   0.977 -0.1036  0.0832  0.0485
 9247W        W25508   7.015  15.760  13.897  0.0011  0.0054  0.0201
 9248W        W25509   0.282   6.148  16.250 -0.1817 -0.4067 -0.0296
 9249W        W25510   0.959  10.674  15.991  0.0900 -0.4334 -0.3695
 9250W        W25511   2.293  14.078  15.231  0.0996 -0.1551 -0.0079
 9251W        W25512  16.388   9.432  13.478 -0.2743  0.0199 -0.0271
 9252W        W25513  17.364  17.142  13.899 -0.0851  0.1100  0.0878
 9253W        W25514   3.612  13.629   4.952  0.1413 -0.2004 -0.4817
 9254W        W25515   4.649   3.570   1.593 -0.1400 -0.0445  0.0352
 9255W        W25516   3.109   6.969  13.385 -0.2555 -0.0654 -0.3346
 9256W        W25517  11.246  18.150  15.363 -0.2836  0.0153  0.0519
 9257W        W25518   9.182   4.878  15.581 -0.2457 -0.2051 -0.2781
 9258W        W25519   8.109   3.477   1.679 -0.2320 -0.3293 -0.2311
 9259W        W25520  16.009  10.937  13.832  0.1105 -0.0144  0.2038
 9260W        W25521   3.656   4.206   1.542  0.0367  0.1454  0.1923
 9261W        W25522  10.274  15.630  13.877 -0.1710  0.1952 -0.2578
 9262W        W25523  15.455   1.594   4.456  0.0873  0.1086 -0.1877
 9263W        W25524  14.458   9.053   4.695  0.2731  0.1611 -0.0634
 9264W        W25525   4.790   0.808  15.027  0.0810 -0.0338 -0.2529
 9265W        W25526  10.307   6.210  16.481 -0.3140 -0.0056  0.0487
 9266W        W25527  10.105   9.821   1.761  0.1319 -0.1368  0.0128
 9267W        W25528  17.123   1.117   5.818  0.1100 -0.1851 -0.1266
 9268W        W25529  14.680   8.270   4.184  0.1465  0.2551 -0.4149
 9269W        W25530  10.539   9.076   5.660  0.2165  0.0543  0.0125
 9270W        W25531  16.024   6.613   4.465 -0.2305  0.2872 -0.0016
 9271W        W25532   5.982   5.442   3.323 -0.0601  0.0838  0.3531
 9272W        W25533   8.963   1.324   3.330 -0.1334  0.1868 -0.3088
 9273W        W25534  15.901  14.833   5.783 -0.0623 -0.3548 -0.1039
 9274W        W25535  12.842  16.799  12.364  0.2506 -0.0747 -0.0042
 9275W        W25536   0.225   2.689  13.605 -0.1855 -0.1103  0.1788
 9276W        W25537  17.444   5.973   4.663 -0.0006  0.0794 -0.1716
 9277W        W25538   9.664   4.025  10.842 -0.0699  0.0871  0.3971
 9278W        W25539  10.330   0.035  15.122  0.2199 -0.0352  0.1406
 9279W        W25540   0.033  12.393   0.774  0.1045 -0.2538  0.0310
 9280W        W25541   5.534  15.680  12.608  0.0817  0.0278  0.1335
 9281W        W25542   7.885   6.940  16.350 -0.1508  0.1322 -0.2483
 9282W        W25543   8.221  11.408   3.807 -0.1091 -0.1940 -0.2126
 9283W        W25544  15.209  17.138   3.119 -0.1616 -0.1219 -0.1011
 9284W        W25545   1.926  11.039  16.107  0.2998 -0.0630  0.1220
 9285W        W25546   1.770   2.352   3.835  0.1159  0.0955  0.1458
 9286W        W25547  17.826   2.342   3.730 -0.1838  0.2328 -0.0223
 9287W        W25548   2.325   9.213  14.686 -0.0234 -0.1660  0.0911
 9288W        W25549   5.981   5.511  12.819  0.0144  0.0210 -0.2570
 9289W        W25550  15.998  13.982  15.619 -0.1213 -0.0786 -0.2714
 9290W        W25551   4.621  12.765  14.204 -0.1459 -0.4223  0.0608
 9291W        W25552  14.192  12.771   0.170  0.0190  0.2380  0.1204
 9292W        W25553   2.601  15.729  12.981  0.3549 -0.2703  0.0705
 9293W        W25554  13.620  18.051   0.105  0.0707 -0.0955  0.1101
 9294W        W25555  14.059  15.137   1.057  0.1831  0.0740  0.0684
 9295W        W25556  11.505  11.829  16.429  0.0310  0.2122 -0.2108
 9296W        W25557   5.598   6.403   0.537  0.0336 -0.0017  0.2169
 9297W        W25558  15.890  14.978  12.764 -0.0351 -0.0599 -0.1890
 9298W        W25559  11.925  11.918  13.061  0.1206  0.1934  0.2185
 9299W        W25560   4.322   2.451   3.016  0.1750  0.0142 -0.1921
 9300W        W25561  14.342  15.114  13.279  0.2238  0.2759 -0.2100
 9301W        W25562   2.398  16.873   0.511  0.1866  0.0500 -0.1406
 9302W        W25563   2.132  15.674   1.336 -0.1397  0.1792 -0.0465
 9303W        W25564   6.980  13.377   1.058 -0.0253  0.3637 -0.1372
 9304W        W25565   1.299   6.042   6.074 -0.3410  0.0335  0.1165
 9305W        W25566   4.931  13.336   3.585  0.2172 -0.3347 -0.0068
 9306W        W25567   3.683  17.535   3.217 -0.0116 -0.4204 -0.0141
 9307W        W25568   2.547  15.426   5.381 -0.2959  0.1396 -0.2596
 9308W        W25569  11.548   9.014   4.949  0.2548 -0.2151 -0.0448
 9309W        W25570   4.753   5.960   2.557  0.2472  0.0144  0.0640
 9310W        W25571   4.815   6.462  16.452  0.0203  0.1736  0.1171
 9311W        W25572   8.437   3.881  15.266  0.2387  0.0149 -0.1390
 9312W        W25573   4.174  10.780   1.745  0.2132  0.1851  0.1114
 9313W        W25574  17.296  17.930   0.152  0.1385 -0.0293  0.0617
 9314W        W25575  13.403   4.224  14.654  0.3916 -0.2078  0.2270
 9315W        W25576   2.614  12.549   1.143  0.0639 -0.2985  0.3148
 9316W        W25577   7.584   1.227  15.919 -0.0109 -0.0596  0.1981
 9317W        W25578   3.847  11.875  12.653  0.0018  0.0413  0.0005
 9318W        W25579   9.937   1.187  15.302 -0.1371  0.0737 -0.0647
 9319W        W25580   6.680   6.356  11.571 -0.0483  0.0476  0.1306
 9320W        W25581   9.245   6.218   4.023 -0.0621  0.1238  0.0731
 9321W        W25582   3.103  16.552   4.895 -0.1837  0.0455 -0.0507
 9322W        W25583  16.995   6.742   4.906  0.2431  0.3372  0.5660
 9323W        W25584   1.396  15.223   1.935 -0.1185 -0.3632  0.2280
 9324W        W25585   5.560   2.925   0.064  0.2987  0.3225  0.1843
 9325W        W25586   4.200   9.629  11.858 -0.2357 -0.0042  0.0396
 9326W        W25587  17.043   2.501  11.409 -0.2934  0.2463  0.2019
 9327W        W25588  10.462   4.857  15.739 -0.0208  0.4131 -0.1177
 9328W        W25589  11.741   1.690  11.830 -0.0804  0.2275 -0.0487
 9329W        W25590  16.756  10.785   3.045 -0.0902 -0.1305  0.2676
 9330W        W25591   3.538   6.217   6.459  0.0144  0.1003  0.1690
 9331W        W25592  11.904   3.682  12.780  0.2068  0.1218 -0.1223
 9332W        W25593  16.831  18.045   3.635  0.0787 -0.1651  0.1162
 9333W        W25594   4.023   6.253   2.774 -0.2079  0.1362 -0.2803
 9334W        W25595   2.137   8.274   1.100 -0.2776 -0.1469 -0.0535
 9335W        W25596  13.120   3.567   1.688 -0.1452  0.0005  0.0718
 9336W        W25597   7.081  14.456  14.115 -0.1081  0.0974 -0.0896
 9337W        W25598   3.620   5.217   2.083 -0.1930 -0.1023 -0.2256
 9338W        W25599   4.077  16.600   2.901 -0.1095  0.2728 -0.0426
 9339W        W25600   2.048  12.109   4.310 -0.0956 -0.0642 -0.1632
 9340W        W25601   9.513   4.204  14.460 -0.1787 -0.0060 -0.1428
 9341W        W25602  13.624   9.278  15.533 -0.2692  0.0344 -0.0739
 9342W        W25603   5.838   3.446   4.748  0.0030 -0.1320 -0.2452
 9343W        W25604   6.580   8.980   1.336  0.0749  0.1966 -0.0621
 9344W        W25605   2.429   9.171   0.394  0.0077  0.0988  0.1052
 9345W        W25606  18.148  16.101  14.501  0.0631 -0.0112  0.1041
 9346W        W25607  17.394  14.165  12.709  0.1285  0.1142 -0.0828
 9347W        W25608   7.799   8.869  14.053  0.2597 -0.4798 -0.1583
 9348W        W25609  17.766  17.222   2.949  0.0247  0.1350  0.1056
 9349W        W25610   3.110  14.229  15.307  0.0575  0.1005 -0.2076
 9350W        W25611   1.775  14.356   4.224 -0.1817  0.1882  0.2503
 9351W        W25612   3.101   2.735   4.793 -0.1348  0.1421 -0.1254
 9352W        W25613  10.439   3.377  14.127  0.3406 -0.0004  0.1797
 9353W        W25614  12.344   9.832  11.928 -0.1493  0.3179  0.2389
 9354W        W25615   9.365   0.217  15.529  0.0215  0.1610 -0.2107
 9355W        W25616   9.551  13.914   4.768  0.0611 -0.3999 -0.4907
 9356W        W25617   9.685  11.219   2.429 -0.1070  0.1286 -0.1723
 9357W        W25618  10.541  12.470   2.973 -0.1416  0.0864 -0.0151
 9358W        W25619  14.768  16.838  11.577  0.0416  0.0895  0.1222
 9359W        W25620   3.977   3.374   2.590  0.0959 -0.0818 -0.0436
 9360W        W25621  15.122  14.179   3.888  0.1049 -0.0037 -0.0513
 9361W        W25622  14.328   7.805   1.352 -0.0666 -0.2380 -0.2172
 9362W        W25623  11.440   8.973   0.583  0.1455  0.2879 -0.0403
 9363W        W25624  17.251  15.096   0.569  0.0581 -0.0148 -0.0351
 9364W        W25625   5.239  17.127   2.812 -0.1848  0.1521  0.1681
 9365W        W25626  11.100   8.227   1.199 -0.0030  0.0585  0.0537
 9366W        W25627   0.383   7.285  15.665  0.0498 -0.0683 -0.2366
 9367W        W25628   1.416  14.523   4.675  0.1076  0.4353  0.0110
 9368W        W25629  17.566   3.034  16.064  0.0699 -0.1885 -0.1282
 9369W        W25630  17.890  14.220   2.764  0.3518  0.2351 -0.2655
 9370W        W25631   3.612  14.338  15.506  0.1196 -0.0648  0.3261
 9371W        W25632  17.161   8.428  13.076  0.1096  0.0774 -0.0584
 9372W        W25633   4.604  11.816   1.104  0.4195 -0.0381  0.0089
 9373W        W25634  10.402  11.905   3.067  0.0054  0.1068 -0.0978
 9374W        W25635  12.118  16.879   3.515 -0.2226  0.0782 -0.0705
 9375W        W25636   6.067   8.144  16.227 -0.0049 -0.0047  0.1838
 9376W        W25637  13.867  13.569   1.457  0.2913 -0.3361  0.4379
 9377W        W25638  11.464  10.601  15.268 -0.3325  0.1335  0.0622
 9378W        W25639   5.692  14.445   3.398  0.0997  0.0008  0.2777
 9379W        W25640   6.490   4.758   2.968  0.1957 -0.0766  0.1567
 9380W        W25641   6.447   0.225   0.973 -0.1844  0.1236 -0.1048
 9381W        W25642   2.357   0.765  13.590 -0.0199  0.1209 -0.0702
 9382W        W25643  11.304  11.697   3.311 -0.0355  0.0487 -0.3915
 9383W        W25644  10.218  17.670  13.266 -0.2019 -0.2580  0.0280
 9384W        W25645  14.355  10.939  14.515  0.1093 -0.3766  0.3942
 9385W        W25646   4.631  13.631   5.415  0.1426  0.1155 -0.0026
 9386W        W25647   2.484  17.697  12.275  0.1662 -0.0975  0.2060
 9387W        W25648   8.313   0.705  13.833 -0.1941  0.1079 -0.0592
 9388W        W25649   6.657  13.722  14.327 -0.1927 -0.2808  0.3119
 9389W        W25650  10.019  16.812   4.265  0.0694 -0.2966 -0.0381
 9390W        W25651  15.919   2.059  16.223  0.0187 -0.4740  0.1663
 9391W        W25652   1.758  14.151   0.728 -0.1352  0.0485  0.1827
 9392W        W25653   4.716   9.543   0.396 -0.0583  0.2074  0.2189
 9393W        W25654   4.910   0.291   3.178  0.2057  0.2084  0.1285
 9394W        W25655  14.171   9.660   1.734 -0.0760  0.0120  0.0803
 9395W        W25656  10.073   0.486   6.054  0.5922  0.1122  0.4434
 9396W        W25657  14.330   4.688  13.224  0.0506 -0.0583  0.1686
 9397W        W25658   0.700  15.123  13.339 -0.0892  0.1103  0.1983
 9398W        W25659  14.821  17.169   5.081  0.0404 -0.3247  0.0301
 9399W        W25660  18.075   0.824  14.574 -0.1954  0.0331  0.2636
 9400W        W25661  13.873  17.226  13.989  0.1105 -0.1509 -0.0355
 9401W        W25662  11.088   8.059  15.874  0.0186  0.1031  0.0919
 9402W        W25663  13.077  15.845  14.635 -0.0824 -0.1201  0.0184
 9403W        W25664   4.302   7.048   0.928 -0.0494 -0.1475  0.0499
 9404W        W25665  17.679  14.993  11.805 -0.2508 -0.1586  0.2753
 9405W        W25666  14.083   6.846   3.179  0.2845 -0.1642  0.2345
 9406W        W25667  14.499   7.971  11.922 -0.1004 -0.4910  0.1835
 9407W        W25668  10.330   1.032  14.513 -0.1948 -0.0296 -0.2244
 9408W        W25669   2.764  11.000   3.227  0.4908 -0.0086  0.0541
 9409W        W25670  15.070   1.613   2.445  0.2854 -0.0479  0.0325
 9410W        W25671  13.693  16.106   0.608  0.0290  0.0279 -0.3185
 9411W        W25672  15.568   0.201  13.861  0.0838 -0.1006  0.0831
 9412W        W25673   2.991   7.653  13.578 -0.3343 -0.2678 -0.2138
 9413W        W25674  17.443  13.867  14.481 -0.1947 -0.1205 -0.2370
 9414W        W25675  15.275   0.239  16.261 -0.0683  0.0481 -0.0940
 9415W        W25676   3.953   5.364  16.222 -0.0636  0.1117  0.4341
 9416W        W25677  10.627  14.192   0.359  0.1639  0.1296 -0.0213
 9417W        W25678  10.418   9.880   3.944 -0.0573  0.0944  0.0634
 9418W        W25679   9.060  16.643   2.705 -0.0606 -0.2421 -0.1230
 9419W        W25680   4.333   8.243   1.531 -0.0375 -0.0407 -0.4094
 9420W        W25681   7.093  12.026  12.327 -0.0516  0.0197 -0.0918
 9421W        W25682  12.266   6.706   0.475 -0.0232 -0.0203  0.0514
 9422W        W25683  15.878  15.079   0.324 -0.2703 -0.2890  0.1916
 9423W        W25684  16.538   4.185  12.785  0.0070 -0.1304 -0.0430
 9424W        W25685   6.800   8.429  15.780  0.0144 -0.2269 -0.0161
 9425W        W25686   5.595   9.473   4.135 -0.3011  0.2011  0.3616
 9426W        W25687   8.451  14.798  14.441 -0.2361 -0.1504 -0.0902
 9427W        W25688   6.555   7.036   4.266 -0.1120 -0.1075 -0.0434
 9428W        W25689   7.263   7.388  12.239  0.0070  0.0976  0.1141
 9429W        W25690   9.925   2.222   3.354 -0.0567  0.0835 -0.1662
 9430W        W25691  17.296   8.773  14.406  0.4360  0.1447  0.0485
 9431W        W25692   6.727   0.500   1.522  0.0037 -0.0213 -0.1414
 9432W        W25693   3.093   8.136  13.470 -0.0669 -0.2329  0.0032
 9433W        W25694  10.434  12.626   1.640  0.0898  0.0643  0.0148
 9434W        W25695   0.559  11.070  12.254  0.0084 -0.3408  0.1378
 9435W        W25696  17.959   6.089   1.813 -0.0230 -0.2346 -0.0193
 9436W        W25697   8.372  12.154   5.311  0.0105  0.2926  0.1254
 9437W        W25698  13.683  17.489   0.859  0.0835  0.0263  0.2811
 9438W        W25699   0.951   7.875  11.837 -0.0941 -0.0610 -0.0675
 9439W        W25700  10.146  13.639   3.429 -0.0005  0.3447 -0.0372
 9440W        W25701   9.620   0.152  13.502  0.2305  0.0031 -0.2665
 9441W        W25702   7.044  12.799  14.580  0.2875  0.0296  0.2159
 9442W        W25703   1.453  12.390  12.493  0.2984 -0.2786 -0.1002
 9443W        W25704   0.405   5.415  15.061  0.2147  0.0186  0.0508
 9444W        W25705  13.184   3.663  11.025 -0.3458 -0.3275  0.0861
 9445W        W25706   3.249   2.289   5.623 -0.0075 -0.0309 -0.2351
 9446W        W25707  17.088  12.541  11.332  0.0560 -0.2833 -0.4874
 9447W        W25708   7.380   4.515   3.153  0.0569  0.2050 -0.2908
 9448W        W25709  12.649   0.038  14.537  0.1651 -0.0450  0.1952
 9449W        W25710  11.664   3.258  14.120 -0.1370  0.0229  0.2975
 9450W        W25711   8.975   0.637   2.092  0.2289  0.1148  0.0917
 9451W        W25712  10.987   4.423  11.765  0.1196 -0.3038  0.1049
 9452W        W25713  12.050  16.567  16.180 -0.2418  0.1756  0.0615
 9453W        W25714  12.390   5.594  14.069  0.0003  0.0489  0.2826
 9454W        W25715   3.077   6.684   2.105  0.1365  0.2915  0.1780
 9455W        W25716   1.746  11.571   1.164  0.0679  0.0991  0.2960
 9456W        W25717   0.819   3.741  12.077  0.1839 -0.0451 -0.1445
 9457W        W25718   5.621   4.298   1.397  0.0190 -0.0698  0.3662
 9458W        W25719   2.788   5.505   3.561 -0.1224 -0.1891 -0.0888
 9459W        W25720  13.402   0.656   2.214 -0.0350  0.0497 -0.0171
 9460W        W25721   4.083  12.942   2.497  0.3542  0.0993  0.2224
 9461W        W25722   4.016  15.731  13.393  0.0924  0.1473 -0.1405
 9462W        W25723   7.486   7.124   4.215 -0.1033 -0.3602  0.4471
 9463W        W25724   1.534   9.167   1.415 -0.0588  0.2695  0.3307
 9464W        W25725   4.063  15.414   0.963  0.1980 -0.0490  0.2903
 9465W        W25726   1.070   8.614  11.417 -0.0975  0.1234  0.0581
 9466W        W25727   8.411   4.811  13.910  0.0244 -0.0070  0.1789
 9467W        W25728   2.563  14.342   1.178  0.1242 -0.1087  0.0682
 9468W        W25729   2.361   2.237   6.047 -0.1591 -0.3823  0.3276
 9469W        W25730  11.274  13.784  14.114 -0.1352 -0.0048 -0.0207
 9470W        W25731   2.770  14.927  13.661 -0.0710 -0.0728 -0.2082
 9471W        W25732  14.529   1.229  16.050 -0.0914  0.2640  0.2039
 9472W        W25733   8.386   9.034  15.038  0.0540  0.1248  0.3505
 9473W        W25734  17.624   1.193  11.888  0.0471 -0.2065  0.2846
 9474W        W25735   7.403   2.922   2.925  0.1283  0.0939 -0.0780
 9475W        W25736   7.781  17.209   0.676 -0.1650 -0.0815 -0.0843
 9476W        W25737   8.482   8.356   4.239 -0.1840 -0.0683 -0.2821
 9477W        W25738   1.186   2.079  13.038 -0.1906  0.1398 -0.0774
 9478W        W25739   9.447   5.438  14.237 -0.1826 -0.0262 -0.2848
 9479W        W25740  17.517   1.616  15.683 -0.2310  0.1289  0.0899
 9480W        W25741   4.028   5.263   2.805  0.0621 -0.4598  0.1160
 9481W        W25742  17.641  13.815  13.350  0.1504  0.1365  0.0107
 9482W        W25743   9.625   8.910   3.090 -0.0986 -0.0147 -0.1469
 9483W        W25744  10.246  14.195  11.426 -0.2035 -0.1562 -0.0689
 9484W        W25745   1.736   9.913   3.081  0.1324  0.1300  0.1333
 9485W        W25746   6.429   3.759  11.859  0.0542  0.3151  0.3204
 9486W        W25747  10.288  13.956   4.372  0.0821 -0.0461 -0.0534
 9487W        W25748   4.785   9.526  15.263 -0.2336 -0.0655  0.2610
 9488W        W25749   9.157   4.858   2.892  0.0501 -0.4776  0.0110
 9489W        W25750   8.941   1.131   1.271  0.5370 -0.1182  0.1201
 9490W        W25751  11.916  13.415   2.913 -0.0402  0.1893  0.3258
 9491W        W25752   0.136  11.045  14.597  0.1935 -0.1572 -0.0541
 9492W        W25753  10.261  15.889   4.159  0.0884 -0.1557  0.1217
 9493W        W25754  11.471   1.665   2.571  0.1213 -0.1364  0.2115
 9494W        W25755  12.777  10.322  13.606  0.0216  0.0566  0.0035
 9495W        W25756  10.275  15.797   4.701  0.0074 -0.0598 -0.0076
 9496W        W25757  16.248  17.061  11.632  0.1485 -0.2686  0.0992
 9497W        W25758   3.612   1.481  16.395  0.2350 -0.0266  0.4498
 9498W        W25759  14.930  16.699   4.171 -0.0332 -0.0130 -0.4986
 9499W        W25760  15.682   2.034   2.675 -0.0131  0.2879  0.5292
 9500W        W25761   3.624   8.682   2.404 -0.4683 -0.1115 -0.3671
 9501W        W25762   8.058  11.826  12.282  0.1870  0.1059  0.1044
 9502W        W25763  12.458   1.288   0.140  0.1890 -0.1781  0.0671
 9503W        W25764  14.432  14.465   0.815 -0.1271 -0.0840 -0.1757
 9504W        W25765  10.232  10.966   4.559  0.2160 -0.1249  0.0327
 9505W        W25766  17.064   0.537  13.625  0.0089 -0.2774  0.0311
 9506W        W25767   0.784   0.526  13.549 -0.3386 -0.0136  0.1542
 9507W        W25768   3.845   5.335  15.361  0.2499 -0.2334 -0.1556
 9508W        W25769  15.994  12.786   2.687  0.3506 -0.0428  0.0666
 9509W        W25770   2.902   0.307  11.781  0.0240  0.1300  0.1269
 9510W        W25771   1.151   6.133   1.805 -0.0557  0.0395 -0.1198
 9511W        W25772  10.690   2.788   1.009  0.0119 -0.0289  0.4433
 9512W        W25773  17.473  15.247   4.536 -0.2111 -0.1510  0.2567
 9513W        W25774   7.266  13.159  16.531 -0.3410  0.0252  0.1236
 9514W        W25775   3.756  15.362  12.520  0.0565  0.1048  0.3757
 9515W        W25776   6.722   3.451   0.051  0.1624 -0.0756  0.0661
 9516W        W25777   5.583   8.394   1.876 -0.1106  0.0353 -0.3018
 9517W        W25778  13.126   1.679   4.395 -0.0186  0.3912 -0.0174
 9518W        W25779  15.117  12.941  12.484  0.2677  0.4216  0.2150
 9519W        W25780  10.360   2.703   2.098 -0.2706  0.3052 -0.0016
 9520W        W25781  13.556  15.605   1.341  0.0322 -0.3924 -0.0400
 9521W        W25782  15.669  17.008   0.593  0.1453  0.1971  0.0747
 9522W        W25783  14.998  16.860  13.286 -0.0831 -0.1405 -0.1205
 9523W        W25784   6.523   4.011   4.017  0.1185 -0.0507 -0.0348
 9524W        W25785   6.233  15.116   5.266 -0.0934  0.2282 -0.0766
 9525W        W25786   6.323   4.234  12.758  0.1973 -0.0152 -0.0427
 9526W        W25787   6.654  17.329  14.387 -0.1106  0.0832 -0.1142
 9527W        W25788   9.178   2.541  11.479 -0.4190  0.1716 -0.1973
 9528W        W25789   9.135  17.462   6.046  0.0038  0.2083 -0.1550
 9529W        W25790  14.027  15.347   3.661 -0.1957 -0.0344 -0.0593
 9530W        W25791   8.407   1.739   2.475 -0.0470 -0.0510 -0.1797
 9531W        W25792  15.684   3.177   4.249 -0.0196  0.0327 -0.0592
 9532W        W25793   0.757   2.541  16.131  0.1059 -0.4052 -0.3459
 9533W        W25794  16.055  17.349  14.236 -0.0218  0.1218 -0.1923
 9534W        W25795   4.486   7.000   2.589  0.0695  0.1659 -0.0493
 9535W        W25796   5.991  16.992  16.138  0.0439 -0.0055 -0.2051
 9536W        W25797   6.897   1.265  11.856  0.2046 -0.0880 -0.0491
 9537W        W25798   6.803   6.619  15.526 -0.1609  0.2530 -0.2811
 9538W        W25799  12.418   1.841   1.559  0.1887  0.0685  0.1258
 9539W        W25800   8.864   6.800   6.108  0.2039 -0.2060  0.0021
 9540W        W25801   6.117   8.035   5.158  0.0727 -0.0519  0.2424
 9541W        W25802   0.404   0.296   2.967  0.0148  0.3271  0.1241
 9542W        W25803   4.590   8.621   2.853  0.1709  0.1023 -0.1088
 9543W        W25804  17.045   4.426   1.032  0.1560  0.2155 -0.2689
 9544W        W25805  15.220  12.726   3.891  0.1572 -0.2949 -0.0472
 9545W        W25806   6.340   5.912   4.029 -0.1355 -0.1589  0.5465
 9546W        W25807   3.716   9.073   1.883  0.1135 -0.1377 -0.0373
 9547W        W25808   1.050  16.948   2.563  0.1356 -0.1674  0.3160
 9548W        W25809   2.101  18.111  14.043  0.1322  0.2961 -0.0087
 9549W        W25810   1.544  15.396   5.761 -0.2110 -0.0169  0.0739
 9550W        W25811   4.471  11.316  12.784 -0.1009 -0.1442  0.3451
 9551W        W25812  12.994   4.923  16.312  0.2163 -0.0353 -0.6008
 9552W        W25813  14.889   5.288   4.839  0.1406 -0.0556 -0.2619
 9553W        W25814   5.795   9.289  12.887 -0.0126 -0.2020 -0.0156
 9554W        W25815   2.307  10.906  12.527  0.1342 -0.2960  0.1813
 9555W        W25816  13.990   3.861  12.525 -0.0733 -0.3394  0.2423
 9556W        W25817   5.183   1.626  15.287  0.0499  0.0196 -0.0502
 9557W        W25818   1.611  14.899   2.307  0.0405 -0.2570 -0.4856
 9558W        W25819  14.865  11.122  11.019  0.0824 -0.0080 -0.1878
 9559W        W25820  16.861  16.358   4.404  0.0967 -0.0818 -0.2463
 9560W        W25821  13.302  16.284   0.396 -0.0277  0.1955  0.1392
 9561W        W25822  16.210   7.593  14.200  0.1822 -0.0276 -0.0202
 9562W        W25823   9.708  10.966   4.546  0.1464  0.0439  0.2532
 9563W        W25824   9.104   0.281   2.477 -0.1803  0.2225 -0.0937
 9564W        W25825   8.072  10.582  13.391  0.0444  0.2990  0.2151
 9565W        W25826  11.255  13.522  16.530 -0.2434 -0.2390 -0.0431
 9566W        W25827   6.341  15.884  13.567  0.2372  0.1238 -0.1460
 9567W        W25828   6.472   5.512   3.711 -0.2641  0.0662  0.1112
 9568W        W25829   9.161   7.222  13.888 -0.0302  0.0255 -0.0770
 9569W        W25830  13.990   0.701   3.140 -0.2332  0.2494  0.2378
 9570W        W25831   4.299   3.355   2.956 -0.2328  0.1838 -0.1667
 9571W        W25832   0.662   4.653   5.030  0.0371 -0.0809  0.1744
 9572W        W25833  14.590   5.395  11.086 -0.0634 -0.1892 -0.1009
 9573W        W25834  17.436  14.158  11.966 -0.1619 -0.2740 -0.0466
 9574W        W25835   0.784  10.189  14.059  0.2659  0.0582 -0.3637
 9575W        W25836  14.825  13.421  12.552 -0.3226 -0.2330  0.0731
 9576W        W25837  16.610   8.961   2.367 -0.0755 -0.2800 -0.1470
 9577W        W25838   4.006   2.426  13.608  0.0064 -0.1153  0.2218
 9578W        W25839   4.807   0.485  13.099  0.2792  0.0837  0.0194
 9579W        W25840   3.038   0.819   4.356 -0.0173  0.3149 -0.3284
 9580W        W25841  17.545   0.176   0.042 -0.3376 -0.0722 -0.3775
 9581W        W25842  18.139  13.656  16.128 -0.0383 -0.0268  0.2671
 9582W        W25843  10.330   4.129  15.574 -0.0091  0.1402 -0.3336
 9583W        W25844   9.372   5.249   2.690 -0.1782  0.2013 -0.0958
 9584W        W25845  12.242  14.111  13.175  0.0630 -0.0680  0.0225
 9585W        W25846   1.063   8.346  12.817  0.0552  0.1044  0.0039
 9586W        W25847   8.952  14.030  14.351  0.0181 -0.2312 -0.1065
 9587W        W25848  10.915  10.411  14.157  0.2011  0.0743 -0.2117
 9588W        W25849  16.167   3.696  14.523 -0.1027  0.3884 -0.0508
 9589W        W25850  12.188   0.900   1.415 -0.0057 -0.3663  0.1079
 9590W        W25851   2.447  13.976  16.370  0.1650  0.0342  0.0396
 9591W        W25852  14.221   4.108  16.500 -0.2563  0.0015  0.1162
 9592W        W25853   6.927   1.872   0.438 -0.3014  0.4071 -0.2135
 9593W        W25854   0.553  17.796  11.723  0.1894  0.0881  0.1705
 9594W        W25855  10.740  10.882  14.108  0.3045  0.0699  0.0089
 9595W        W25856   1.813  14.398   5.062 -0.1275 -0.0262 -0.1825
 9596W        W25857   1.230   9.531   1.072 -0.1749  0.0870 -0.0293
 9597W        W25858  16.288  11.842   3.437 -0.1676 -0.0874 -0.1398
 9598W        W25859   9.876   3.532   4.769  0.2729 -0.0099 -0.0003
 9599W        W25860   3.920  16.147   5.537  0.2603  0.1140 -0.2174
 9600W        W25861  14.706  17.456   1.739 -0.0658  0.1026 -0.3611
 9601W        W25862   4.719   4.723  16.232 -0.0381  0.0053 -0.0519
 9602W        W25863   6.909   3.233   0.971 -0.0461  0.0921  0.0679
 9603W        W25864  11.806  15.064  14.844  0.1411 -0.1957  0.0056
 9604W        W25865  11.507   7.768  11.650  0.1328 -0.2961  0.3009
 9605W        W25866  10.008   9.108   2.821 -0.1060 -0.0503 -0.0001
 9606W        W25867  16.919  13.924   4.695  0.0222 -0.3190  0.4223
 9607W        W25868   7.081   6.681  11.762  0.2605 -0.0584  0.0535
 9608W        W25869  12.740  15.778   3.239  0.3482  0.2004 -0.1420
 9609W        W25870   5.693   3.230   3.334 -0.0052 -0.0489  0.1214
 9610W        W25871  10.450   2.180   1.234  0.0947 -0.1109  0.1956
 9611W        W25872  15.405   9.375  13.190  0.1558  0.1245 -0.2637
 9612W        W25873   6.654  15.657  14.216 -0.2739 -0.3980 -0.2516
 9613W        W25874  10.959  14.171   1.682 -0.1378 -0.1240  0.2860
 9614W        W25875  12.618   6.828  14.692  0.2735  0.1179 -0.0549
 9615W        W25876  16.255   7.442  15.638 -0.0715  0.0948  0.0635
 9616W        W25877   4.297   9.579   4.743  0.0348 -0.1337  0.0232
 9617W        W25878   6.047   5.815  16.513  0.4591  0.0925  0.0204
 9618W        W25879   7.473   3.566  11.520 -0.3627  0.3530  0.3249
 9619W        W25880  16.194  15.865  11.180 -0.0038 -0.3341 -0.0056
 9620W        W25881  16.050  15.426   5.132  0.1444  0.1090  0.4422
 9621W        W25882  10.021  12.084  11.825 -0.1518  0.0472  0.2099
 9622W        W25883   9.858   1.780   5.040  0.1197  0.0414 -0.1631
 9623W        W25884  15.455   4.977  15.435  0.2289 -0.4253  0.0647
 9624W        W25885  13.592   9.063   1.273  0.0449  0.0248  0.0999
 9625W        W25886   9.700  12.568   1.525 -0.1454  0.0657  0.2401
 9626W        W25887   6.739   2.309  13.452 -0.1103  0.0745  0.2040
 9627W        W25888  12.423   7.509  13.426  0.1300 -0.0663  0.1691
 9628W        W25889   0.205   6.046   3.382  0.0351 -0.1514  0.0329
 9629W        W25890   6.277   5.223   4.295 -0.0042 -0.1961 -0.0227
 9630W        W25891   9.312   1.525  14.589  0.0029 -0.0316  0.0700
 9631W        W25892   2.452  13.005   0.827 -0.0820 -0.2339  0.0584
 9632W        W25893  16.239   5.190  15.010  0.4124  0.1449  0.0545
 9633W        W25894   8.613  10.859   0.619  0.0036 -0.1162 -0.1727
 9634W        W25895   6.337   9.408   1.547 -0.1996  0.0113  0.1487
 9635W        W25896   9.515  16.403   4.883  0.1377 -0.3503  0.2533
 9636W        W25897   4.547  13.830   4.927 -0.5327  0.0863  0.4621
 9637W        W25898  15.915  15.769   3.727 -0.2558 -0.1718 -0.1100
 9638W        W25899  15.886  15.273   3.462  0.0531  0.2431  0.0448
 9639W        W25900   7.377   0.738  16.108  0.1254  0.2335 -0.1306
 9640W        W25901  13.160  11.375   4.468 -0.1217  0.0732  0.1498
 9641W        W25902   6.569   9.466  12.940  0.2112  0.1000 -0.3550
 9642W        W25903  17.458   2.851  14.651 -0.3129  0.2258 -0.0005
 9643W        W25904   6.380   9.603  14.740 -0.2671  0.1214  0.0064
 9644W        W25905  11.531   2.405   4.400 -0.1568 -0.2794  0.0235
 9645W        W25906   0.073  15.126  13.179  0.0984  0.1598  0.1327
 9646W        W25907  15.064  13.955   0.528 -0.0229  0.1501 -0.3254
 9647W        W25908  10.839   5.006  16.133  0.2476 -0.2476 -0.1836
 9648W        W25909   9.761   8.801  11.571 -0.0632 -0.1889 -0.0710
 9649W        W25910  17.561  15.328  15.588 -0.0195  0.0216  0.3031
 9650W        W25911   5.343  16.922  15.991  0.2102  0.1013 -0.0692
 9651W        W25912  13.339  18.154  13.913  0.0783 -0.3885  0.1842
 9652W        W25913   8.039   5.116   3.528  0.0094  0.2278  0.1145
 9653W        W25914   5.325   8.061  14.824 -0.1566 -0.0268  0.0509
 9654W        W25915  13.253  10.747   5.073  0.1224  0.0890  0.1470
 9655W        W25916  16.526  14.330   0.257 -0.0616  0.1466  0.0531
 9656W        W25917   1.982  11.266  13.611  0.1081  0.0439 -0.0136
 9657W        W25918   5.349   2.793   4.012  0.1223 -0.1135 -0.1061
 9658W        W25919   9.361  12.442  14.344  0.2587 -0.1669 -0.1260
 9659W        W25920  17.823  15.437  15.147  0.0849 -0.0940 -0.1871
 9660W        W25921  16.676  13.905   5.891 -0.0273 -0.1080 -0.0400
 9661W        W25922   4.747   5.973  11.774  0.0516 -0.0616  0.2625
 9662W        W25923   9.748  14.092  11.489 -0.0379  0.0216 -0.0872
 9663W        W25924   2.303   5.219   1.203  0.0449  0.2174 -0.0347
 9664W        W25925  10.486  17.327   0.620 -0.0355  0.0589 -0.0866
 9665W        W25926  12.599   1.588  12.850 -0.0572 -0.1800 -0.1965
 9666W        W25927   8.943   9.467   6.739 -0.1094  0.0817 -0.1083
 9667W        W25928   3.388   1.036   4.018  0.2075 -0.1828  0.0209
 9668W        W25929   1.365  13.782  15.363  0.3593  0.0110 -0.0714
 9669W        W25930  12.091  10.990  11.726 -0.0401  0.1310 -0.3095
 9670W        W25931   2.768   4.505  14.526  0.2106 -0.0522 -0.0574
 9671W        W25932   6.614   6.931  14.260  0.0735 -0.2483  0.2351
 9672W        W25933   7.868  10.230   4.024  0.2606  0.2241  0.3508
 9673W        W25934  16.123   0.539  15.612  0.2119  0.1346 -0.0937
 9674W        W25935   9.268   9.995   1.649 -0.0396  0.0454 -0.1282
 9675W        W25936  12.991   2.717   0.357 -0.2326  0.1405  0.2997
 9676W        W25937   6.179  17.599   2.716 -0.3875  0.0944 -0.4549
 9677W        W25938   2.964   7.873   3.918  0.0601  0.0556 -0.1665
 9678W        W25939  13.329   5.251   0.753  0.2223 -0.0916  0.0080
 9679W        W25940  11.685  16.774  15.420 -0.0597  0.1048 -0.3466
 9680W        W25941   2.693   1.497  13.077  0.3322 -0.2863 -0.1979
 9681W        W25942   6.765   0.270  14.994 -0.0384 -0.2445  0.3635
 9682W        W25943   7.389  11.638   3.597 -0.0035  0.0044 -0.1226
 9683W        W25944   9.916  17.474   3.802 -0.0348  0.0935 -0.2137
 9684W        W25945  16.584  10.009   1.655  0.0747 -0.3270 -0.2171
 9685W        W25946  13.999  10.905  11.223 -0.1725  0.1848 -0.1015
 9686W        W25947   6.706   1.544   5.206 -0.1554  0.0213  0.0687
 9687W        W25948   9.902   4.365   1.903  0.2218 -0.1870 -0.4090
 9688W        W25949  13.694   7.717  14.846  0.0371  0.2400  0.2281
 9689W        W25950  17.465  11.292  11.702  0.1526 -0.1529  0.0326
 9690W        W25951  16.854   9.225  13.644  0.2156  0.2022 -0.1688
 9691W        W25952  15.670  15.715   4.223  0.0334 -0.3830 -0.0499
 9692W        W25953  16.601   7.440   6.424 -0.0475  0.2591 -0.3455
 9693W        W25954   7.463  13.107  14.520 -0.0289  0.0076  0.0284
 9694W        W25955   1.824   4.731  12.257 -0.2294  0.0292  0.2359
 9695W        W25956   0.362  14.327   4.352 -0.0613  0.0594 -0.1452
 9696W        W25957  15.711   7.828  12.288 -0.3895  0.1983  0.0787
 9697W        W25958   4.127   3.603  13.909  0.1815 -0.0466 -0.0127
 9698W        W25959  10.916  10.819   1.080 -0.1821  0.3684  0.0400
 9699W        W25960  13.888   9.987  14.490  0.0352 -0.2035 -0.1670
 9700W        W25961   4.368   6.327   1.431 -0.1604  0.0534  0.1417
 9701W        W25962  11.878  13.553  14.111  0.0842  0.0789 -0.3170
 9702W        W25963  11.596  16.590   5.360  0.2583 -0.0672  0.1601
 9703W        W25964   6.410   0.310   6.117  0.1808  0.0473 -0.1874
 9704W        W25965   7.940  10.055  13.441 -0.0689 -0.3033 -0.1342
 9705W        W25966  13.802   4.317  14.904 -0.1713 -0.0450  0.1002
 9706W        W25967  14.060  11.217  13.678  0.0745 -0.0323  0.1007
 9707W        W25968   9.567   5.217  16.151 -0.1554  0.2446  0.1633
 9708W        W25969   8.383   0.611  15.893  0.1830 -0.0780  0.0105
 9709W        W25970  13.051   7.582   2.426  0.1695  0.1128  0.1316
 9710W        W25971  12.728   3.589  11.135 -0.1078 -0.1584  0.4189
 9711W        W25972   0.191  17.406  13.478  0.0201 -0.0340  0.2528
 9712W        W25973   9.821   7.085  14.582  0.0809  0.1779  0.0112
 9713W        W25974   3.919   9.421   3.677  0.0353 -0.1219  0.1817
 9714W        W25975  10.729   7.441  16.585  0.2422  0.1161 -0.1112
 9715W        W25976   8.761  10.092   4.466 -0.0159 -0.0577  0.2967
 9716W        W25977  11.927   1.330   1.349  0.3156 -0.0348  0.1317
 9717W        W25978   2.708   2.132   1.336  0.1252 -0.0013  0.1788
 9718W        W25979   1.481   5.619   6.293  0.3463  0.2508  0.1301
 9719W        W25980   0.711   7.727   1.799 -0.0503  0.1788  0.2039
 9720W        W25981   7.899  11.953   0.122  0.3019  0.4225 -0.1405
 9721W        W25982   2.100  12.374   1.087  0.2002 -0.1133  0.0572
 9722W        W25983   1.005  18.012   3.405 -0.1161  0.0611  0.0791
 9723W        W25984  14.134  16.177  12.598  0.1076  0.0703 -0.3218
 9724W        W25985  14.264  15.159  11.863  0.0161 -0.0125 -0.0064
 9725W        W25986   6.978  13.462   2.922  0.0035  0.1060  0.0189
 9726W        W25987   9.169   5.802   2.456 -0.1385 -0.0281  0.0317
 9727W        W25988  13.590  12.596   2.481  0.3359 -0.0121 -0.4108
 9728W        W25989  11.561   7.572   4.273 -0.2242  0.1197 -0.0512
 9729W        W25990   7.333  18.132   1.899 -0.1880  0.2049 -0.1459
 9730W        W25991  16.269   7.238  13.783  0.1305 -0.0021 -0.1315
 9731W        W25992   8.046   5.765  14.181  0.0839 -0.0163  0.0608
 9732W        W25993  15.669  17.177   2.640 -0.1551 -0.4145 -0.2235
 9733W        W25994  15.430   0.676  16.035 -0.0564 -0.1739  0.0731
 9734W        W25995   1.551  14.826   2.784  0.1699 -0.2402  0.1589
 9735W        W25996   2.487   3.296  16.614 -0.0261  0.2669 -0.0758
 9736W        W25997  13.749  16.560   3.007  0.0021 -0.1071  0.0301
 9737W        W25998   4.038  11.268   6.464 -0.1691 -0.3364  0.0288
 9738W        W25999   9.704  10.323  16.036 -0.1698 -0.0160  0.0172
 9739W        W26000   5.680   7.878   0.238 -0.1290  0.0594  0.0976
 9740W        W26001  14.760  12.395   3.853 -0.1621 -0.1118 -0.2169
 9741W        W26002  14.620   9.051   3.793 -0.1072 -0.1832  0.1692
 9742W        W26003  16.625   1.095  12.551 -0.0461 -0.2795 -0.1367
 9743W        W26004   1.774   6.590  15.535 -0.3263 -0.0507  0.2550
 9744W        W26005  12.584  12.700   2.071 -0.0143  0.3381  0.2797
 9745W        W26006   3.992   2.357  12.597 -0.1137 -0.3569  0.0838
 9746W        W26007   3.443   3.329   3.774 -0.0617  0.3198  0.1247
 9747W        W26008  15.995   3.119   2.631 -0.1063  0.1015 -0.1917
 9748W        W26009   4.067  16.679   1.822  0.2023 -0.1162 -0.0853
 9749W        W26010  16.265   1.970   3.487 -0.1234  0.1068 -0.2252
 9750W        W26011   2.643  12.253   2.004 -0.0094  0.0068 -0.0979
 9751W        W26012  10.232   7.869  16.366 -0.3980  0.1705  0.5808
 9752W        W26013   3.048  11.916   0.102  0.2920 -0.3105  0.0643
 9753W        W26014   8.926   7.632   2.848 -0.0018 -0.0046 -0.1019
 9754W        W26015   8.915   6.160  12.214 -0.1860 -0.1431  0.1486
 9755W        W26016   9.635   2.181   1.900 -0.0982 -0.0111  0.2396
 9756W        W26017   7.872  17.513  14.409  0.0007 -0.0453  0.0320
 9757W        W26018  12.099   3.442   1.849  0.1410  0.4173 -0.1443
 9758W        W26019  15.996   0.364   5.531 -0.1225 -0.0025 -0.0494
 9759W        W26020  17.472  11.127   3.280 -0.2017  0.4037 -0.0011
 9760W        W26021   5.625   9.292   4.707  0.1142 -0.0628  0.0757
 9761W        W26022   2.275  15.407  12.758 -0.1198  0.1929 -0.1866
 9762W        W26023   8.823   3.242  13.743 -0.1666 -0.1871 -0.3194
 9763W        W26024  14.480   5.037   2.086  0.2668  0.1415 -0.0202
 9764W        W26025  13.481   9.893  11.632  0.0472  0.0640 -0.3814
 9765W        W26026   7.875   5.525   1.699 -0.0392 -0.3745  0.0037
 9766W        W26027   0.019   3.652   3.239  0.0806 -0.1557 -0.1234
 9767W        W26028  17.917   2.948  11.091  0.1694  0.0710  0.0765
 9768W        W26029   6.706  10.019   4.983  0.1692 -0.0646 -0.2803
 9769W        W26030   4.333  18.183   2.902  0.1685  0.6030  0.0123
 9770W        W26031  12.304   0.022   4.692 -0.1452  0.0372  0.2331
 9771W        W26032   5.959   1.157  15.678  0.0465 -0.0386 -0.2167
 9772W        W26033   5.804   5.760  14.932  0.0735 -0.1102 -0.3956
 9773W        W26034  11.382   6.643  13.418 -0.0335  0.1052 -0.1130
 9774W        W26035  12.068   6.823   2.832 -0.1806  0.1555 -0.1778
 9775W        W26036  11.065   9.335   4.692 -0.0102  0.1509 -0.0818
 9776W        W26037   3.612   2.459  14.362  0.2650 -0.3183 -0.0820
 9777W        W26038   8.402   8.417   5.518  0.0841  0.0228 -0.1705
 9778W        W26039   7.745   8.208   1.009  0.1017  0.0322 -0.2186
 9779W        W26040   0.144  16.107   4.871 -0.1122 -0.1064 -0.1440
 9780W        W26041   4.183  10.333   3.802  0.1269  0.1291  0.1372
 9781W        W26042  15.658  15.246   1.769  0.0598  0.0881 -0.1613
 9782W        W26043   5.524  13.536  16.052  0.0937  0.0173  0.1568
 9783W        W26044   4.569   0.327  14.873 -0.0983  0.0215 -0.1306
 9784W        W26045  11.418  15.062  14.086  0.0730 -0.0964 -0.0824
 9785W        W26046  13.429  12.344  13.332  0.1368 -0.3717  0.2822
 9786W        W26047   0.269  11.637   1.674 -0.2307 -0.0005 -0.2137
 9787W        W26048   2.221  10.213  14.116 -0.1495 -0.2012  0.1006
 9788W        W26049   2.586  14.449  13.844  0.1232  0.0265  0.1371
 9789W        W26050  12.268   8.264  14.672 -0.1655  0.0955 -0.0361
 9790W        W26051   7.533  15.884  13.871 -0.2530 -0.0950 -0.1465
 9791W        W26052  17.771  17.303  12.730  0.0618  0.0676 -0.1804
 9792W        W26053   6.664  15.221   5.034  0.0213 -0.1271  0.0053
 9793W        W26054  16.672  10.753  15.801  0.0172  0.0472 -0.0870
 9794W        W26055   4.900   9.241  14.319  0.1208  0.2571  0.1309
 9795W        W26056  12.688   5.632   1.095  0.0784  0.1888 -0.0277
 9796W        W26057   6.491  13.328   3.313 -0.1566  0.0393  0.2551
 9797W        W26058  13.164  13.310   4.432 -0.0649  0.0211  0.1318
 9798W        W26059   0.301  14.204  12.608  0.1687  0.3423  0.1708
 9799W        W26060  13.173  14.382   1.245 -0.1428 -0.0518  0.1201
 9800W        W26061   7.694   5.158   0.510  0.3640  0.2224 -0.1809
 9801W        W26062  17.411   4.985  14.029  0.0049 -0.1699  0.0443
 9802W        W26063   3.730   4.210  13.841  0.1311 -0.2411 -0.2041
 9803W        W26064   8.482  17.038  13.738 -0.2566 -0.2062  0.1779
 9804W        W26065   8.870   1.385   4.469 -0.1522 -0.0526  0.4264
 9805W        W26066  11.015  15.674   2.848  0.1865  0.0507  0.1281
 9806W        W26067   4.049   0.569   0.551 -0.1374  0.5538  0.0163
 9807W        W26068  13.873  16.140   5.445  0.0398 -0.0844 -0.1564
 9808W        W26069   3.445  16.211   4.667 -0.0740 -0.1827 -0.1072
 9809W        W26070   0.752  17.887   5.801 -0.0772  0.2628 -0.1682
 9810W        W26071  10.084  16.369  11.269 -0.0157 -0.0905 -0.0493
 9811W        W26072  17.958   7.269  14.872 -0.0141  0.2770 -0.0315
 9812W        W26073   1.219   9.319  14.784 -0.0903 -0.1297 -0.0234
 9813W        W26074   0.381   8.266   5.839 -0.1732  0.0452 -0.0383
 9814W        W26075  10.154   2.621   4.176 -0.1420 -0.1296 -0.5670
 9815W        W26076   9.648  16.871   0.604  0.2734  0.0747  0.0072
 9816W        W26077   7.166  15.645  14.975 -0.2904  0.0096 -0.2780
 9817W        W26078   3.435   6.995   0.596 -0.1599  0.0835 -0.0302
 9818W        W26079  16.203  17.527   2.041  0.0939 -0.0824 -0.1362
 9819W        W26080   5.030  13.109   3.078  0.1428  0.0433 -0.2827
 9820W        W26081   9.239   3.581  11.251  0.0868 -0.0123  0.0072
 9821W        W26082   9.840  15.005   1.073 -0.0916  0.1115 -0.2669
 9822W        W26083  12.205   9.218  12.766 -0.1859 -0.0088 -0.2198
 9823W        W26084  14.215   4.340   2.052  0.0901 -0.2594  0.3098
 9824W        W26085   7.125   3.907   0.023 -0.1529  0.1761  0.1951
 9825W        W26086  16.355  12.570  12.059 -0.0491 -0.0113 -0.1982
 9826W        W26087   9.165  14.118   1.051  0.0038  0.2396  0.2966
 9827W        W26088  11.558  10.305  14.027 -0.5437  0.1398 -0.0857
 9828W        W26089  12.738   6.251  12.819 -0.1431 -0.0904  0.1412
 9829W        W26090  10.884  16.256   0.827  0.0019 -0.0317 -0.0348
 9830W        W26091  17.864   4.769   5.267  0.0420 -0.1345 -0.0240
 9831W        W26092   0.016  14.229  12.139  0.1775 -0.2007  0.2073
 9832W        W26093  15.107   4.601   3.814  0.1926  0.4464 -0.1543
 9833W        W26094  14.391   2.389  15.404  0.2742  0.0781  0.0108
 9834W        W26095   8.186   6.263   3.965  0.0343 -0.2002  0.2379
 9835W        W26096  11.418  12.729   5.416 -0.1707 -0.0749  0.0391
 9836W        W26097  10.875   3.973   1.644  0.0525 -0.2707  0.0188
 9837W        W26098   2.911  11.496   2.279 -0.0353  0.0843 -0.0408
 9838W        W26099   4.858   8.075   5.139  0.1995 -0.1659  0.2540
 9839W        W26100   7.995  15.907   3.762 -0.0858 -0.0844  0.0082
 9840W        W26101   6.191   1.650  15.353 -0.2804  0.1088  0.0143
 9841W        W26102   4.234   3.850  16.284 -0.1906 -0.0209 -0.1087
 9842W        W26103  12.774  14.610   4.077  0.1866 -0.0506  0.0248
 9843W        W26104   1.820   1.122  14.742 -0.0972 -0.0239 -0.0540
 9844W        W26105   7.963  16.935  11.206 -0.2453 -0.0392 -0.3873
 9845W        W26106   1.307   7.354  15.022  0.1602 -0.1610  0.2049
 9846W        W26107   9.429   8.143   1.240 -0.2330 -0.2323 -0.1710
 9847W        W26108  17.417  11.372  14.313 -0.0833 -0.0968  0.0687
 9848W        W26109   9.224  11.564   0.700  0.0804 -0.2591 -0.3359
 9849W        W26110  10.208  15.226  12.295 -0.1842  0.1768 -0.0657
 9850W        W26111   0.175   8.652  11.994  0.0049  0.0686 -0.1263
 9851W        W26112  12.610   0.877   1.755 -0.0281  0.2844  0.1989
 9852W        W26113  10.582  15.792  11.626 -0.1001  0.3159 -0.1575
 9853W        W26114   7.529  10.137  12.473  0.2145  0.0286  0.1760
 9854W        W26115  17.260   0.578   0.871 -0.0687 -0.0127  0.2962
 9855W        W26116  12.943   5.420  14.522  0.0909 -0.1486  0.2001
 9856W        W26117  14.216  17.962  13.394 -0.1739 -0.1696  0.0230
 9857W        W26118  12.163  12.724   4.658 -0.2325  0.0571 -0.0652
 9858W        W26119   2.378   7.749   2.352  0.1739  0.0484 -0.1509
 9859W        W26120   5.865   4.669  11.981 -0.2811 -0.0442  0.6287
 9860W        W26121   5.402   9.806   5.216 -0.2237 -0.1201  0.1029
 9861W        W26122  18.143   7.454  13.704  0.2232  0.2574  0.1898
 9862W        W26123   0.045   7.281   4.560  0.1813  0.0642 -0.1884
 9863W        W26124   4.324   5.536  11.652  0.2230  0.1551 -0.0173
 9864W        W26125  17.612   8.275  11.957 -0.1787  0.1420 -0.2105
 9865W        W26126  14.089  17.631  16.111  0.1567  0.1503 -0.1209
 9866W        W26127   7.909   4.668   0.748 -0.0175  0.0090 -0.0253
 9867W        W26128  16.611  16.662  12.871  0.2656  0.0747 -0.1454
 9868W        W26129   5.025  10.216  16.118 -0.2839  0.0220 -0.2330
 9869W        W26130   8.328   3.640  14.676  0.0595  0.2411  0.0947
 9870W        W26131  16.455   2.703   2.838 -0.0338 -0.1160 -0.0172
 9871W        W26132  17.768   6.472   3.323  0.1452  0.1535 -0.2089
 9872W        W26133  10.667  14.782   5.264  0.0507 -0.1657  0.0826
 9873W        W26134   6.288  10.687  12.166  0.0835  0.0330  0.3081
 9874W        W26135  16.653   2.073   6.577 -0.0794 -0.1318  0.1087
 9875W        W26136   8.985  11.774  16.444  0.4266  0.1545  0.1391
 9876W        W26137  13.416   2.627  13.967 -0.0283 -0.2657  0.0875
 9877W        W26138  11.410  16.482   4.061  0.1062 -0.0138 -0.2901
 9878W        W26139  13.211   3.756  15.986 -0.1022 -0.0012 -0.2539
 9879W        W26140   1.409  16.761  12.760  0.5104 -0.3212 -0.0867
 9880W        W26141   9.417   8.486  15.500  0.1807 -0.1443 -0.1635
 9881W        W26142   4.144  11.677  15.589 -0.2168 -0.0474 -0.3068
 9882W        W26143  15.218  13.571  16.047 -0.2628 -0.0099  0.2425
 9883W        W26144  14.491   3.773  15.766  0.2193  0.2943  0.1414
 9884W        W26145  17.034   4.828  14.354  0.2524  0.0854  0.2114
 9885W        W26146   1.926   0.262  12.619  0.1007 -0.0473 -0.1687
 9886W        W26147   3.099  11.609   1.829 -0.2967 -0.2731 -0.0441
 9887W        W26148   0.168  17.522   3.552  0.0802  0.0277 -0.2076
 9888W        W26149   7.688  12.464  11.637  0.0693  0.0331  0.0099
 9889W        W26150   4.033   9.346  13.990 -0.0478 -0.1269 -0.2482
 9890W        W26151  11.336  11.601   1.409 -0.1651  0.2266 -0.0455
 9891W        W26152  13.006   4.191  14.268  0.2092  0.0967 -0.3756
 9892W        W26153   7.172   4.713   1.693 -0.1163 -0.0584 -0.2281
 9893W        W26154  10.720   9.990   3.590 -0.0564  0.5299  0.0696
 9894W        W26155   2.359  10.581   3.100 -0.0958  0.0910 -0.0548
 9895W        W26156  10.255  14.444  16.581 -0.1180  0.2254 -0.2292
 9896W        W26157  13.111  11.940  16.106 -0.0063  0.1108 -0.0351
 9897W        W26158  18.146   7.234  16.062  0.2920  0.3331  0.0227
 9898W        W26159  15.279   5.029   2.225 -0.1202 -0.1830 -0.1564
 9899W        W26160  10.126  13.059  14.326  0.0072 -0.1770 -0.0085
 9900W        W26161  17.756   3.456  13.517 -0.0955  0.0790 -0.0362
 9901W        W26162  13.085  12.918   4.127 -0.0724  0.3312  0.0067
 9902W        W26163   8.457   1.464   3.272  0.2361  0.0218  0.0471
 9903W        W26164  17.810   7.755   3.824  0.1579  0.3015 -0.0353
 9904W        W26165  17.622  13.403  12.987  0.2179  0.0343 -0.2742
 9905W        W26166  16.682  15.861   4.232 -0.0453  0.0262  0.1428
 9906W        W26167  15.695   5.540  12.060 -0.2047 -0.1132  0.0521
 9907W        W26168  13.011  12.310   1.246  0.2408 -0.0466 -0.1493
 9908W        W26169  10.185  14.434   2.925 -0.0184 -0.0093  0.2838
 9909W        W26170   4.098   0.633   1.349 -0.0846  0.2017 -0.3390
 9910W        W26171  11.266   8.601  10.425  0.0074  0.1916  0.1348
 9911W        W26172  14.295  13.706  13.150 -0.1929 -0.1407  0.0324
 9912W        W26173   3.932   1.562   3.281  0.0748 -0.0852  0.2567
 9913W        W26174  13.532   4.673  12.053 -0.4385  0.0673  0.1919
 9914W        W26175   0.792  12.026  16.111  0.0471 -0.0339 -0.1198
 9915W        W26176   2.322  11.333  14.834  0.2591 -0.2679 -0.2767
 9916W        W26177  13.794  13.628   3.260  0.3064  0.1016  0.1137
 9917W        W26178  13.279   0.212  11.447  0.1634 -0.1458 -0.0167
 9918W        W26179  12.133  13.092   4.325  0.0486  0.2535 -0.0403
 9919W        W26180  10.495   9.642  12.422 -0.0287 -0.0039  0.0045
 9920W        W26181   0.624   3.149   4.132  0.0912  0.2851  0.3433
 9921W        W26182  12.259  17.859   4.143 -0.3225 -0.0225  0.0004
 9922W        W26183  12.676  11.168   2.050  0.2676 -0.0334 -0.0454
 9923W        W26184   3.020  14.027   6.552 -0.2474 -0.3140  0.0680
 9924W        W26185   2.426  13.357   2.739  0.0957 -0.2376  0.3760
 9925W        W26186   6.609  14.506   2.013 -0.1760  0.0581 -0.1143
 9926W        W26187  15.710   3.118  14.735  0.0623 -0.0486 -0.1006
 9927W        W26188  13.516  14.861  13.400 -0.1971 -0.0244 -0.2584
 9928W        W26189   2.975   3.780  12.368  0.0680 -0.2451  0.3260
 9929W        W26190   0.384  16.227   0.970  0.1063  0.1222 -0.1978
 9930W        W26191   6.774  15.643  16.190  0.2544  0.0578 -0.2684
 9931W        W26192   2.227   2.891  14.941  0.0386 -0.0583 -0.1677
 9932W        W26193   8.464   4.271  13.494 -0.0861 -0.0800  0.0390
 9933W        W26194   2.418   9.120   2.224  0.1642  0.2129 -0.3072
 9934W        W26195   4.359   7.188   5.158 -0.2766 -0.3021  0.0727
 9935W        W26196   6.168  13.502  11.683 -0.2489 -0.0703  0.0351
 9936W        W26197   5.025  16.788   2.340 -0.1687  0.0710 -0.1021
 9937W        W26198  12.229  10.964   2.129  0.2602  0.1056 -0.0952
 9938W        W26199   2.450  17.180  15.632 -0.0523 -0.2827 -0.1316
 9939W        W26200   2.082   4.501  11.793 -0.2051  0.2541 -0.1573
 9940W        W26201   1.804  11.849   3.277 -0.2271  0.1407 -0.3910
 9941W        W26202  11.840  10.961   2.500  0.2321 -0.0117 -0.0237
 9942W        W26203   2.896   2.494   2.016 -0.1739  0.0332  0.2381
 9943W        W26204  16.416  13.584  15.217 -0.0561 -0.1896 -0.4131
 9944W        W26205  16.733   9.430   3.469 -0.2143 -0.1163  0.0617
 9945W        W26206   4.162   4.026  14.146  0.1531 -0.2477  0.0085
 9946W        W26207   9.529   0.087  12.918  0.1982  0.4780  0.0275
 9947W        W26208  11.952  13.102  15.874 -0.1155 -0.1342 -0.1303
 9948W        W26209  16.351  18.049   4.402  0.1904  0.2075 -0.0693
 9949W        W26210   8.707  10.956   2.673  0.3902 -0.3308 -0.0775
 9950W        W26211  10.325   5.701   3.043  0.2066  0.2189 -0.1430
 9951W        W26212  13.281   8.407   2.663  0.1004  0.2089 -0.0268
 9952W        W26213  17.350  14.821   2.594 -0.1288  0.1629 -0.0357
 9953W        W26214   3.243  10.808  12.232  0.2174 -0.1553  0.0767
 9954W        W26215   3.564  15.828   4.314 -0.2635 -0.1871 -0.2560
 9955W        W26216  11.684   4.065  12.495  0.0247  0.0049  0.0752
 9956W        W26217  17.971   9.685   1.203  0.0490  0.0979 -0.3533
 9957W        W26218  12.137  12.993  15.002  0.0814  0.1569 -0.0054
 9958W        W26219  15.240  14.806   0.687  0.0882 -0.1170  0.4773
 9959W        W26220   7.876  13.312  14.446 -0.0780  0.1748  0.0616
 9960W        W26221  12.249  11.089   5.900  0.0074  0.3970 -0.2613
 9961W        W26222  12.800   3.901   4.772  0.1055 -0.0087  0.0819
 9962W        W26223   1.307   7.357  14.051 -0.3258  0.0962 -0.0081
 9963W        W26224  16.353   6.243   4.354  0.1043 -0.2903 -0.1248
 9964W        W26225  15.117   4.895  11.400 -0.0744 -0.1294  0.1200
 9965W        W26226   9.525  16.734  11.936  0.0744  0.1757  0.1599
 9966W        W26227   5.726   2.247  16.492  0.0230 -0.3339  0.4206
 9967W        W26228  13.281  17.260  13.379  0.2267 -0.0066  0.1046
 9968W        W26229  13.413  12.487  13.808 -0.0300 -0.3638  0.0692
 9969W        W26230  15.824  16.103   2.265  0.4124  0.0611  0.2266
 9970W        W26231  16.240   9.870  12.344 -0.1596  0.2406  0.0365
 9971W        W26232   3.779  16.183  12.573  0.0507 -0.3689  0.2549
 9972W        W26233  17.705  11.816   4.989 -0.1314  0.2977  0.1179
 9973W        W26234   4.269  10.029   0.992 -0.0222  0.2743 -0.2124
 9974W        W26235  12.165   5.907   2.259 -0.0827 -0.1576 -0.3558
 9975W        W26236  18.082   7.798   2.416  0.1535  0.1422  0.1258
 9976W        W26237   8.940   4.663  12.018  0.0583 -0.1168  0.1569
 9977W        W26238  12.069   8.524  11.034 -0.1253  0.0035  0.1338
 9978W        W26239   0.761   7.977  15.915  0.1505 -0.2081  0.0822
 9979W        W26240   1.670  16.748   0.993  0.0649 -0.2275 -0.0774
 9980W        W26241   5.795   0.037  16.209  0.0610  0.1627  0.0894
 9981W        W26242   8.724  10.701   3.152 -0.0814  0.0098 -0.1279
 9982W        W26243   2.401  13.591   1.867 -0.3116 -0.0340  0.0316
 9983W        W26244   9.478  12.976   1.858 -0.1277 -0.1291  0.0755
 9984W        W26245  18.137  17.462  12.420  0.1737  0.1319 -0.2298
 9985W        W26246   3.697   0.290  12.497  0.2449  0.1357 -0.3856
 9986W        W26247  15.285  13.511   1.272 -0.3149 -0.4498 -0.0683
 9987W        W26248   0.556   5.241  14.199 -0.1413 -0.2525 -0.0733
 9988W        W26249   1.064   4.024   1.757  0.0387 -0.0640  0.0748
 9989W        W26250   1.439   6.495   5.772  0.0827 -0.1767 -0.1357
 9990W        W26251   0.279   7.180  14.818  0.1598 -0.0166  0.0727
 9991W        W26252  16.387   5.609   1.631 -0.1937  0.1063 -0.1207
 9992W        W26253   0.645   2.238  14.504 -0.0994 -0.3508  0.0336
 9993W        W26254   7.715   5.512  11.840  0.1506 -0.0794 -0.0440
 9994W        W26255   8.983   2.485  16.490 -0.1466  0.1361  0.1289
 9995W        W26256  16.986   0.663   3.963  0.0406 -0.0413  0.0611
 9996W        W26257  10.406   3.703   0.366 -0.1829 -0.0363  0.2954
 9997W        W26258   5.958   3.971   1.351  0.1635  0.1450 -0.4550
 9998W        W26259  14.644   6.290  15.239 -0.1530  0.0810 -0.0476
 9999W        W26260  10.771   1.216  16.080 -0.0696 -0.0247  0.0721
10000W        W26261   4.532   6.180  13.350 -0.1181  0.2894  0.1463
10001W        W26262  11.491  13.013  12.050  0.1771 -0.0279  0.3092
10002W        W26263   5.133  16.456  16.235  0.3628 -0.3428  0.1503
10003W        W26264  11.249  17.662   2.879 -0.1027  0.4042  0.3468
10004W        W26265   5.274  13.556   4.555 -0.1098 -0.4174 -0.1287
10005W        W26266  11.005  16.592   4.453  0.0100  0.2546  0.0221
10006W        W26267  11.509   4.347   3.292 -0.1428  0.1438 -0.1249
10007W        W26268  16.725  14.916   0.368 -0.2141 -0.1596  0.1501
10008W        W26269  13.048   1.355  11.192  0.2887 -0.0808  0.0886
10009W        W26270   2.448  15.094   6.146  0.3064  0.1286  0.3121
10010W        W26271   6.434   3.201  14.156  0.0968 -0.0612  0.1328
10011W        W26272  13.042   6.074   0.937  0.0473 -0.0128  0.0883
10012W        W26273  15.830  13.801  13.949 -0.3623  0.0013 -0.0596
10013W        W26274  13.557  13.843   1.825 -0.4288 -0.1916 -0.1291
10014W        W26275   6.255  15.227  11.978 -0.1295 -0.1137 -0.1182
10015W        W26276  12.488  17.586  11.982  0.2844  0.0969  0.1390
10016W        W26277  16.562   2.876   3.295  0.1805 -0.0933  0.0838
10017W        W26278   8.250   2.761  14.323  0.2677 -0.2704 -0.1561
10018W        W26279  16.231   2.285   1.120  0.2532 -0.2540 -0.0067
10019W        W26280  12.621   1.597   1.008 -0.0942  0.0759 -0.2552
10020W        W26281   7.455   1.049   3.491  0.1607 -0.2922 -0.0563
10021W        W26282   1.851  11.466  14.892 -0.0414 -0.0866  0.0118
10022W        W26283  17.162   8.244   5.113  0.2180 -0.2044  0.0593
10023W        W26284  12.903   5.411  13.095  0.1549  0.1539  0.2737
10024W        W26285   4.325   0.766   0.903 -0.1477  0.1322 -0.2426
10025W        W26286   9.191  14.822  14.141  0.1352  0.0474 -0.0889
10026W        W26287  13.890   5.629  11.906 -0.1344  0.0681  0.2288
10027W        W26288  17.463  16.620  12.498  0.1877  0.0310 -0.2952
10028W        W26289  17.030  10.111  14.645  0.0242  0.2236  0.0038
10029W        W26290   0.257  12.946   1.641  0.0250  0.0968 -0.2275
10030W        W26291   6.738   4.742  11.929  0.0169  0.2894  0.0629
10031W        W26292  10.142  17.797   5.690 -0.0056  0.1876  0.2220
10032W        W26293  15.334  17.600   4.164  0.0619  0.2883  0.0178
10033W        W26294   3.917   9.332  15.340 -0.0744 -0.0107 -0.3039
10034W        W26295  12.971  16.277  15.916  0.3015 -0.1289  0.0986
10035W        W26296  13.458  15.367  14.162 -0.2637 -0.0638 -0.2378
10036W        W26297   7.733  12.480   5.873 -0.0974 -0.1917 -0.2909
10037W        W26298   9.997  17.570  15.811  0.2906  0.0183  0.0051
10038W        W26299   2.836   8.524  12.500 -0.5495  0.2044  0.1570
10039W        W26300  13.483  14.425  13.123  0.5582  0.2154 -0.2288
10040W        W26301   4.304   6.591   0.621  0.1062  0.1981  0.0349
10041W        W26302  16.282   1.199   5.380 -0.3670 -0.0907 -0.0087
10042W        W26303  11.523   4.166  16.127 -0.0844  0.2276  0.0357
10043W        W26304  15.749   7.479   1.428 -0.1085  0.3590 -0.3581
10044W        W26305  12.320   9.323  16.426 -0.0226  0.0259  0.2348
10045W        W26306   9.935  17.087   2.971 -0.0175  0.0123 -0.4986
10046W        W26307  14.741   2.728   3.122 -0.1971 -0.0133  0.0866
10047W        W26308  13.567  10.262  13.241 -0.0221  0.1438 -0.0705
10048W        W26309   1.650   3.817   3.011 -0.3013  0.2350 -0.3024
10049W        W26310   7.310   3.138  16.146 -0.2492 -0.1735 -0.0958
10050W        W26311   9.640  18.115   4.440 -0.0488 -0.1625  0.0815
10051W        W26312  17.491  16.203   6.036 -0.0300  0.1012 -0.2821
10052W        W26313  10.753  13.693  14.988 -0.3745 -0.0691 -0.2658
10053W        W26314   8.066   2.557  12.693  0.1806  0.0410  0.0241
10054W        W26315  15.864  16.231   1.690 -0.0286  0.2729 -0.0166
10055W        W26316  13.108   2.010   0.454  0.1231 -0.2082  0.1270
10056W        W26317  17.695   6.003  14.632 -0.2439 -0.1263  0.1700
10057W        W26318   6.337  11.808  13.231 -0.0601  0.2307  0.0034
10058W        W26319   8.479  17.757   0.351  0.1419  0.4427  0.1575
10059W        W26320  10.401   6.352   0.785 -0.5197  0.0940 -0.1394
10060W        W26321   4.880   9.622   3.458  0.0826  0.1802 -0.0707
10061W        W26322  17.367  12.929   3.189  0.1575  0.2261  0.1491
10062W        W26323  11.626  15.806  14.441  0.0631  0.4116  0.2211
10063W        W26324  16.242   9.347   1.395 -0.0377 -0.2586 -0.1676
10064W        W26325   0.041   8.762  12.530  0.4207  0.1935 -0.0483
10065W        W26326  17.926   2.885  15.248 -0.0495  0.0496 -0.0029
10066W        W26327   3.461  12.310  13.774 -0.2005  0.3090 -0.2810
10067W        W26328   2.232  10.518   5.701  0.1305  0.0159 -0.2971
10068W        W26329   3.349  15.509   1.633  0.1139  0.2700 -0.2721
10069W        W26330   7.841   9.754   3.797 -0.1493  0.2649 -0.1079
10070W        W26331  11.053  11.248  13.992  0.1353 -0.1429  0.1623
10071W        W26332   5.796  10.649  15.449 -0.2625 -0.0737 -0.0407
10072W        W26333   9.404   5.757   4.819  0.0108  0.4672  0.0057
10073W        W26334   7.886   3.984   1.714 -0.0388  0.2861 -0.2413
10074W        W26335  11.206  17.831  16.629  0.1620  0.1345 -0.1932
10075W        W26336  12.220   8.709   0.176  0.0953 -0.0765  0.1744
10076W        W26337  12.186  13.415  15.591  0.0037 -0.3987 -0.1416
10077W        W26338   4.735  18.043  14.096  0.0810 -0.1451 -0.1826
10078W        W26339   1.491  13.774  16.520  0.0506  0.0849  0.1280
10079W        W26340   6.803   2.634  15.530  0.4037 -0.2509 -0.1659
10080W        W26341  14.299   4.628  12.381  0.0030 -0.1395  0.0116
10081W        W26342   6.210   5.031   6.283 -0.0172 -0.2112 -0.1499
10082W        W26343   0.334  14.883   3.402  0.0029  0.2740  0.0050
10083W        W26344  17.313   6.695   5.415  0.2681  0.1366 -0.1497
10084W        W26345  16.346  11.975  14.366 -0.0524 -0.2716 -0.1909
10085W        W26346   4.453   7.223  11.809  0.2929 -0.1186  0.0068
10086W        W26347   8.314  17.297   3.673 -0.0159  0.1569 -0.1574
10087W        W26348   8.763   2.214  13.090 -0.2245 -0.0376 -0.0985
10088W        W26349   0.599  15.807   2.299  0.1397 -0.2310  0.0811
10089W        W26350   1.389   7.553   5.494 -0.1844  0.0599  0.0968
10090W        W26351  12.304   2.897  13.325 -0.0960 -0.0727  0.2686
10091W        W26352   2.492   3.985  13.996 -0.1984 -0.0364 -0.0121
10092W        W26353  17.522   5.200  12.120  0.2848 -0.2020 -0.2081
10093W        W26354  15.185   6.020   1.106  0.0841  0.0678  0.0666
10094W        W26355  10.050   5.648   2.347 -0.2943 -0.2013  0.2179
10095W        W26356  10.524   2.722   3.890 -0.0609 -0.2854 -0.4605
10096W        W26357   1.388   4.221   4.326 -0.1840  0.0358 -0.1083
10097W        W26358  16.114   6.391  14.096 -0.0213 -0.2383  0.0992
10098W        W26359   5.336   6.147  15.293 -0.1880  0.2329  0.0434
10099W        W26360   0.796  18.171   5.373  0.1827  0.1606  0.2007
10100W        W26361  11.682  14.212   0.531 -0.1406  0.1340 -0.2677
10101W        W26362   1.554   1.504  15.632 -0.2383  0.1474  0.1452
10102W        W26363   5.044   3.621   3.195  0.1069 -0.2940  0.0789
10103W        W26364   8.808  13.931   3.220  0.1855  0.0069  0.2034
10104W        W26365   7.484   2.657  16.360  0.0170 -0.3037  0.1075
10105W        W26366  11.716  10.041  14.910 -0.0548 -0.1128 -0.0227
10106W        W26367   8.302   2.481   1.386  0.0212  0.2704  0.3622
10107W        W26368   3.286  10.913   4.230 -0.2556  0.1013  0.0740
10108W        W26369   3.133   1.650   5.041  0.2806  0.3822 -0.1084
10109W        W26370   6.138   4.766  14.212  0.1976 -0.2060  0.3919
10110W        W26371   6.412  11.226   5.212 -0.2261  0.2636 -0.2807
10111W        W26372   1.985  11.714   1.800  0.6141 -0.0220  0.0136
10112W        W26373  15.505   0.252  12.723  0.1651  0.0197 -0.3632
10113W        W26374  13.468   3.811   3.980  0.0669  0.3186 -0.2615
10114W        W26375   4.814   3.904   1.958 -0.0326 -0.2104 -0.1380
10115W        W26376   0.866  12.778  15.475 -0.0705 -0.2096  0.0165
10116W        W26377  13.576  11.013  11.505  0.1283  0.0050  0.0026
10117W        W26378  14.935   0.857   0.652 -0.0677 -0.2583  0.1088
10118W        W26379  11.884   6.748   1.820  0.0149 -0.2321  0.1901
10119W        W26380  10.807   2.004  16.392 -0.0580 -0.1763  0.3187
10120W        W26381  14.143   2.165   2.790  0.1810 -0.2048  0.1955
10121W        W26382  12.493  15.917   2.683 -0.1734 -0.2968 -0.0883
10122W        W26383   0.368   9.392  13.241  0.0843 -0.0496 -0.1666
10123W        W26384  13.112  10.392   1.818  0.0173 -0.0749  0.2655
10124W        W26385  11.210  16.115   1.386 -0.3628  0.0985 -0.1797
10125W        W26386  17.770  14.643   3.044  0.0942 -0.0111 -0.0808
10126W        W26387  13.480   4.378  12.996 -0.1539  0.2536 -0.0320
10127W        W26388  12.384   4.544   4.233  0.4588  0.1016 -0.2596
10128W        W26389  12.335   0.248   2.596  0.0220  0.0919 -0.0406
10129W        W26390   5.245   4.786  16.462 -0.0847  0.0984  0.0220
10130W        W26391   3.144   3.826  11.887  0.1219 -0.3953 -0.2339
10131W        W26392   6.860   2.073  16.234 -0.0208  0.2578 -0.0467
10132W        W26393   1.621  13.168   3.863  0.0745 -0.4475  0.0705
10133W        W26394   3.743   5.360  13.719  0.0734  0.1700 -0.1375
10134W        W26395   9.448  10.530  14.289 -0.0447 -0.0550 -0.1550
10135W        W26396  14.194   0.341   5.017  0.2641 -0.2544  0.2098
10136W        W26397   9.364   2.162  16.336  0.3840 -0.1972 -0.0637
10137W        W26398   7.423  16.290  15.362  0.1797  0.1294  0.2390
10138W        W26399  17.354   5.221  13.255  0.0196  0.1147 -0.2269
10139W        W26400   8.024  17.744  13.982  0.0637 -0.3823 -0.0792
10140W        W26401  10.744  12.690   3.524  0.3488  0.0071  0.1281
10141W        W26402   3.675  11.260   0.745  0.0397  0.1172  0.2032
10142W        W26403  17.074  14.062  11.619 -0.0391  0.1109 -0.1755
10143W        W26404   0.399   5.350  11.989  0.1512  0.1884  0.0477
10144W        W26405   9.270   1.713   3.575  0.4135 -0.1757 -0.2009
10145W        W26406   4.594  17.086   1.250  0.3788 -0.1899 -0.0042
10146W        W26407   7.999  16.687  13.615  0.1565  0.1330 -0.0355
10147W        W26408   4.763   1.938   0.569  0.0532 -0.0057 -0.1931
10148W        W26409   9.971   6.991  10.946 -0.0338 -0.0217 -0.0755
10149W        W26410   7.267   6.109   3.031  0.1076  0.2940 -0.1624
10150W        W26411   4.044  13.377  16.301 -0.3355  0.2010 -0.2284
10151W        W26412   9.587   2.607  13.860  0.0798  0.2153 -0.0001
10152W        W26413   4.669   2.784   2.769 -0.0077  0.0537 -0.0443
10153W        W26414  12.816  16.609   3.865 -0.0814  0.2050 -0.1657
10154W        W26415  17.664  11.424   4.523 -0.0423  0.0394  0.0311
10155W        W26416  15.602  14.304   2.922  0.0552 -0.0622 -0.0931
10156W        W26417  11.655   1.388   5.188 -0.0105 -0.0072 -0.0886
10157W        W26418  12.131   2.609  12.065 -0.2926  0.1785  0.0673
10158W        W26419   7.003   1.927   2.078 -0.4130  0.0508 -0.3131
10159W        W26420   3.153   8.682  13.309  0.1763 -0.0412 -0.1133
10160W        W26421  13.317   1.790  13.483 -0.0411  0.1576  0.3826
10161W        W26422   5.520  16.569  14.079 -0.0194 -0.1258 -0.2522
10162W        W26423   3.005   5.356  13.193  0.0566  0.2531 -0.0665
10163W        W26424  15.963   0.589   2.990  0.2644  0.1109  0.1832
10164W        W26425   5.767   9.158  15.614 -0.1508  0.3208  0.2141
10165W        W26426   7.878   2.926   3.099 -0.2874  0.2066 -0.0546
10166W        W26427  17.383  12.967  14.516 -0.0500  0.1944  0.1922
10167W        W26428  17.763   6.871  15.165 -0.2128  0.0058  0.0048
10168W        W26429  15.799   4.741   4.249 -0.3240 -0.0553  0.1895
10169W        W26430   6.733  13.248   3.790 -0.0156  0.1025  0.0621
10170W        W26431  16.837  10.506   2.546  0.4528  0.0877 -0.1364
10171W        W26432   4.563  10.079   3.536 -0.0840 -0.0262 -0.1212
10172W        W26433  12.491  13.074   4.883  0.0013  0.3186 -0.1665
10173W        W26434  10.327   9.589   4.982 -0.0850 -0.3062 -0.0461
10174W        W26435  16.586  10.679   4.196 -0.2220  0.0524 -0.1372
10175W        W26436   5.334   1.758  16.621 -0.3216 -0.2596  0.1243
10176W        W26437  16.539   0.626   5.590  0.2992 -0.2202 -0.5090
10177W        W26438   8.202   7.020   2.364 -0.2144  0.1838 -0.1141
10178W        W26439   7.893  11.748  11.737 -0.3667 -0.0927 -0.0218
10179W        W26440  12.180  13.911  14.296  0.1074  0.0485 -0.0805
10180W        W26441   1.016   9.577  12.453 -0.0153  0.1013 -0.3485
10181W        W26442   7.587  16.998  12.357 -0.0157 -0.1962  0.0162
10182W        W26443  11.196   7.909  14.923 -0.0135 -0.0052 -0.0283
10183W        W26444  12.842   4.547  12.862  0.1200  0.1647  0.0086
10184W        W26445   4.716  12.240  13.407 -0.0576  0.2110 -0.1389
10185W        W26446  17.048  15.631   1.943 -0.3371 -0.0625 -0.0320
10186W        W26447   3.460   3.044   5.067 -0.0690  0.2738  0.1407
10187W        W26448  16.208  12.254   1.017  0.1438 -0.0120 -0.1088
10188W        W26449  16.569   7.218  11.781 -0.2444 -0.0051  0.2166
10189W        W26450   7.050  17.736  15.173 -0.0894  0.0371 -0.0037
10190W        W26451  13.764   9.673  12.551 -0.2467 -0.3723  0.0109
10191W        W26452  18.183  16.900   1.696 -0.0340 -0.2754 -0.0777
10192W        W26453  13.727   7.348  13.915 -0.1692  0.1508  0.2752
10193W        W26454  12.090   3.059   2.289  0.1962  0.0861 -0.2804
10194W        W26455  11.754   6.477  12.232 -0.1863 -0.0426  0.1384
10195W        W26456  11.013   4.945  14.295  0.3370  0.1370  0.1426
10196W        W26457  15.740   4.175  14.345  0.0014 -0.0235 -0.1660
10197W        W26458   7.577   5.279   2.714  0.0684 -0.0840  0.1529
10198W        W26459  10.803  17.145   6.086 -0.1904 -0.0720 -0.1476
10199W        W26460  15.845  13.176  13.940  0.2318  0.3034 -0.0561
10200W        W26461   4.354   2.325  13.942 -0.0998  0.0142 -0.0097
10201W        W26462  14.129   6.102   3.821  0.1570 -0.0352  0.0577
10202W        W26463  12.606  12.766  15.938  0.0504 -0.0284 -0.1872
10203W        W26464   1.257   6.742  11.925  0.0567 -0.2355 -0.3358
10204W        W26465   7.187   0.808  11.876  0.1001  0.4280  0.2966
10205W        W26466  13.319  17.760  13.528 -0.3428  0.2231  0.2222
10206W        W26467   9.166   2.032  13.429 -0.0351  0.1560  0.2050
10207W        W26468  17.401  15.417   2.756  0.2320  0.2600 -0.0571
10208W        W26469  13.698   0.977   5.383 -0.2215  0.1969  0.1365
10209W        W26470   2.963  16.838   5.607 -0.1298  0.1105  0.1323
10210W        W26471   1.623   8.341   0.930 -0.0505  0.0386 -0.0998
10211W        W26472   0.324   0.843   2.131  0.0622  0.1583  0.1494
10212W        W26473  15.772  11.500   5.846 -0.0313 -0.1496  0.1689
10213W        W26474  10.665   4.650  16.466 -0.2540  0.0393  0.0203
10214W        W26475   4.461  16.145   2.758  0.0190  0.1997  0.0804
10215W        W26476   1.207  10.167  13.206 -0.0310 -0.1425  0.3206
10216W        W26477   6.550   1.386  15.621 -0.0042  0.2799  0.1555
10217W        W26478  13.328   0.116   1.468  0.1768 -0.2855 -0.1662
10218W        W26479   9.093   5.353  15.901 -0.0585  0.0771 -0.1541
10219W        W26480  16.426  14.439   5.064  0.3175 -0.2546  0.0559
10220W        W26481   0.214   1.881   5.401 -0.2406 -0.0725 -0.2646
10221W        W26482   0.988   2.838   5.522  0.1635  0.2465 -0.1620
10222W        W26483   1.969  12.680  13.519  0.4113  0.3507 -0.1275
10223W        W26484   7.415   8.551   6.025  0.2318 -0.0761 -0.3237
10224W        W26485   2.232   7.631  12.334  0.1402 -0.1177 -0.1229
10225W        W26486  11.412  10.854   2.176  0.2727  0.0098  0.0702
10226W        W26487   8.885   2.292   0.947 -0.0085  0.2354  0.1326
10227W        W26488  17.065  11.013  13.333 -0.1895 -0.1583 -0.2054
10228W        W26489   9.225   3.968   2.535 -0.2559 -0.5107  0.1993
10229W        W26490   5.396   7.095   4.947  0.0146  0.0999 -0.1439
10230W        W26491   6.377  15.150  16.468  0.0904  0.1323  0.0835
10231W        W26492   3.951  17.482  12.133 -0.0737  0.0172  0.2771
10232W        W26493  11.118  17.066   4.371 -0.0689 -0.0355 -0.4236
10233W        W26494  13.942   6.374   3.360  0.0321  0.0723 -0.0304
10234W        W26495   2.812   3.490   1.056 -0.1378  0.1559 -0.3131
10235W        W26496  16.017  12.419  12.947  0.3324  0.1313 -0.2148
10236W        W26497   6.204  16.611  11.651  0.1165  0.1982 -0.0710
10237W        W26498   0.450   7.362   2.879  0.1033 -0.1378  0.0131
10238W        W26499   0.576   8.798  14.277  0.1839 -0.0726  0.1788
10239W        W26500   7.763  15.357  16.435  0.3161 -0.3000 -0.1020
10240W        W26501   4.462   4.387  14.375  0.2227  0.0196  0.0369
10241W        W26502   0.165   2.300   1.964 -0.2449 -0.1647  0.2502
10242W        W26503  15.298   6.576   0.375 -0.0809  0.0081 -0.0999
10243W        W26504   2.000  11.246  11.576 -0.2365 -0.0751  0.1463
10244W        W26505  14.956   3.737  14.557  0.2257 -0.0582  0.0402
10245W        W26506   7.027   6.689  16.433 -0.1844 -0.0498 -0.2188
10246W        W26507  13.033  13.474   3.477  0.1976 -0.0495 -0.2836
10247W        W26508   2.848   5.075  12.228 -0.0658 -0.0257 -0.0291
10248W        W26509  17.455   0.765   4.223 -0.1812  0.1755 -0.3737
10249W        W26510  10.235   0.781   3.725 -0.1290 -0.0998 -0.1694
10250W        W26511   9.871   7.285   0.343  0.3101 -0.0970  0.2241
10251W        W26512   6.949   3.694   5.263 -0.1327 -0.0647 -0.0210
10252W        W26513   2.767  13.649  14.663 -0.1587  0.0119 -0.1492
10253W        W26514  13.711  11.642   0.092  0.2455 -0.0830  0.0696
10254W        W26515  10.963  15.429  11.806 -0.0213  0.0554 -0.0566
10255W        W26516  12.878   9.916   2.759 -0.0874  0.0253  0.0994
10256W        W26517   8.213  14.885  10.856  0.2798  0.3897 -0.0291
10257W        W26518   0.391   1.348   0.134 -0.0860  0.3869  0.0687
10258W        W26519   2.396  11.331  13.168  0.0472 -0.0845  0.0482
10259W        W26520  15.753   7.561   2.987 -0.0501  0.0382 -0.2064
10260W        W26521  14.753   5.187  14.375  0.1130 -0.0705 -0.1087
10261W        W26522  11.072   5.921   2.552  0.1433  0.0655  0.2750
10262W        W26523  16.149   6.979   5.272 -0.0826 -0.3866 -0.1552
10263W        W26524   0.629   7.538  13.039  0.0766  0.1281  0.0217
10264W        W26525   2.457  10.461   5.210  0.2512 -0.2672  0.3037
10265W        W26526  12.379   1.271  15.484  0.0447  0.2285  0.0599
10266W        W26527  14.645   2.681  11.177  0.3305 -0.0159  0.0889
10267W        W26528   1.321   3.209  15.100  0.1816  0.2544 -0.2031
10268W        W26529  11.416   5.252   3.532 -0.1767 -0.1850 -0.1518
10269W        W26530  17.455   4.617   4.715  0.3324 -0.0114  0.1948
10270W        W26531  12.603   4.518   5.018  0.2502  0.4265 -0.0636
10271W        W26532   0.252  10.882   2.282 -0.2509  0.1299 -0.1499
10272W        W26533   3.435   1.680  12.222  0.1443 -0.0636 -0.0468
10273W        W26534  17.759  14.262  13.242  0.1057 -0.0073  0.1452
10274W        W26535  10.835  11.072  15.286 -0.2573 -0.1700  0.1533
10275W        W26536   7.760  13.505   3.980  0.3220 -0.1547  0.1008
10276W        W26537  15.755   2.168  14.102 -0.3757  0.2260  0.1170
10277W        W26538   4.917   4.215  14.210 -0.3073  0.1928 -0.0527
10278W        W26539   4.124   6.570  14.709  0.1578 -0.2372 -0.2371
10279W        W26540   3.095   0.944   0.119  0.1650 -0.0971  0.0273
10280W        W26541  15.885  13.215  16.199 -0.1805  0.2962  0.2204
10281W        W26542  17.917   4.743   4.808  0.1716 -0.3087  0.1728
10282W        W26543   8.388  13.802  11.764  0.0626  0.0777  0.1025
10283W        W26544  10.769   3.101  15.609  0.3575 -0.3169  0.0848
10284W        W26545   7.613   6.792   1.136 -0.0229 -0.0059 -0.1838
10285W        W26546   5.619  17.955  14.573  0.1154 -0.0358 -0.1285
10286W        W26547  11.665  14.429   1.374  0.0535 -0.0478 -0.0670
10287W        W26548   3.925  14.372   2.945 -0.1312  0.2479 -0.3535
10288W        W26549   1.012  12.374   3.453  0.1530 -0.1599 -0.0258
10289W        W26550  16.540  16.748   2.703 -0.0230 -0.2159  0.3886
10290W        W26551  12.300   0.978  16.354  0.0551 -0.0217 -0.4510
10291W        W26552  10.210  10.291   1.470 -0.1354  0.0819  0.0464
10292W        W26553   9.735   0.591   0.155 -0.0352 -0.0247  0.0702
10293W        W26554  11.277  10.756  14.066  0.5361  0.3819 -0.2443
10294W        W26555  11.463  14.693   0.452  0.2538 -0.1358 -0.3090
10295W        W26556  17.748   1.395   6.104 -0.2207 -0.2746 -0.0776
10296W        W26557  10.823   6.199  14.176 -0.2792  0.3335  0.4070
10297W        W26558  17.697   0.335   4.339 -0.0178  0.0558 -0.0529
10298W        W26559  13.289  10.315  13.676  0.0028 -0.1081  0.0569
10299W        W26560  16.201  10.215   0.919  0.0580  0.0719 -0.4345
10300W        W26561   2.040   3.551   1.748 -0.0676  0.2776  0.0577
10301W        W26562   8.532  13.388  16.040 -0.2436 -0.0741 -0.0954
10302W        W26563   2.460   8.804   3.396  0.3641 -0.0165 -0.0957
10303W        W26564   0.225  15.237   5.295 -0.2577 -0.0026  0.1565
10304W        W26565  14.353  17.228  15.082 -0.2557 -0.0183  0.4429
10305W        W26566  17.032   7.537   2.601  0.0360 -0.1266 -0.1606
10306W        W26567   1.409  16.499  11.773 -0.1387 -0.2169 -0.1739
10307W        W26568  11.247   4.871   2.808 -0.2358  0.0574 -0.2348
10308W        W26569  11.972  12.593  14.297  0.0678 -0.2084 -0.3003
10309W        W26570  15.623   0.096  16.588 -0.2214 -0.0997 -0.0059
10310W        W26571  16.503   6.108  15.370  0.1835  0.1010 -0.0299
10311W        W26572  15.416  11.056   2.878  0.2001  0.2289  0.2102
10312W        W26573   7.844  17.935  12.443 -0.2838 -0.2287  0.1606
10313W        W26574  14.169  14.210  15.720 -0.0050  0.3548 -0.2900
10314W        W26575   5.291  12.044  14.043 -0.3683  0.0026  0.0583
10315W        W26576  14.706  10.649   2.058  0.3806  0.0845 -0.1348
10316W        W26577   6.699  15.900  15.039  0.0976 -0.1196 -0.2298
10317W        W26578   1.917   8.982   3.275 -0.0173 -0.3012 -0.0285
10318W        W26579   1.342   1.808   4.007 -0.1058 -0.0906  0.1610
10319W        W26580   0.567  14.344  13.143  0.3498  0.4224  0.0642
10320W        W26581  16.038   6.167   4.809 -0.1007  0.1075  0.0800
10321W        W26582   6.585  15.100  14.084 -0.0533  0.1529  0.3707
10322W        W26583  11.423  15.342   4.263 -0.2645  0.2663 -0.1293
10323W        W26584   7.773   0.650  11.841  0.0022  0.0374  0.3458
10324W        W26585   5.538   8.118   1.082  0.0191  0.0021 -0.1166
10325W        W26586  10.804   6.309   4.103  0.2435  0.0774  0.1525
10326W        W26587   2.018  13.026  12.096  0.2433 -0.2172  0.2550
10327W        W26588   5.695   9.376   1.568  0.0677  0.2625  0.3436
10328W        W26589   7.767   8.111  14.927  0.0015  0.0007 -0.0974
10329W        W26590  12.195   5.943  14.902 -0.2202  0.1310  0.0950
10330W        W26591   8.723  15.317   2.770 -0.2412  0.1196 -0.1022
10331W        W26592  11.188   1.194  11.104 -0.0017  0.4006  0.1326
10332W        W26593   0.627  10.759  14.630  0.2301 -0.0969  0.3900
10333W        W26594   6.446   3.099  14.663 -0.0079 -0.3607 -0.2486
10334W        W26595   2.583   9.960   4.193 -0.1018 -0.2763 -0.1139
10335W        W26596  16.381  12.079  12.756 -0.0897 -0.2490 -0.0735
10336W        W26597   8.006   3.780  14.201  0.2486  0.0747  0.0757
10337W        W26598  13.475   1.283   4.486 -0.1430  0.1388 -0.0703
10338W        W26599  13.316  11.325  11.844  0.0698 -0.0068  0.1331
10339W        W26600   0.313  16.693   5.655  0.0140  0.0232  0.1033
10340W        W26601   9.037   2.333   1.869  0.0864  0.0237 -0.1458
10341W        W26602   2.961   5.918   0.098 -0.0007 -0.0340  0.0027
10342W        W26603  11.535   7.314   6.174  0.1106  0.0357 -0.0790
10343W        W26604   2.100  12.432  16.396 -0.0263  0.2997  0.0151
10344W        W26605  12.387   2.959  11.800 -0.0388  0.2255 -0.1958
10345W        W26606  13.690  17.294  12.473  0.1333  0.0757  0.0035
10346W        W26607   2.595   9.849  13.903  0.0707 -0.1206 -0.0073
10347W        W26608  13.967  15.302  13.640  0.1318  0.0023  0.1363
10348W        W26609  12.782   8.229  15.660 -0.0894  0.1011 -0.3138
10349W        W26610  12.746   2.168  15.490  0.2166  0.2392  0.1637
10350W        W26611   3.119   1.876   3.553 -0.1013 -0.2043  0.1112
10351W        W26612   8.617   7.880   2.349  0.0901  0.2241  0.0386
10352W        W26613   8.313   4.500   4.314  0.3715 -0.0893 -0.3015
10353W        W26614   3.915   5.351   5.476 -0.1196 -0.0837 -0.3901
10354W        W26615   0.022   8.856  16.012 -0.1111 -0.1729 -0.0807
10355W        W26616  16.043   3.505   4.545  0.1386  0.2467 -0.1258
10356W        W26617   8.004  10.858  16.438 -0.0498  0.2484  0.0376
10357W        W26618  11.615   3.052  15.410 -0.0759 -0.2400 -0.3598
10358W        W26619   3.964  12.579  11.044 -0.3549  0.2640 -0.2290
10359W        W26620  12.089   5.995  13.403 -0.1149 -0.0454 -0.0330
10360W        W26621   5.438   7.032   0.020 -0.0831  0.0086 -0.2388
10361W        W26622  11.562   9.673   1.086 -0.1492 -0.0337  0.2564
10362W        W26623  14.453  16.529   3.978 -0.1270  0.1831 -0.1355
10363W        W26624  14.929   7.478  11.745 -0.2451  0.3190  0.0972
10364W        W26625  14.785   2.688   4.056  0.0748 -0.2476 -0.0983
10365W        W26626   4.594  15.654  12.781  0.0331  0.0951  0.1894
10366W        W26627  18.185  12.662   4.700  0.0621  0.2955 -0.0087
10367W        W26628   8.753  13.413   3.651 -0.0473 -0.1593 -0.0008
10368W        W26629   5.964  11.129   0.027 -0.1123  0.0353 -0.1629
10369W        W26630   8.841   4.154  11.606 -0.2955  0.0950 -0.0702
10370W        W26631  12.624   6.049  15.922  0.1551  0.2360 -0.2190
10371W        W26632  16.715  10.251  11.813  0.0501  0.1242 -0.1203
10372W        W26633  15.015   5.243   0.053 -0.1151  0.5348 -0.0621
10373W        W26634   5.702   5.188   1.994  0.2275 -0.1325  0.0251
10374W        W26635   4.958  10.645   3.874  0.0919  0.0845  0.0385
10375W        W26636   0.306  13.626   3.069 -0.0534 -0.1504  0.1214
10376W        W26637  15.655  13.998  12.419 -0.2907  0.1641 -0.0393
10377W        W26638  17.929  12.229   4.859 -0.1637 -0.0477 -0.3016
10378W        W26639   0.899  11.686   1.086 -0.2556 -0.2519 -0.3329
10379W        W26640  14.476   7.291  11.045 -0.1393 -0.1671 -0.3029
10380W        W26641   8.010   2.743  13.354  0.1283 -0.1956 -0.1100
10381W        W26642   3.566   3.844  14.793 -0.0634 -0.0113 -0.0653
10382W        W26643   6.023   1.427  12.910  0.2983  0.0352 -0.3855
10383W        W26644  17.172   2.486   4.499  0.0673 -0.0245  0.2134
10384W        W26645   1.814  16.674   4.887 -0.1686  0.1891  0.3654
10385W        W26646  13.831  15.646  14.598 -0.2173 -0.0327  0.1537
10386W        W26647   2.916   0.443  16.127  0.0959 -0.0109 -0.0611
10387W        W26648   5.426  17.824  12.125 -0.0420 -0.0734 -0.1205
10388W        W26649  11.750  10.785   1.680  0.4023  0.0312 -0.1234
10389W        W26650   5.365   1.144  12.707 -0.2741 -0.2466 -0.3171
10390W        W26651   3.885   7.479  15.609 -0.0815  0.1471  0.0871
10391W        W26652   9.020  17.568   2.981 -0.1536  0.1676 -0.0964
10392W        W26653  13.232   4.242   3.866 -0.0181 -0.0921 -0.2819
10393W        W26654  17.614   2.023   2.878  0.2329 -0.0442 -0.0577
10394W        W26655   6.724   5.292  11.774 -0.0504 -0.0242 -0.0548
10395W        W26656   6.496  14.784  12.187 -0.2580 -0.1426 -0.0215
10396W        W26657  15.482   4.922   6.551  0.0802  0.3678 -0.1312
10397W        W26658  16.651  13.951   5.178 -0.0139 -0.2046 -0.2327
10398W        W26659  10.697   8.397   5.034 -0.1359  0.2418 -0.1191
10399W        W26660   4.570  17.795   4.248 -0.1521 -0.0201 -0.2344
10400W        W26661   7.908  11.192   5.898 -0.4289  0.1908  0.0705
10401W        W26662   7.135   2.164  12.269  0.0281  0.1171  0.1250
10402W        W26663  13.091  14.945  14.229  0.0603 -0.2092  0.2865
10403W        W26664  12.173   2.634   1.658 -0.0223  0.0031 -0.0255
10404W        W26665  11.722  11.066   0.987 -0.0137  0.0538  0.2331
10405W        W26666  12.224  11.160   1.190 -0.0487 -0.0042 -0.0043
10406W        W26667  15.954   6.993  15.531  0.1786 -0.1105  0.4597
10407W        W26668  10.640  11.291   5.764  0.1102  0.3111 -0.0776
10408W        W26669  14.924  14.244   4.989 -0.2021 -0.0288 -0.3204
10409W        W26670  14.607  11.745   4.418 -0.2654 -0.2424  0.2358
10410W        W26671   4.594   1.625   4.996  0.1025 -0.0521  0.0954
10411W        W26672   3.190   9.228  14.540 -0.0935  0.6515 -0.2061
10412W        W26673  12.562  11.382  13.938 -0.3448  0.0204 -0.3715
10413W        W26674  13.136   5.517  16.438 -0.3565  0.3553  0.2607
10414W        W26675  13.844   5.803  15.550  0.3903 -0.0258  0.1423
10415W        W26676  13.997   0.795  16.515  0.1264 -0.1843  0.1742
10416W        W26677   3.036   2.017  14.914  0.1234 -0.2107  0.2895
10417W        W26678   9.040   1.195   5.610 -0.0435 -0.0561 -0.0194
10418W        W26679  13.477  15.785  14.978  0.2384 -0.0938  0.0375
10419W        W26680  14.052   2.266   5.812  0.0931 -0.1049  0.2958
10420W        W26681   2.711   1.292  16.397  0.0813 -0.2152 -0.1673
10421W        W26682   9.540  18.038  16.347 -0.0601  0.1163 -0.2024
10422W        W26683   9.557   4.394   4.289 -0.0750 -0.1344  0.1183
10423W        W26684   2.156  14.589  12.846  0.2863  0.2265 -0.1300
10424W        W26685   0.700   2.027   5.157  0.3579 -0.0952  0.1882
10425W        W26686  17.325  15.291   1.615 -0.2110  0.1228  0.1102
10426W        W26687   3.198  11.839   3.571  0.1983  0.0436 -0.0505
10427W        W26688   9.300   2.624  16.144 -0.1391  0.0450 -0.1498
10428W        W26689   1.768  11.798   2.794 -0.0463  0.1962  0.1036
10429W        W26690   6.316   1.950   5.382  0.1161  0.1665  0.3681
10430W        W26691  11.726  16.562   3.641  0.1652  0.0076  0.3318
10431W        W26692  14.067   5.966   1.050  0.0257  0.1868  0.1200
10432W        W26693   5.316   2.959  11.843 -0.2592 -0.0451 -0.3862
10433W        W26694   9.246   9.551  14.595 -0.1560 -0.2112  0.0456
10434W        W26695   5.530  11.433  13.620 -0.0837 -0.0732 -0.0186
10435W        W26696  12.720   2.449   4.246 -0.0132 -0.1161 -0.1363
10436W        W26697   3.524  12.702  15.014  0.0271 -0.0876  0.0201
10437W        W26698  12.842  15.102   4.546  0.1439 -0.0049  0.2543
10438W        W26699   8.911  11.908  15.171 -0.1163  0.1480 -0.0937
10439W        W26700   4.547  10.094   2.082  0.2629  0.1683 -0.1439
10440W        W26701   7.947  12.651  14.144 -0.0626  0.0062 -0.0031
10441W        W26702  12.659  17.266   0.655 -0.0078 -0.0216 -0.1477
10442W        W26703  14.791   6.928  12.421  0.0449 -0.1009 -0.2061
10443W        W26704  10.784   0.964   5.374  0.2876 -0.0548 -0.0641
10444W        W26705   4.622  12.261  12.887 -0.0423  0.1294  0.1297
10445W        W26706  10.624  16.126   4.511  0.1275 -0.0293  0.2950
10446W        W26707  16.342  14.984  10.368  0.3633  0.0923  0.0060
10447W        W26708  10.995   1.523  11.893  0.0563  0.0848 -0.1995
10448W        W26709  12.420   7.610   3.657  0.0113  0.1338  0.1300
10449W        W26710  17.541  10.229   0.132  0.0647 -0.1231 -0.1392
10450W        W26711  16.653  16.340  11.901 -0.0395 -0.4092  0.3041
10451W        W26712  14.563   9.342   5.190  0.0055  0.0514 -0.3891
10452W        W26713   7.367  10.738   4.669  0.0208 -0.4648 -0.0705
10453W        W26714   6.588   9.421   0.047  0.1515  0.0725  0.2910
10454W        W26715   5.510   4.355  12.401 -0.2267 -0.0825 -0.0471
10455W        W26716  14.564  14.333  14.906 -0.0751 -0.0040  0.2624
10456W        W26717  14.641   4.987  13.545  0.0060  0.2924 -0.2613
10457W        W26718   5.728   7.497  15.827  0.1657  0.2643  0.0230
10458W        W26719  17.681  12.030   4.140 -0.1078  0.2293  0.2001
10459W        W26720  15.502   3.899   0.436  0.2942 -0.1138 -0.1113
10460W        W26721   0.941   6.146  16.181 -0.2746  0.0775 -0.0195
10461W        W26722   4.215  11.697   2.520  0.0299 -0.1337 -0.1262
10462W        W26723   0.964  10.137   4.579  0.0397 -0.1016 -0.0753
10463W        W26724  16.758  11.055  15.329 -0.2316 -0.0200  0.1793
10464W        W26725   1.836  11.708  11.720  0.0955  0.0917 -0.0899
10465W        W26726  10.282  11.516  14.455  0.0079 -0.1475 -0.3881
10466W        W26727   6.267   8.534   0.477  0.2358 -0.3843 -0.6007
10467W        W26728   8.780   8.978  16.014  0.2344  0.0908 -0.0838
10468W        W26729  15.780   7.803   5.391  0.2047 -0.1964 -0.1428
10469W        W26730   0.811   6.684   1.302  0.3681 -0.3907  0.0519
10470W        W26731   9.341   9.978  11.642  0.3012  0.2624  0.4094
10471W        W26732  11.949  15.795   1.533  0.0849  0.0143 -0.1452
10472W        W26733  15.701   1.371  13.044 -0.1071 -0.0496  0.1591
10473W        W26734  16.065  14.423   3.022 -0.2071  0.0628  0.1426
10474W        W26735   2.223  17.939   3.425  0.0335 -0.1382 -0.3677
10475W        W26736   9.673   9.017  16.228  0.1595 -0.3280 -0.0958
10476W        W26737   3.662   4.860  14.920  0.0734 -0.3293  0.4875
10477W        W26738  15.918   6.599  14.512  0.2763 -0.0722 -0.1462
10478W        W26739   0.713   9.233   6.020 -0.0201 -0.2581 -0.0073
10479W        W26740   1.065  14.727  15.104 -0.1569  0.0363 -0.2127
10480W        W26741   2.887   5.842  13.008 -0.2032  0.0480  0.1009
10481W        W26742  17.152   0.473  16.585 -0.1238 -0.0449  0.1004
10482W        W26743  13.962   3.103  12.646 -0.0052  0.0540  0.2973
10483W        W26744   9.492  14.134   4.258  0.1851 -0.1652 -0.4735
10484W        W26745  15.374   9.334  14.898 -0.0609  0.1820  0.2565
10485W        W26746   3.686  11.670   2.771 -0.1098  0.2912 -0.1721
10486W        W26747  17.110   8.426   1.706  0.0771  0.2436  0.1133
10487W        W26748   1.258  13.057   5.879 -0.0810  0.0471  0.3820
10488W        W26749   4.620  15.774  15.060 -0.1608  0.0291 -0.5092
10489W        W26750   9.419   7.045  12.161 -0.0793 -0.1200 -0.0806
10490W        W26751  11.073   1.318   0.263 -0.1175  0.0064  0.0674
10491W        W26752  18.003   8.080   1.910 -0.0403 -0.0552  0.0165
10492W        W26753   1.724   4.964  15.646 -0.0749 -0.0627 -0.0486
10493W        W26754  13.804   6.408   1.015 -0.2035  0.0438  0.1470
10494W        W26755  14.647  15.348  14.937 -0.0867 -0.0283 -0.0743
10495W        W26756   3.089  14.819  13.101  0.0164 -0.4388  0.0092
10496W        W26757   1.755   9.482   4.480  0.0279 -0.0034 -0.1486
10497W        W26758  16.718  12.254   3.162 -0.2140 -0.1675 -0.0367
10498W        W26759   4.484   8.816  15.788 -0.0430 -0.2230 -0.2527
10499W        W26760  14.122  14.855   0.657 -0.2784 -0.2290  0.3146
10500W        W26761  14.033   3.291  11.309  0.2327  0.0526  0.1075
10501W        W26762  15.201  12.175  15.757 -0.2409  0.0008  0.1771
10502W        W26763  17.890   4.176   6.056  0.3340 -0.2170 -0.2563
10503W        W26764  13.770  15.359  15.575  0.2153 -0.1478  0.1037
10504W        W26765  16.212  14.051  14.279 -0.1109  0.2101 -0.1550
10505W        W26766  12.754   8.301  14.860 -0.0920 -0.1332  0.1657
10506W        W26767   3.209   8.784   3.688 -0.1500  0.1958  0.2100
10507W        W26768  15.442  12.303   3.641  0.0206  0.0447 -0.0188
10508W        W26769   1.017   9.680  12.984  0.0909 -0.1273 -0.2145
10509W        W26770   9.744  12.328   0.705  0.3546  0.0713  0.0552
10510W        W26771  11.727  13.515  16.469 -0.0377 -0.0923 -0.2285
10511W        W26772   5.394  13.018  12.527 -0.2749 -0.2958 -0.1118
10512W        W26773   5.951  14.739   5.409 -0.1748  0.1773  0.1479
10513W        W26774   0.027   1.249   3.721  0.0911 -0.0975  0.2310
10514W        W26775  10.256   6.774   4.264 -0.2281 -0.1228  0.0497
10515W        W26776  11.370  12.005   0.337  0.0212 -0.0799  0.1688
10516W        W26777   8.106   6.872  12.914  0.2441 -0.3800 -0.0220
10517W        W26778  12.773   3.414  14.066 -0.3040 -0.0130 -0.1285
10518W        W26779  11.203   6.976  13.709 -0.2452  0.2579  0.0000
10519W        W26780  12.992   4.832   0.574 -0.0149  0.1759  0.0371
10520W        W26781   7.005   1.372   3.299 -0.1126 -0.1128 -0.0723
10521W        W26782   1.301   4.850   0.225  0.0410  0.3374 -0.0576
10522W        W26783   1.771   2.961  13.743  0.3630  0.0458  0.0011
10523W        W26784   4.142   7.441  12.287  0.0646  0.0867 -0.2204
10524W        W26785   0.109   6.430   0.647  0.1208  0.2133  0.0343
10525W        W26786  11.099   7.800  12.183  0.2166 -0.0834 -0.0413
10526W        W26787  15.023   7.499   2.531 -0.1847  0.1185  0.1570
10527W        W26788  14.565  15.706   0.406  0.1577  0.1639  0.0654
10528W        W26789  17.822   6.332   0.987  0.1885  0.2117 -0.1461
10529W        W26790  10.197  18.083  15.769  0.1644 -0.2231  0.0555
10530W        W26791  14.601   7.924  14.848 -0.0475 -0.3279  0.2359
10531W        W26792   7.128  15.045  15.838 -0.0836  0.1025  0.2747
10532W        W26793  15.626   7.008  14.471 -0.1015 -0.3141 -0.0158
10533W        W26794  15.736   5.041   5.054  0.3465 -0.1549  0.0896
10534W        W26795   2.667   2.427  13.466 -0.1274 -0.0222 -0.2048
10535W        W26796   2.645   7.146   1.179 -0.1686  0.1429 -0.2443
10536W        W26797   2.923   9.126  13.999  0.1044  0.1383 -0.1177
10537W        W26798  10.067  11.122  16.191  0.1211  0.0589  0.0765
10538W        W26799   4.298   4.840  14.472 -0.1718 -0.1585 -0.2920
10539W        W26800  12.445   0.572   5.443  0.1715 -0.1929  0.1142
10540W        W26801  16.043   2.944  13.170  0.1816  0.0192  0.0618
10541W        W26802   0.154   4.230  15.152  0.0438 -0.2421  0.4422
10542W        W26803   0.505   9.974   0.376 -0.1782  0.0440 -0.0777
10543W        W26804  17.419   4.232   1.924 -0.1721  0.1220  0.2349
10544W        W26805   8.705   6.397  11.392  0.2496 -0.0174 -0.0080
10545W        W26806   8.061   9.979   5.343 -0.3054  0.1720 -0.1656
10546W        W26807  12.967  17.614   3.878 -0.3803  0.0323  0.1496
10547W        W26808  14.507  11.713   2.510 -0.2824 -0.2830  0.3023
10548W        W26809   5.284  17.853   1.733  0.3173 -0.2693  0.2481
10549W        W26810   2.079   8.853   4.367  0.1218  0.3867  0.4190
10550W        W26811  12.592  16.190  16.492 -0.1895  0.0983 -0.0013
10551W        W26812   2.821   2.114  16.333  0.1490 -0.1752 -0.1588
10552W        W26813   7.423   8.238  15.936  0.1241  0.0218 -0.2100
10553W        W26814  17.791   4.341   4.061 -0.1832 -0.3070  0.0042
10554W        W26815   7.108  10.257  12.118  0.2709 -0.0947  0.2165
10555W        W26816   1.089  10.056   2.921  0.2144 -0.0881 -0.1339
10556W        W26817   3.583  15.849   2.658  0.3718  0.0708  0.0429
10557W        W26818  14.788   3.250  10.395 -0.1384  0.2071 -0.0554
10558W        W26819  12.835  17.421  15.306 -0.0185  0.0100  0.1445
10559W        W26820  15.313   0.719  14.352  0.0873  0.3788  0.0429
10560W        W26821  13.985  17.336   5.052 -0.4077 -0.0917 -0.0385
10561W        W26822  14.111   3.174   4.357  0.0631 -0.0583  0.0123
10562W        W26823   4.006  11.137  12.934  0.2562 -0.1062 -0.0309
10563W        W26824   8.223   3.601   3.917  0.0882  0.2656  0.0567
10564W        W26825   6.014   8.200  14.019  0.0444  0.1126  0.1114
10565W        W26826   4.380  11.775   3.447 -0.0958 -0.3376 -0.0514
10566W        W26827  13.520   6.424   5.163 -0.1163  0.1509 -0.1524
10567W        W26828   3.176   4.152   3.007 -0.0796 -0.0408 -0.0162
10568W        W26829  13.463   6.802  14.899 -0.0528  0.0694  0.3688
10569W        W26830  15.969   0.432   1.597 -0.1122 -0.0304  0.1047
10570W        W26831   5.992   9.918  14.538 -0.0463  0.4051  0.0986
10571W        W26832   3.200  10.101  14.898 -0.2091  0.4005 -0.0821
10572W        W26833   7.777  13.212   4.856 -0.0611 -0.2326 -0.1761
10573W        W26834   8.825  15.998   5.288  0.2660 -0.0865  0.3032
10574W        W26835   5.823   6.108  13.473  0.1472  0.0415 -0.0683
10575W        W26836   0.589   2.326   5.597  0.1149 -0.1809 -0.3412
10576W        W26837   0.932   7.499   2.681  0.0959 -0.0909 -0.2269
10577W        W26838   4.341   5.479  15.344  0.3432 -0.1282  0.1770
10578W        W26839   7.360   8.600   1.196  0.3343 -0.2014  0.2127
10579W        W26840  11.738  14.355  13.525 -0.2094 -0.3497  0.0615
10580W        W26841   8.894   1.434  15.982  0.2478  0.0916 -0.1920
10581W        W26842  17.161   3.404  15.524  0.6238 -0.2555  0.3418
10582W        W26843   2.718   4.788  15.798  0.0611 -0.0757  0.1255
10583W        W26844  15.397   3.097  12.483 -0.1237 -0.2469 -0.2534
10584W        W26845   6.837   9.072   0.935  0.0145 -0.2992 -0.1609
10585W        W26846   4.113  15.201   0.454 -0.0409 -0.2533 -0.3597
10586W        W26847  13.646  16.892  11.445 -0.0265  0.1625  0.0686
10587W        W26848  15.354   4.865   4.716  0.0221  0.1573 -0.0543
10588W        W26849   4.646  13.628  16.129  0.0549  0.1126 -0.2254
10589W        W26850  18.066   5.652   5.324 -0.2764 -0.3848  0.1839
10590W        W26851   7.360   3.042  14.617  0.6110 -0.2794 -0.2143
10591W        W26852  13.937  14.289  15.240 -0.1642  0.1363  0.0702
10592W        W26853  13.813  15.679   2.109 -0.2087 -0.1761  0.1874
10593W        W26854  15.712   8.765   0.151  0.1365  0.2149 -0.2478
10594W        W26855  11.173  17.934  11.385 -0.0249 -0.0658 -0.0048
10595W        W26856   2.946  10.561   1.549  0.1702 -0.0360  0.1144
10596W        W26857   8.356   7.179   4.815 -0.0581 -0.3588 -0.2518
10597W        W26858  15.557  12.397  11.627 -0.0540  0.2708  0.0637
10598W        W26859  15.023  13.054  13.309  0.0720  0.0324  0.1772
10599W        W26860  12.221  12.994   3.828  0.1777 -0.1301 -0.1780
10600W        W26861   4.665  14.495   5.434  0.1759  0.1963 -0.1282
10601W        W26862   2.440  18.182   4.081 -0.1866 -0.0235  0.2844
10602W        W26863   2.369   3.025  16.207 -0.0234  0.4103 -0.1037
10603W        W26864   8.357  13.692  13.139  0.0284  0.0397  0.2606
10604W        W26865   8.885   3.403   0.673 -0.2144 -0.1886  0.2149
10605W        W26866   1.085  11.464  16.452  0.5240 -0.1203 -0.1154
10606W        W26867  13.301   5.277  11.405 -0.0714  0.0708  0.0585
10607W        W26868  14.800   8.781  12.584  0.4191  0.2951 -0.2592
10608W        W26869  13.191  16.938   3.552 -0.1011 -0.0626 -0.0128
10609W        W26870  10.315  14.928   2.426 -0.1477 -0.0498  0.0224
10610W        W26871   5.167  17.363  14.008 -0.1290  0.2664 -0.1429
10611W        W26872   5.030  11.645  16.336  0.3066 -0.0186  0.2155
10612W        W26873  15.483   1.971   4.091 -0.0155 -0.4054 -0.2902
10613W        W26874  11.118  10.888   3.582 -0.0772  0.1003 -0.3619
10614W        W26875   2.226  16.701  14.029  0.1192  0.1998  0.1088
10615W        W26876  16.235   6.848   4.083  0.1236  0.0900 -0.0278
10616W        W26877   9.538   7.187   5.010  0.0434 -0.2073 -0.2421
10617W        W26878  17.249   2.482   5.554 -0.1446 -0.0413 -0.2232
10618W        W26879   3.367  10.866   1.722  0.0437  0.2115  0.1043
10619W        W26880   1.567  18.089  12.721 -0.3205  0.1422  0.1603
10620W        W26881  15.928   5.509   1.478  0.1226  0.0293  0.2676
10621W        W26882   0.194   4.418   4.945 -0.3126  0.3187  0.1896
10622W        W26883   0.503  10.233  13.694  0.2173 -0.0208 -0.2132
10623W        W26884   7.225  15.812  16.292 -0.3606 -0.1395  0.1128
10624W        W26885  14.392   0.249  14.862  0.1650 -0.2219 -0.4056
10625W        W26886  14.667  11.088   0.209  0.1236  0.3688 -0.0310
10626W        W26887   6.704   6.661   5.868  0.0204  0.2702  0.0871
10627W        W26888  11.796  16.173  14.712  0.0017 -0.0708 -0.1987
10628W        W26889  14.613  13.048   4.541 -0.1721 -0.1493 -0.0318
10629W        W26890  13.634   0.460  15.462  0.1023  0.1151  0.2908
10630W        W26891   1.352   6.690  15.212  0.0203 -0.2869 -0.0295
10631W        W26892   0.437  12.222  14.105 -0.3533 -0.0614 -0.2167
10632W        W26893   7.177  16.257   0.171  0.1106  0.3068  0.0880
10633W        W26894   7.467  16.258   4.628 -0.1331  0.1491  0.3615
10634W        W26895  11.727  12.712  16.475 -0.4391  0.3703 -0.2053
10635W        W26896  10.070   6.587  13.276 -0.1853  0.0917  0.0763
10636W        W26897  16.028   5.515  12.861 -0.2266  0.3677 -0.1008
10637W        W26898   9.364  14.396   3.816  0.0758  0.1447 -0.1298
10638W        W26899   5.975  11.593  16.021 -0.1062 -0.1766 -0.2079
10639W        W26900   4.995   5.362  15.496  0.0172  0.0955  0.1312
10640W        W26901  10.082   6.411  15.402  0.1332  0.1454 -0.1485
10641W        W26902   0.737  16.517   2.316 -0.1637  0.3822 -0.2447
10642W        W26903   3.627  16.510   3.012  0.0188 -0.0555  0.1414
10643W        W26904  17.549  12.236  13.941  0.0695 -0.1137 -0.1160
10644W        W26905  13.018  13.021   3.640 -0.0235  0.1149 -0.2013
10645W        W26906  11.917  15.892  12.685 -0.0510  0.1196 -0.0713
10646W        W26907   0.626   5.312  16.472  0.2284 -0.0072 -0.3550
10647W        W26908  15.787  10.649   3.512  0.1852  0.3616 -0.2046
10648W        W26909  11.620  15.076   5.542 -0.0759 -0.0068  0.1802
10649W        W26910   8.426  15.320   5.646  0.2513  0.0757 -0.0351
10650W        W26911  13.108   8.761  13.609  0.0988  0.0009  0.1574
10651W        W26912   8.486   8.495  16.634  0.1209  0.2013  0.0676
10652W        W26913   7.734  16.742   2.192  0.1737  0.0328 -0.2421
10653W        W26914   7.383   5.154  11.554 -0.3052  0.0869 -0.2253
10654W        W26915   3.065   2.722  11.958  0.2055  0.0591  0.2123
10655W        W26916  15.762   2.197  11.554  0.1781  0.2112 -0.1062
10656W        W26917  14.964   4.222  14.421 -0.0363 -0.3674  0.0786
10657W        W26918  15.223  16.755  13.841  0.5153 -0.0375  0.0544
10658W        W26919   2.678  10.264  16.341 -0.1305  0.0482 -0.1130
10659W        W26920   2.482   2.392   1.715  0.2642  0.0489  0.0008
10660W        W26921   5.664  11.626  14.899  0.2220 -0.0272  0.2093
10661W        W26922   1.898  16.696   5.607 -0.0349  0.2106 -0.3125
10662W        W26923  17.707   6.939  13.003  0.3424 -0.3121 -0.0498
10663W        W26924   7.299  14.180   0.380 -0.2718  0.0171 -0.0140
10664W        W26925   6.161   0.864   0.187  0.1015 -0.1064 -0.1967
10665W        W26926  14.577   3.335   3.700  0.2590  0.0182  0.1022
10666W        W26927   1.069  15.424   3.443  0.1627  0.3689 -0.1619
10667W        W26928   2.270  13.439  11.968 -0.2004  0.0919  0.0817
10668W        W26929  12.268   1.036  11.525  0.1176 -0.1124  0.1300
10669W        W26930  12.509  14.004   5.879 -0.4101 -0.0030  0.2976
10670W        W26931   0.383  17.536   1.168  0.2100 -0.0555 -0.0966
10671W        W26932   4.768   5.927  16.393 -0.0390 -0.0618 -0.3883
10672W        W26933   6.096   6.048   2.361 -0.0319 -0.0122  0.1166
10673W        W26934  13.697   6.907   1.939 -0.1625  0.0427  0.2649
10674W        W26935   5.114  17.192   3.321 -0.0991  0.1155 -0.1524
10675W        W26936  17.674   2.073  11.843 -0.0661 -0.1929  0.2338
10676W        W26937  11.086  13.318  15.899  0.1198  0.0579  0.2857
10677W        W26938  15.172  13.059   1.066  0.0958  0.3952 -0.0613
10678W        W26939   0.972  12.854  13.376  0.0708 -0.3642  0.0843
10679W        W26940  17.918   8.926  15.320  0.0038 -0.0766 -0.1585
10680W        W26941  16.736   3.211  12.184  0.2293  0.1659  0.1361
10681W        W26942   9.568   1.256  14.003 -0.3133  0.0965 -0.1610
10682W        W26943   6.971  17.572   0.794 -0.3933  0.1665  0.1615
10683W        W26944  12.009   8.254   3.752  0.0571  0.1339 -0.1940
10684W        W26945  13.825   4.367   0.735 -0.0445  0.1883 -0.2160
10685W        W26946   4.485  17.828  11.663 -0.3620 -0.1416  0.4931
10686W        W26947   7.232   0.454   2.050  0.2101 -0.0721  0.0157
10687W        W26948  17.660   3.542   2.246 -0.2992  0.4116  0.0657
10688W        W26949  16.334   8.061   5.865  0.1100  0.0216 -0.1908
10689W        W26950  15.880   5.968  12.933  0.2280  0.1834 -0.0003
10690W        W26951  15.982   9.513   4.148  0.2316  0.2128  0.1960
10691W        W26952  12.493  11.543   5.961  0.3647  0.1865 -0.2410
10692W        W26953   8.100   3.616  15.985 -0.0967 -0.0304  0.2316
10693W        W26954   3.920  17.895   1.141 -0.0773 -0.1785 -0.3776
10694W        W26955   9.718   2.559  15.353  0.2029  0.3085  0.0151
10695W        W26956   9.906   9.719   1.206 -0.0729 -0.1493  0.1582
10696W        W26957  15.775  12.308  14.905  0.2188 -0.5885  0.1551
10697W        W26958   1.692   3.873  16.353 -0.0450  0.1984 -0.0311
10698W        W26959  15.060   3.269  12.036  0.4103 -0.1927 -0.1447
10699W        W26960   3.097   8.358   1.369  0.2811  0.1129  0.2605
10700W        W26961   5.411  10.903   2.964 -0.3893  0.1139 -0.0830
10701W        W26962   3.384  11.063   5.214  0.2631 -0.1471  0.0402
10702W        W26963   4.992   3.187   1.655  0.2426  0.1715 -0.0411
10703W        W26964  13.208   8.173   3.564  0.1775 -0.1654  0.1102
10704W        W26965  14.232  13.820  13.958 -0.2375  0.3902 -0.1349
10705W        W26966   1.100   1.596   2.979  0.5585 -0.2638 -0.0149
10706W        W26967  11.095   4.059   5.078  0.4232  0.0817 -0.1854
10707W        W26968  11.221  10.110  14.965  0.1683  0.1312 -0.3082
10708W        W26969  14.061   1.758  16.064 -0.3398 -0.0738  0.2019
10709W        W26970  10.791   4.625  12.244 -0.0682 -0.0977 -0.0490
10710W        W26971   7.367   0.046  13.803  0.0315 -0.0361  0.1842
10711W        W26972   7.973   2.419  15.655  0.2209  0.2601 -0.0508
10712W        W26973  14.768  11.229   5.002 -0.2245 -0.0065 -0.1524
10713W        W26974  15.482   4.217   1.723 -0.1861  0.0845  0.2209
10714W        W26975   7.322  14.523  16.066  0.0550  0.2299 -0.1423
10715W        W26976   3.537   4.683   0.628  0.0934  0.1914  0.0263
10716W        W26977  10.949   4.438   0.157 -0.1125 -0.0880  0.0060
10717W        W26978   6.527   2.624   2.380  0.0815 -0.1260 -0.2493
10718W        W26979   2.661  13.422   4.952 -0.1217  0.1449  0.0282
10719W        W26980  13.078   7.874  13.004  0.3156  0.6196  0.0858
10720W        W26981  15.133   1.444   1.630  0.2604 -0.0075 -0.1970
10721W        W26982  15.488   8.273  12.565 -0.1055  0.3503  0.3305
10722W        W26983   3.820  12.942  15.375 -0.2711  0.0233  0.2513
10723W        W26984   9.546  11.253   4.166  0.2285 -0.2085 -0.0512
10724W        W26985   0.485  16.592  13.271 -0.0047  0.0384 -0.1874
10725W        W26986   9.194   1.466  12.689 -0.0787 -0.1535  0.1477
10726W        W26987   2.968   8.323   5.914 -0.1637  0.0819  0.1959
10727W        W26988  13.082  17.851  15.146  0.2275  0.4875  0.2315
10728W        W26989  12.338   3.980   1.837  0.2203  0.1059 -0.0206
10729W        W26990   7.025   8.720   1.570 -0.1675 -0.1475  0.1579
10730W        W26991  12.129  15.371   0.136 -0.0180 -0.3173 -0.6526
10731W        W26992   3.226  10.340   4.837  0.0448 -0.0073 -0.1812
10732W        W26993  12.722  18.061   0.335  0.1097 -0.1165 -0.1850
10733W        W26994   8.609   4.449   2.311  0.0570  0.3920  0.0418
10734W        W26995   1.072  14.201  12.971  0.1711 -0.2016 -0.0107
10735W        W26996  12.329  16.468   4.822 -0.1460 -0.0417 -0.1397
10736W        W26997   2.975   1.923   3.081 -0.2557  0.0812 -0.2191
10737W        W26998   7.200  10.141   0.094 -0.5078 -0.0301  0.0917
10738W        W26999   2.480  15.629   4.922 -0.1689  0.1959  0.0783
10739W        W27000   7.527   7.767  12.017  0.0005  0.0995  0.1030
10740W        W27001   3.326  17.230  12.064 -0.1772  0.3283  0.0883
10741W        W27002   6.260  16.027  13.039 -0.1531 -0.1008  0.2771
10742W        W27003  14.943  14.545  11.095 -0.1436  0.1775 -0.0996
10743W        W27004  10.700  13.709  16.499  0.0928 -0.0071  0.2664
10744W        W27005   8.570   5.819  12.506  0.1802 -0.0240  0.1127
10745W        W27006   0.913  13.670  15.177 -0.4681  0.0266 -0.0650
10746W        W27007   5.747   1.853  12.695  0.2623  0.3025 -0.1816
10747W        W27008   4.362  17.192   4.876 -0.0889 -0.0756 -0.0710
10748W        W27009   8.826   9.425   6.261  0.0994 -0.1716 -0.5152
10749W        W27010   4.331  17.254  14.760  0.0549 -0.0807 -0.2027
10750W        W27011  13.575  10.710  13.421  0.2324 -0.3028 -0.2266
10751W        W27012  13.738  13.807  13.867 -0.1245  0.0664  0.2163
10752W        W27013   8.301  14.126   4.187 -0.1591 -0.2914 -0.4690
10753W        W27014  14.200   5.138   1.215 -0.1024  0.2590 -0.1574
10754W        W27015  17.870  10.627   0.221 -0.0245 -0.1419 -0.0198
10755W        W27016  17.059   4.115  15.172  0.1370 -0.1168 -0.0419
10756W        W27017   5.864   6.968   5.109  0.3085 -0.1253 -0.0673
10757W        W27018  14.246   5.865  16.256 -0.0420  0.0276  0.0588
10758W        W27019   1.268   1.340  12.911  0.0767 -0.0058  0.2754
10759W        W27020  12.074  13.833   3.568 -0.0881 -0.0109 -0.4372
10760W        W27021   7.774   3.729  14.702  0.0428  0.0270 -0.0502
10761W        W27022   0.204  12.449   5.526 -0.0818  0.0177 -0.1804
10762W        W27023  14.721   6.031  12.325 -0.1802 -0.0900 -0.2067
10763W        W27024   1.241   0.991   1.268  0.1366  0.3589 -0.1892
10764W        W27025  14.309   5.899  13.411  0.0644 -0.1581  0.0530
10765W        W27026  16.177   5.519  12.331 -0.0742 -0.0946 -0.2769
10766W        W27027  16.404   4.719  15.145 -0.1795  0.1407  0.2206
10767W        W27028   0.759   1.446  14.541 -0.0611  0.0041 -0.3551
10768W        W27029  14.330   0.155  14.177 -0.0826  0.1730 -0.1385
10769W        W27030  16.072  13.209   0.955 -0.3449 -0.1591  0.2373
10770W        W27031   6.191  16.728   4.943  0.2527 -0.2119 -0.0483
10771W        W27032   1.736   7.099  14.549 -0.5432  0.0968  0.0897
10772W        W27033   5.076  17.589   4.188  0.0420  0.0050  0.2497
10773W        W27034   9.930   9.411   1.970 -0.0189  0.1406 -0.2258
10774W        W27035  18.014  12.957   1.381 -0.3260  0.1560 -0.2682
10775W        W27036   3.514   2.640  15.298 -0.4082 -0.1391  0.1403
10776W        W27037   5.261   7.985  15.858  0.1222 -0.0054 -0.3656
10777W        W27038  12.439  15.673  15.207 -0.0246 -0.0904 -0.1471
10778W        W27039  11.685   3.103  11.076 -0.1845 -0.1812  0.2599
10779W        W27040   3.794   9.320  11.657  0.0645  0.0838  0.1619
10780W        W27041  13.028   0.427   2.370 -0.1336  0.0167  0.1529
10781W        W27042   8.387   6.557   5.677  0.3828 -0.1097  0.0099
10782W        W27043   9.414   0.263  14.292  0.1146 -0.0167  0.0963
10783W        W27044   0.309   9.919  11.972 -0.0323  0.0126  0.0930
10784W        W27045   5.005   0.564  16.504 -0.1981  0.4471 -0.1055
10785W        W27046  10.778  15.358  14.794  0.2807  0.1770  0.0792
10786W        W27047   9.091   1.482  13.621  0.1028 -0.0512 -0.0736
10787W        W27048   6.978  11.470  11.412 -0.1602 -0.1982  0.2804
10788W        W27049   4.563  13.281   3.095 -0.0299 -0.0048  0.1893
10789W        W27050   1.052   1.984  13.594  0.1601  0.0029 -0.1491
10790W        W27051   8.780   9.942   1.983 -0.0234 -0.0546 -0.0228
10791W        W27052   9.101   6.684   2.610 -0.0979 -0.3901  0.1508
10792W        W27053   7.502  12.902  15.743 -0.2468  0.1060  0.1023
10793W        W27054  10.208   6.421  15.964  0.4307  0.0657 -0.2053
10794W        W27055   1.989  17.076   0.175 -0.2552  0.0036  0.1367
10795W        W27056  14.524   9.308  11.353  0.0456 -0.1744 -0.1264
10796W        W27057   7.694  17.992   6.382 -0.0421 -0.0007  0.2424
10797W        W27058   6.782  10.404   5.267 -0.0204  0.0633  0.3091
10798W        W27059  14.600  13.864  12.782 -0.1918 -0.2204 -0.2843
10799W        W27060   4.979  11.003   4.913 -0.2770  0.0347  0.2677
10800W        W27061   5.712  14.261   4.334  0.1786  0.0290  0.1213
10801W        W27062   3.783   9.296   4.133 -0.1128  0.0440  0.2166
10802W        W27063   6.468   5.123   3.337 -0.0502  0.2272 -0.3199
10803W        W27064   5.934  10.218   3.913  0.1471  0.0471 -0.0055
10804W        W27065  16.929  14.315   4.973  0.1983  0.1838  0.1416
10805W        W27066   7.473   2.420   4.937  0.0781  0.0829 -0.1359
10806W        W27067  14.677   1.563   3.757 -0.0806  0.5191 -0.1392
10807W        W27068   0.621   4.416  14.828 -0.0511 -0.2729 -0.0780
10808W        W27069   2.874   6.168  10.742  0.0018 -0.2034  0.0491
10809W        W27070   8.601  15.352   3.544 -0.0622 -0.0182  0.0894
10810W        W27071  12.449   0.240   1.198  0.0097 -0.0385 -0.2747
10811W        W27072  13.848   6.555  11.333  0.0576  0.2891 -0.2656
10812W        W27073  14.269   7.643   1.858  0.2812 -0.2500  0.0260
10813W        W27074   0.158   3.187   0.814  0.0156 -0.0918  0.3346
10814W        W27075   4.537  12.037   2.416  0.1893 -0.3142 -0.0325
10815W        W27076  14.081  16.006  11.557  0.3126 -0.0711  0.0788
10816W        W27077   5.206   8.814   5.295 -0.2229  0.1002  0.2741
10817W        W27078  18.041   5.837  15.495  0.2374 -0.1604  0.2195
10818W        W27079   2.063   9.534   0.407  0.1085 -0.0111  0.0203
10819W        W27080   5.023  14.093  13.948  0.3926  0.1591 -0.4128
10820W        W27081   3.561   7.398   5.236 -0.0818 -0.0289  0.0974
10821W        W27082  15.945  12.076  14.141 -0.1104  0.2754 -0.2801
10822W        W27083   7.583   2.339  13.982 -0.0780 -0.3451  0.2838
10823W        W27084   3.849   9.809  13.297  0.1884  0.0324  0.2549
10824W        W27085   8.101   1.053   5.691 -0.2325 -0.0434 -0.3118
10825W        W27086  18.058   9.837  15.521  0.1070  0.0591  0.1129
10826W        W27087   0.701   1.369   2.890  0.0230 -0.0641  0.0884
10827W        W27088   4.007   7.754  12.665 -0.1178 -0.3208  0.3129
10828W        W27089   7.514  14.206   1.027  0.0043  0.0128  0.2142
10829W        W27090  13.300  16.480  11.502 -0.1819  0.0787 -0.0326
10830W        W27091   7.722   2.806   0.890 -0.1272 -0.0349 -0.0695
10831W        W27092  11.045  14.853  12.156 -0.1009 -0.1425 -0.2817
10832W        W27093   8.513  12.354   3.365  0.1224  0.0033  0.1164
10833W        W27094   1.586  17.477  11.904  0.0683 -0.1565 -0.1423
10834W        W27095   2.643   8.058   2.750  0.0670 -0.2996  0.1206
10835W        W27096  10.101  14.724   5.365 -0.1843  0.1589 -0.3140
10836W        W27097   4.989   1.971   6.424 -0.1886 -0.0918 -0.1338
10837W        W27098   7.574  12.193   0.392 -0.0802 -0.0070  0.0251
10838W        W27099  10.960   5.863   3.888 -0.2323 -0.1776  0.0983
10839W        W27100   6.171  15.741   6.482 -0.3038  0.0302  0.0509
10840W        W27101  10.116   8.923  12.906 -0.1930 -0.2521  0.1789
10841W        W27102   3.741   5.512   0.800 -0.1477 -0.0766  0.1767
10842W        W27103   8.413   0.864  12.609  0.1584  0.0525 -0.3736
10843W        W27104  11.810   6.359   2.331 -0.3421 -0.3621 -0.2219
10844W        W27105   9.916   3.530  12.292  0.2375 -0.0532  0.1286
10845W        W27106  11.401  14.758   2.707  0.3695 -0.3697 -0.1000
10846W        W27107  14.847  15.738  12.282 -0.1661  0.0065  0.2789
10847W        W27108   7.439  16.995   5.392  0.1373 -0.1817 -0.0175
10848W        W27109   7.033  17.926  13.358 -0.0274 -0.0797  0.0722
10849W        W27110   7.890   5.798  12.984  0.0643 -0.1919  0.0178
10850W        W27111   3.257  14.577  11.395 -0.0375  0.1381 -0.2162
10851W        W27112   8.487   9.006   0.867 -0.2015  0.2650 -0.2615
10852W        W27113   4.406   8.565  13.294  0.0765  0.1167 -0.0701
10853W        W27114   9.488  18.020   1.392  0.4385  0.0532 -0.2174
10854W        W27115   4.149  11.388  13.893  0.0663 -0.3389  0.1285
10855W        W27116  13.435   3.503   2.781 -0.1179  0.1016 -0.3467
10856W        W27117   8.919   0.737  14.656  0.2490  0.0400 -0.2149
10857W        W27118  14.315   6.753  12.870  0.1921 -0.2181 -0.0169
10858W        W27119  12.858   3.362   0.418  0.0900 -0.2845  0.0074
10859W        W27120  12.204   6.485  15.950 -0.1560  0.0239  0.1474
10860W        W27121  11.475  15.731   0.643  0.3460  0.2220  0.1865
10861W        W27122   8.225   5.000  12.483  0.0937  0.1280  0.2689
10862W        W27123   6.683  10.110  15.488  0.0458  0.2505 -0.1458
10863W        W27124   6.226   1.988  12.606  0.1589  0.1553  0.0850
10864W        W27125   0.786  11.163  14.341  0.3088  0.2454 -0.0627
10865W        W27126  17.367   5.942  14.178  0.1015 -0.1094 -0.1228
10866W        W27127  10.479   4.986   4.206 -0.1605  0.0899 -0.2475
10867W        W27128   8.853  15.690   3.247  0.0013 -0.1750 -0.2731
10868W        W27129  17.748   8.005  15.856  0.1193 -0.3137  0.1412
10869W        W27130   4.702   6.803  11.954 -0.3045 -0.2892 -0.2530
10870W        W27131   7.347   5.068  14.839 -0.2093 -0.2290 -0.0812
10871W        W27132   5.139  12.282  16.487  0.4126  0.1012 -0.0127
10872W        W27133   6.121   4.215  11.712 -0.1691 -0.0405  0.4776
10873W        W27134  11.904  11.090  16.132  0.1423  0.2624  0.3435
10874W        W27135   3.498  11.010   3.737  0.1650 -0.5031  0.0118
10875W        W27136   7.669   3.146   0.032 -0.2098 -0.0287 -0.3115
10876W        W27137   2.286  11.833  12.910 -0.1237 -0.2796 -0.1926
10877W        W27138  17.270  11.422  13.671  0.2468 -0.2582 -0.0356
10878W        W27139   8.825  17.459  15.594 -0.0368  0.1551  0.0875
10879W        W27140   8.607   3.203  11.411 -0.1224 -0.4201 -0.3525
10880W        W27141   9.532  16.723   5.440  0.3144  0.0675  0.4010
10881W        W27142  15.308  13.582  15.438  0.0616 -0.1116  0.1834
10882W        W27143   8.233   4.258   2.023 -0.1335 -0.2231  0.0492
10883W        W27144  15.636  11.125  15.443 -0.0498 -0.0254  0.2046
10884W        W27145   6.785   8.953   2.396  0.0850  0.1860 -0.0811
10885W        W27146   7.414   0.489  12.840  0.0459  0.2351  0.0478
10886W        W27147   6.352  15.635  12.303 -0.1346 -0.1056  0.2391
10887W        W27148  13.166  12.059  13.676 -0.2880  0.1486  0.0059
10888W        W27149   0.602  17.204  13.238  0.2478  0.1234  0.0339
10889W        W27150   9.312   0.609   2.820 -0.0141  0.0573 -0.1214
10890W        W27151   9.169  13.017   0.383  0.2292 -0.1189  0.0252
10891W        W27152  15.977  11.564  14.304  0.1225  0.1216  0.3320
10892W        W27153  16.786   6.371  12.410  0.5052 -0.1149  0.0336
10893W        W27154   1.336   1.916   0.283 -0.1408  0.2093  0.0056
10894W        W27155  14.366  10.305  16.124  0.1392 -0.0890  0.0523
10895W        W27156   8.922  11.860   2.852  0.0904  0.1552 -0.3591
10896W        W27157   6.198  16.329  13.805  0.0810 -0.1726  0.1301
10897W        W27158  14.885  17.317   0.301 -0.1359  0.0976  0.0358
10898W        W27159   6.365   5.766   0.855 -0.1928  0.0368  0.2286
10899W        W27160  16.532   9.243  12.895 -0.3062  0.0150  0.1550
10900W        W27161   5.263  15.623   0.689  0.0424  0.0362  0.0636
10901W        W27162   3.913  14.031  12.406  0.1912 -0.2812 -0.2585
10902W        W27163   7.344   3.992   5.180  0.0433 -0.1424 -0.2572
10903W        W27164   0.164   4.965  14.338  0.3356  0.0384 -0.0826
10904W        W27165   9.096  17.404  14.298  0.1227  0.2768  0.0823
10905W        W27166  15.803  13.098  13.086 -0.0580 -0.1380  0.0972
10906W        W27167   5.582   2.572   1.541  0.1531 -0.2040  0.0378
10907W        W27168  11.128   2.884  16.573  0.1579  0.4707 -0.1862
10908W        W27169  17.225   7.619  16.086  0.1613  0.2847  0.1934
10909W        W27170  12.039  17.433   0.445  0.1240  0.0576 -0.2501
10910W        W27171  12.018   6.864  11.273  0.4084 -0.2086 -0.3326
10911W        W27172  14.642   0.801  11.751  0.1766 -0.0297 -0.1097
10912W        W27173   5.720   4.635   3.350  0.1264  0.0704 -0.0382
10913W        W27174  18.052  14.168  16.566  0.0447 -0.0347 -0.0235
10914W        W27175   8.287  10.396   3.784  0.0306 -0.2996 -0.2125
10915W        W27176   0.712   5.842   1.856 -0.0829 -0.0223  0.2586
10916W        W27177   1.697   5.199  14.923  0.1580 -0.0473 -0.1369
10917W        W27178   2.980  10.366  12.364 -0.0603 -0.2837 -0.0272
10918W        W27179  15.858  10.274   3.835  0.0504 -0.1138 -0.0091
10919W        W27180   2.651  15.674   2.835 -0.0413 -0.1569  0.2475
10920W        W27181   8.752   8.650  11.569 -0.0189 -0.1647 -0.0509
10921W        W27182  11.895   2.789  14.906 -0.0732 -0.4576  0.0274
10922W        W27183   5.315  10.946   4.534 -0.1599  0.0555  0.0200
10923W        W27184  16.257  12.744   0.859 -0.2029  0.3305 -0.0111
10924W        W27185  16.915   2.452  16.326 -0.1271  0.2584  0.1451
10925W        W27186   7.499   9.953   5.535  0.0835  0.1417 -0.2046
10926W        W27187  12.514   2.487   0.504 -0.0391  0.0410  0.2489
10927W        W27188   9.922  13.293  14.741 -0.3677 -0.1604 -0.0525
10928W        W27189  16.952   0.585  11.794 -0.1798 -0.0278 -0.0340
10929W        W27190   7.323  17.286   5.023  0.1034  0.2608 -0.3097
10930W        W27191  17.696   9.000   2.295 -0.0219 -0.1010 -0.1454
10931W        W27192  10.865   3.190  13.752  0.2592  0.3254 -0.0570
10932W        W27193   6.892   1.359  13.529 -0.0542 -0.1678 -0.2069
10933W        W27194  14.261   1.239  16.478 -0.1049 -0.0212 -0.0371
10934W        W27195  11.185   4.015   1.194 -0.1925  0.0772 -0.2201
10935W        W27196  13.011  13.551  12.720 -0.3556 -0.4658  0.0351
10936W        W27197  10.880   8.904  12.612 -0.2685  0.1652  0.1783
10937W        W27198   6.215  11.708   1.677 -0.2875  0.0461  0.2018
10938W        W27199   9.874   9.415  15.797  0.2215  0.1592  0.1729
10939W        W27200   0.636   2.918   6.824  0.0312  0.0290 -0.1640
10940W        W27201   2.129   3.933   5.570  0.0024 -0.2035 -0.2493
10941W        W27202   9.269  12.984   4.448  0.0637 -0.2693 -0.3228
10942W        W27203  13.417   9.490  13.355 -0.3397  0.1612  0.3245
10943W        W27204  11.761   0.745   2.084 -0.1029 -0.0518 -0.4960
10944W        W27205  11.240   6.286   2.900  0.1237 -0.1194 -0.2164
10945W        W27206   9.999  10.157   3.801  0.0823 -0.2724  0.1495
10946W        W27207  11.131  16.381   5.297 -0.4807  0.0265 -0.4495
10947W        W27208   2.006  11.065   2.185  0.3141  0.0613 -0.2365
10948W        W27209  11.405   9.400   4.239  0.0409 -0.0769  0.2785
10949W        W27210   4.912  16.397  15.782  0.1579  0.1871 -0.1610
10950W        W27211  15.539   9.068   3.427 -0.0678  0.2094  0.0979
10951W        W27212   1.301   5.704   1.447  0.0007 -0.0427  0.0420
10952W        W27213   3.855   2.350   2.235 -0.0010  0.2314 -0.1345
10953W        W27214   6.085  13.936   0.934  0.2818 -0.0073  0.2052
10954W        W27215  15.884   7.531   4.515  0.3301  0.2106 -0.2930
10955W        W27216   4.513  16.017   2.098 -0.1118 -0.0018 -0.0756
10956W        W27217   8.650   6.979  11.702 -0.0939 -0.3603 -0.2695
10957W        W27218   4.912  13.443  15.404  0.0821 -0.2863 -0.2046
10958W        W27219   8.366   5.975  14.973  0.1847  0.1520 -0.3042
10959W        W27220  13.113  15.391   3.701 -0.1549  0.0054 -0.0881
10960W        W27221  17.171  13.619   0.189 -0.0464  0.0375 -0.1845
10961W        W27222  10.201  16.856   5.137  0.1447 -0.2625  0.1706
10962W        W27223   8.602  10.260   3.360  0.1360 -0.0147  0.1329
10963W        W27224   6.630  13.361  11.809  0.0615 -0.0314 -0.0765
10964W        W27225  17.252   4.645   4.255 -0.1538  0.1800 -0.3202
10965W        W27226  12.873   3.505  12.807  0.0707  0.5017 -0.0640
10966W        W27227  14.624  10.044   1.829  0.0301 -0.0625  0.2432
10967W        W27228   8.549  13.738   0.828 -0.2750 -0.0298  0.0328
10968W        W27229  14.542   3.625   3.250  0.0879  0.1414  0.1907
10969W        W27230   2.321  10.201   4.801  0.1967 -0.1255  0.2501
10970W        W27231   7.413   5.841   3.876  0.0458 -0.0148  0.0584
10971W        W27232  11.961  12.688  13.794 -0.1033 -0.4601 -0.3380
10972W        W27233  17.076   2.931   4.844 -0.0417 -0.0956 -0.2228
10973W        W27234   1.083   4.170  12.275  0.0171 -0.2072 -0.1719
10974W        W27235  10.846   9.137  14.144  0.2829  0.2030  0.1176
10975W        W27236  17.896   5.422  12.658 -0.1314 -0.1787 -0.3131
10976W        W27237   6.158   2.198   2.687  0.0768 -0.4214 -0.1400
10977W        W27238   5.129  11.380   2.500 -0.0492  0.1869  0.1310
10978W        W27239  12.598   1.348   4.756 -0.1290  0.3051 -0.2007
10979W        W27240   5.839  16.410   0.554 -0.3210  0.1747 -0.1439
10980W        W27241   3.261   7.063  12.469  0.2693  0.0716  0.0440
10981W        W27242  13.286   0.018  16.324 -0.2899  0.0646  0.1457
10982W        W27243   7.614  12.251   2.418 -0.2249  0.3086 -0.3297
10983W        W27244  12.507   1.060   5.537  0.2637 -0.2026  0.1474
10984W        W27245  17.068   9.777  15.453 -0.0470  0.0860 -0.0988
10985W        W27246  17.652   6.532  14.031  0.1918  0.0897  0.1034
10986W        W27247   3.407   7.348  12.000 -0.1008 -0.1075  0.1675
10987W        W27248   7.849  14.318   2.496  0.1025  0.3230  0.1473
10988W        W27249  16.481   7.966   2.488 -0.1187  0.2514 -0.0053
10989W        W27250   6.932   4.558   6.334  0.0661  0.3220 -0.0472
10990W        W27251   8.062   1.462  14.517  0.1252 -0.0946 -0.0839
10991W        W27252  17.623  14.645  14.833  0.1937 -0.0685  0.2881
10992W        W27253  17.314  14.589   0.778  0.0256  0.4615  0.1793
10993W        W27254   8.716  10.941  15.256  0.1840 -0.1145  0.1695
10994W        W27255   3.622   5.978   3.550 -0.1408  0.4041 -0.0757
10995W        W27256   2.259  10.925   4.998 -0.0812  0.1958 -0.0201
10996W        W27257   3.147  15.685  14.826  0.0226  0.2169  0.0988
10997W        W27258  17.624   2.851   5.992 -0.1144  0.0223  0.2021
10998W        W27259   4.256  15.468   3.908 -0.0171  0.0422 -0.0274
10999W        W27260   4.019   2.123   1.233 -0.0189 -0.2240  0.1022
11000W        W27261   7.115   1.169  16.305 -0.0295  0.0611 -0.1755
11001W        W27262  11.032  14.898   4.891 -0.0143  0.0542  0.1146
11002W        W27263   9.124   7.562  12.714  0.0730  0.1110 -0.0863
11003W        W27264  11.460  11.704   4.868  0.1194  0.1541  0.0469
11004W        W27265  13.432   1.433  15.629  0.0378  0.0447  0.3187
11005W        W27266  11.762   7.787   2.128 -0.0728  0.0112 -0.0334
11006W        W27267  15.884  17.305  11.976  0.0700 -0.3044 -0.2148
11007W        W27268   3.297   8.578  15.113 -0.2187  0.2612  0.2444
11008W        W27269  17.992  11.392   4.932 -0.0016 -0.2337 -0.3642
11009W        W27270  13.380   4.837  11.574  0.1521  0.1681  0.1577
11010W        W27271  10.397   9.458   3.258  0.1475  0.0294 -0.1304
11011W        W27272   9.064  10.150   2.997  0.1102  0.0179  0.3038
11012W        W27273  10.255   5.682   4.624  0.1637  0.0653  0.0204
11013W        W27274  16.227   8.919   0.381  0.0260 -0.0763 -0.3196
11014W        W27275  11.830   6.766   0.797  0.0250 -0.0226  0.2859
11015W        W27276  14.784   7.666  12.794 -0.0316  0.1445 -0.1252
11016W        W27277   4.483   7.081  13.911  0.4152  0.0360  0.1467
11017W        W27278   8.943   9.119  11.527 -0.0094 -0.2259  0.1252
11018W        W27279  13.511  16.874   2.622  0.0189 -0.2515  0.1510
11019W        W27280   7.571   2.618  15.881  0.2385 -0.1474  0.0356
11020W        W27281   6.026  15.020  15.409  0.0565  0.0006  0.2529
11021W        W27282   1.765  12.665  13.059 -0.1027  0.0342  0.1210
11022W        W27283   6.849  13.143   4.365 -0.2703  0.1640  0.1841
11023W        W27284   8.924   0.045   4.896  0.3805  0.1224 -0.1284
11024W        W27285   5.855  16.623  13.017  0.1131 -0.0718  0.2687
11025W        W27286   2.237   1.116   2.518 -0.1124  0.1926 -0.1405
11026W        W27287  15.736  16.745  14.527 -0.0044  0.1699 -0.1705
11027W        W27288   4.361  14.514   3.247  0.0557 -0.0565 -0.2345
11028W        W27289  17.235   3.384   0.764 -0.0878 -0.0941  0.0192
11029W        W27290  13.413   7.896   4.904  0.0110 -0.4995  0.0913
11030W        W27291   5.609   3.643  15.356  0.1094 -0.0823  0.1245
11031W        W27292   6.622   1.282   3.674  0.0568 -0.1579  0.3364
11032W        W27293   6.336   2.813   2.948 -0.1397 -0.1213  0.1328
11033W        W27294  12.676  13.456   1.198  0.1827  0.0934 -0.2943
11034W        W27295   9.199   0.080   4.391  0.0756  0.0081  0.3083
11035W        W27296  17.939   8.507   4.411 -0.2007  0.3034 -0.0741
11036W        W27297   7.319  16.753   1.887 -0.0233  0.1522 -0.1634
11037W        W27298  14.417  13.338  12.868 -0.0097  0.0892 -0.3797
11038W        W27299  17.128  16.117   2.509 -0.0709 -0.2234  0.1553
11039W        W27300  17.450  12.077  12.640  0.1378 -0.2217  0.0894
11040W        W27301  14.074   8.586  14.508  0.1273  0.3182 -0.0413
11041W        W27302   0.585   3.934   1.695  0.1392 -0.5292 -0.0093
11042W        W27303  11.951  16.604  14.413  0.1045 -0.0352 -0.0364
11043W        W27304  10.792   0.241  14.169 -0.0526 -0.1126 -0.1976
11044W        W27305   2.690  16.329  14.038  0.1840  0.1893 -0.1217
11045W        W27306  11.964  17.185   1.243 -0.1811  0.0526  0.1207
11046W        W27307   1.261   7.363   1.159 -0.1451  0.0140  0.1144
11047W        W27308  15.280  10.873  15.695  0.1029  0.0833 -0.3839
11048W        W27309  10.585  14.941  14.043  0.2350 -0.0869  0.0421
11049W        W27310   1.650   8.318   4.315 -0.3449 -0.0286  0.2462
11050W        W27311   2.900  15.717  13.492  0.0951  0.1462  0.0565
11051W        W27312  14.320   3.481  12.668  0.2230  0.0772 -0.1775
11052W        W27313  12.755   2.425  15.876 -0.1535  0.1610  0.0937
11053W        W27314  10.931   6.343  14.734  0.0487  0.1580  0.3624
11054W        W27315  15.987  11.730   4.840  0.2678  0.0766 -0.0906
11055W        W27316   2.485  15.024   3.927 -0.1511 -0.2041 -0.2495
11056W        W27317  16.400   6.448   5.343  0.2129  0.0321  0.0916
11057W        W27318   2.219  12.176  13.893 -0.2262  0.1003  0.1508
11058W        W27319  15.866  14.294  11.085  0.1103 -0.0947  0.1799
11059W        W27320   2.381   2.002  12.559  0.0235  0.1556  0.1695
11060W        W27321  14.399  13.466   0.632  0.2375  0.0137 -0.2908
11061W        W27322   8.942  12.056   3.683 -0.1797  0.0209  0.1436
11062W        W27323  10.019  11.753   6.083 -0.2193 -0.2012 -0.0469
11063W        W27324   1.900   2.910  15.991  0.1020 -0.2500  0.1315
11064W        W27325   1.552   3.672   1.842  0.0257 -0.2453 -0.2605
11065W        W27326   1.242  13.431  11.800  0.1024  0.2370 -0.5347
11066W        W27327   8.057  12.213  15.469 -0.0685  0.1291  0.2311
11067W        W27328   8.804   6.674   4.719  0.3113 -0.3495 -0.0581
11068W        W27329  10.864   5.378   4.697 -0.1137  0.4098  0.1017
11069W        W27330  12.070   3.022  16.297 -0.0653  0.1196  0.0465
11070W        W27331   4.759   6.385   5.276  0.0946  0.0211 -0.0501
11071W        W27332  15.148   0.961   1.831 -0.2139 -0.0005 -0.1370
11072W        W27333   6.217  15.012   3.214  0.0161 -0.0733  0.0626
11073W        W27334  16.795  11.846   1.475  0.2809 -0.1624  0.0917
11074W        W27335   7.645   5.011   4.358  0.2138  0.1483 -0.1720
11075W        W27336   5.232  10.519   4.836  0.4149 -0.2503 -0.3291
11076W        W27337   6.727  11.945   1.673  0.0862 -0.0206  0.0847
11077W        W27338  16.695  12.197   2.637 -0.1289 -0.1240 -0.0893
11078W        W27339   9.130   3.748  13.137 -0.0669 -0.1809 -0.1059
11079W        W27340  12.557  17.181  13.894 -0.2134 -0.1210  0.1842
11080W        W27341   0.568   1.684   3.242 -0.2295 -0.0031  0.1019
11081W        W27342   6.658  14.521   4.080 -0.1681  0.1310  0.0876
11082W        W27343  12.105   6.920  14.080  0.1026  0.0108  0.2136
11083W        W27344  14.536  17.421  14.470 -0.3761 -0.1109  0.3555
11084W        W27345   0.163   5.827  12.286  0.2222  0.1382  0.0136
11085W        W27346  14.281   8.816   5.131  0.2202 -0.0641  0.0256
11086W        W27347  16.304  15.234   4.741 -0.1882 -0.2939  0.2262
11087W        W27348  14.854  10.746  13.875  0.1283 -0.0054  0.0569
11088W        W27349   6.580  16.748   1.361  0.2117  0.1810 -0.0244
11089W        W27350   7.629  12.284   3.547  0.2956  0.1290  0.0192
11090W        W27351   1.829   2.587  13.242  0.1260 -0.1216  0.1674
11091W        W27352   4.858   9.331   5.430 -0.0331  0.2622 -0.1069
11092W        W27353   0.604   2.907   0.811 -0.1514 -0.3451 -0.0714
11093W        W27354   7.559   0.500  14.624 -0.0909 -0.1560 -0.0887
11094W        W27355   4.811  12.362  12.161  0.4081 -0.1843  0.1388
11095W        W27356  10.538   5.316   3.322  0.2087  0.1805 -0.2121
11096W        W27357  11.357   2.497  15.702  0.1786 -0.0151 -0.4863
11097W        W27358   5.416   3.199  14.718 -0.1085 -0.3291 -0.3381
11098W        W27359   3.074   1.335  11.781 -0.1271 -0.2784 -0.2965
11099W        W27360  17.283  11.072   4.697 -0.2167  0.2566  0.2705
11100W        W27361   8.033   5.567   4.550  0.0001 -0.2060  0.0751
11101W        W27362   6.177   8.504  16.620  0.0626  0.1787 -0.1623
11102W        W27363   0.396   3.709   4.177  0.0462 -0.0570 -0.0809
11103W        W27364  10.027   3.235   1.618 -0.4045  0.2626  0.0889
11104W        W27365   2.396   1.698   1.269 -0.1063  0.0785  0.0593
11105W        W27366   3.742   2.469   0.677  0.0734 -0.5138  0.3325
11106W        W27367   4.551  15.999  15.953  0.1275  0.3489  0.2444
11107W        W27368  14.115  10.134   2.011 -0.1351 -0.4155 -0.1179
11108W        W27369  11.889   0.964  15.069  0.1114  0.2578  0.0574
11109W        W27370  15.547  12.080   4.699 -0.1915  0.2259  0.0039
11110W        W27371   7.174   6.823  12.297 -0.0212 -0.4677 -0.0619
11111W        W27372   4.898  12.270   0.649 -0.0504  0.0402  0.3637
11112W        W27373  15.080  10.325  13.606 -0.1117 -0.1396 -0.0443
11113W        W27374   1.150   2.303   1.049 -0.2956 -0.0579 -0.0940
11114W        W27375   5.113  17.875  13.346 -0.1119  0.0585  0.0721
11115W        W27376   4.643  15.084   5.709  0.2586 -0.2161  0.0142
11116W        W27377  15.164   7.272  12.794  0.2656 -0.1399  0.0008
11117W        W27378   1.569  14.242  16.302 -0.2654 -0.2775 -0.0699
11118W        W27379   5.187  15.912  16.629  0.1121  0.2238 -0.0616
11119W        W27380   9.539   5.139  13.246 -0.0561 -0.0400  0.2200
11120W        W27381  15.684  18.182   5.510 -0.1838 -0.0040  0.2761
11121W        W27382   3.755   1.945  12.772  0.1390  0.2531 -0.1317
11122W        W27383   8.654  17.565   4.463  0.1413  0.0650  0.1178
11123W        W27384   7.393   6.371  13.588  0.4879  0.3226 -0.2396
11124W        W27385  17.924  14.051  11.717  0.3288 -0.0021  0.1069
11125W        W27386  14.717   7.475  15.773 -0.1150 -0.0474  0.0616
11126W        W27387   0.048  10.181   0.376  0.0714 -0.3103  0.1451
11127W        W27388   8.113   7.702  14.551 -0.4469 -0.0445 -0.0226
11128W        W27389   2.887  18.152   5.415 -0.3956  0.4291 -0.0229
11129W        W27390   8.834  10.396   1.175 -0.2505 -0.0736 -0.0463
11130W        W27391   5.403  13.071   2.343 -0.0204 -0.1171  0.3757
11131W        W27392   4.277   9.987  13.494  0.1314  0.0531  0.1936
11132W        W27393  10.185  16.716  14.469  0.1985 -0.0625  0.2752
11133W        W27394  16.583   0.330  13.683 -0.1169  0.0597  0.3841
11134W        W27395  14.387   8.145   0.227 -0.2621  0.0851 -0.3380
11135W        W27396   9.487  12.979  12.943 -0.0732  0.1375  0.0761
11136W        W27397  13.723  11.019  15.655 -0.1455 -0.0348 -0.1473
11137W        W27398  17.880  17.945  12.390 -0.1774 -0.0361  0.0338
11138W        W27399   0.844  15.141   1.803 -0.3267  0.1325  0.0602
11139W        W27400  17.010   3.996  12.730 -0.1571 -0.1459  0.0140
11140W        W27401  13.221   2.255  15.861 -0.1838 -0.1103  0.1002
11141W        W27402   5.786   7.784  14.029  0.0641 -0.0877  0.1005
11142W        W27403   1.204  13.737  12.708 -0.2098 -0.0330 -0.2680
11143W        W27404  10.033   8.614   2.958 -0.1995 -0.2693 -0.1099
11144W        W27405  13.917  12.446  13.535  0.0329 -0.0882  0.2951
11145W        W27406  17.565  17.602  16.512 -0.2826  0.2165 -0.0803
11146W        W27407   7.229   3.382   0.079 -0.2178  0.1609 -0.0827
11147W        W27408  15.544   0.654   1.486 -0.0455 -0.0245  0.1257
11148W        W27409  10.859   0.782   3.715 -0.1095 -0.0820 -0.3787
11149W        W27410  14.182   3.438  16.641 -0.1228  0.4656 -0.0344
11150W        W27411  15.778  15.730  11.435 -0.0145 -0.3279  0.5112
11151W        W27412   6.404   1.163  11.824 -0.0286  0.1113  0.0936
11152W        W27413   5.393   7.594   2.320 -0.1199 -0.2514  0.0589
11153W        W27414  17.469  10.499   2.003 -0.1942 -0.1655 -0.0368
11154W        W27415   7.790  14.562  15.285 -0.0959 -0.0342 -0.1508
11155W        W27416   6.903  14.403  11.698 -0.3455  0.1539 -0.1477
11156W        W27417  11.707  10.305  12.468  0.3811  0.1839 -0.3051
11157W        W27418  10.491  12.717   1.066  0.0017  0.0560 -0.4253
11158W        W27419   2.120  13.071   3.845  0.0180 -0.2043  0.0981
11159W        W27420   0.705  14.620   0.192  0.0196 -0.0518  0.0732
11160W        W27421  13.326   0.602   4.583  0.1247  0.1848  0.0072
11161W        W27422   1.544   7.348  15.853  0.1282 -0.1958 -0.1923
11162W        W27423   8.826  10.167   3.838  0.1367 -0.0680  0.1476
11163W        W27424   9.182  13.793   4.013  0.0170 -0.0757  0.2667
11164W        W27425   9.338  12.177  11.881 -0.1507 -0.1138 -0.0019
11165W        W27426  14.199   7.361  16.041 -0.2213  0.0336 -0.5121
11166W        W27427   2.196   9.629   4.362 -0.3929  0.0658  0.0792
11167W        W27428   4.434   4.093   0.976  0.2484  0.1990 -0.2632
11168W        W27429   1.808   5.870   3.297 -0.1362 -0.0449  0.1126
11169W        W27430   1.797   5.306   4.236 -0.2099  0.1831  0.0787
11170W        W27431   0.621   6.251  13.107  0.0691 -0.3464 -0.1953
11171W        W27432   3.014   9.512   0.352 -0.1552 -0.1342 -0.1333
11172W        W27433  13.761   9.355  13.052 -0.0331 -0.0295  0.2193
11173W        W27434   5.886   0.313   2.909  0.1854 -0.1817 -0.0508
11174W        W27435  14.416  13.245   3.969  0.3394  0.1295  0.3385
11175W        W27436  16.677   8.593   3.134 -0.1214  0.1342 -0.0749
11176W        W27437  17.281  13.402   2.408 -0.0440 -0.1690  0.2933
11177W        W27438  10.170   9.306   5.352  0.0967 -0.3120 -0.0865
11178W        W27439  13.519  15.268  11.392 -0.2975  0.1482 -0.0223
11179W        W27440  16.322   4.620  12.448  0.1217 -0.2187 -0.0815
11180W        W27441   7.745  15.012  15.477 -0.0574 -0.3717  0.1294
11181W        W27442  13.312   8.253  13.307 -0.0558  0.0378  0.0797
11182W        W27443   4.135   9.402   2.983  0.2456 -0.1393  0.0226
11183W        W27444   6.366   1.023  16.081 -0.0619 -0.4593 -0.0166
11184W        W27445  16.920  11.387  14.056  0.0705 -0.0096 -0.0815
11185W        W27446   7.715  16.427  15.815  0.1589 -0.1667  0.2153
11186W        W27447   3.808  16.631   5.499  0.0621 -0.0732 -0.0313
11187W        W27448  16.956  13.042  16.165 -0.0204  0.0007 -0.0824
11188W        W27449   7.252  15.499  11.992 -0.1017  0.0022  0.0853
11189W        W27450   4.300  13.902  12.739 -0.2336  0.1624  0.0552
11190W        W27451  10.948  14.983  14.465  0.0427  0.1588  0.2320
11191W        W27452   0.345   2.855   0.372 -0.2636  0.0229  0.2211
11192W        W27453   2.104   1.603   5.292  0.0424 -0.3567  0.3480
11193W        W27454   3.626  13.198  13.530  0.2149  0.0634  0.1278
11194W        W27455   5.629  11.161   2.524  0.3016  0.1188 -0.0317
11195W        W27456  10.037  13.404  15.836 -0.0533 -0.2544  0.3700
11196W        W27457  10.157  17.061   4.674  0.2391 -0.2645  0.4306
11197W        W27458   0.660  15.195   5.637  0.2839  0.1844 -0.0102
11198W        W27459  16.713   5.017   2.964  0.2808  0.1204 -0.0551
11199W        W27460   0.823   7.476  15.922 -0.3139 -0.0647  0.1920
11200W        W27461   3.180   6.664  14.507  0.3370 -0.1501  0.0149
11201W        W27462   1.293  16.700  12.244 -0.1639  0.1204  0.2809
11202W        W27463   9.015   8.317  11.263 -0.1590 -0.2392 -0.0537
11203W        W27464   5.967  12.115  12.989  0.2011  0.1381  0.1161
11204W        W27465   5.653  11.920   6.166  0.1303  0.2357  0.2469
11205W        W27466   3.797   5.656   5.064  0.0355 -0.2259  0.0902
11206W        W27467  13.357   8.725   4.503  0.2058  0.0900 -0.1879
11207W        W27468  16.101  12.688  11.494  0.1491 -0.1744 -0.1253
11208W        W27469  12.387   0.475  13.111 -0.0016  0.2161  0.1225
11209W        W27470   7.021   6.985   4.555  0.1239  0.1407 -0.1032
11210W        W27471   5.557  13.376   5.509  0.2208  0.0792 -0.2646
11211W        W27472   9.301  13.506   4.405 -0.0599  0.0487 -0.0768
11212W        W27473   2.887  12.129   4.838  0.1070  0.0114  0.2808
11213W        W27474   6.942  12.756   5.476 -0.0595  0.1869 -0.1613
11214W        W27475  16.364  11.426  12.444 -0.2736 -0.2195  0.1793
11215W        W27476   3.300  10.302   3.211 -0.2467 -0.3198  0.3473
11216W        W27477   1.975  14.537   6.351 -0.2242  0.1217 -0.3402
11217W        W27478  17.077  12.301  13.300 -0.2124  0.3093 -0.0352
11218W        W27479   7.822  12.240  13.149  0.0189 -0.1908  0.0423
11219W        W27480  12.601   9.570   2.051 -0.0818  0.1522  0.0616
11220W        W27481  13.547  12.827   1.951 -0.0524  0.3588  0.1878
11221W        W27482   5.404  11.734   3.377 -0.2284  0.0128  0.0627
11222W        W27483  17.229  14.400   3.616  0.1317  0.0694  0.1527
11223W        W27484   1.409   1.011   2.148 -0.0028  0.1011  0.0785
11224W        W27485  12.142   1.549  11.546 -0.3293  0.1667 -0.0274
11225W        W27486   7.148  13.472   1.538  0.0349  0.2091  0.3145
11226W        W27487  15.359  17.224  13.648 -0.0851 -0.1987 -0.0919
11227W        W27488   3.547   2.423   1.279  0.2956 -0.1463  0.0497
11228W        W27489  15.965  15.474   4.549  0.0901  0.0612 -0.0723
11229W        W27490   0.140   1.588   4.359 -0.1922 -0.1590  0.0657
11230W        W27491  16.517   4.877   2.261  0.0889 -0.0692  0.1460
11231W        W27492   7.344   5.973  12.072  0.1404  0.1591  0.3126
11232W        W27493  17.058  15.131   5.605 -0.3326  0.0388 -0.0583
11233W        W27494   0.360   5.603   3.177  0.0830  0.1825 -0.1084
11234W        W27495   8.353  16.554  13.988 -0.2019  0.2102  0.3389
11235W        W27496  14.352  12.309  15.468  0.1306  0.0782 -0.2342
11236W        W27497   3.288  15.979  11.551 -0.0858  0.1584  0.1524
11237W        W27498  11.659   3.878   2.668  0.1936 -0.0364  0.0638
11238W        W27499  10.038   3.950   2.118 -0.0375 -0.2342 -0.1971
11239W        W27500   9.181  15.379  14.429 -0.0157  0.1256  0.1686
11240W        W27501   7.021  16.360   1.511  0.3014  0.2124  0.0460
11241W        W27502  10.286   8.696   5.351 -0.0251  0.0049  0.0481
11242W        W27503   6.836  10.355  16.431 -0.4274 -0.0514 -0.3271
11243W        W27504  17.850   8.673  14.422  0.1373  0.0361 -0.2557
11244W        W27505   7.841  15.333  14.237 -0.0430  0.0212  0.1904
11245W        W27506   9.097  17.288   4.854  0.0106  0.1936 -0.0416
11246W        W27507  15.183   7.744   3.911  0.1633 -0.0690 -0.0853
11247W        W27508   2.206  16.220  13.206 -0.1997 -0.1809  0.0945
11248W        W27509   7.192  13.356  15.539 -0.1250  0.1387  0.3531
11249W        W27510   5.799   4.540   5.569 -0.0443 -0.4867  0.0963
11250W        W27511   2.796  12.417   0.704  0.1895  0.0829 -0.0847
11251W        W27512   3.812  16.951   3.741 -0.1241  0.0078  0.0906
11252W        W27513   6.566  11.823  11.400  0.2036  0.2114  0.0540
11253W        W27514  16.461  10.046   5.581  0.1554 -0.3509 -0.1194
11254W        W27515   4.977   9.125   4.986 -0.2624  0.2219  0.0042
11255W        W27516   4.876  15.129  16.566  0.1732 -0.0397 -0.3697
11256W        W27517   0.176   8.653   5.575 -0.1065 -0.1370 -0.1090
11257W        W27518  12.355  17.611   2.723  0.5725  0.2153 -0.1377
11258W        W27519   6.652  17.753  14.008 -0.1669 -0.1853  0.3964
11259W        W27520  13.987  17.259   1.318  0.0255 -0.1251 -0.0679
11260W        W27521   9.484   0.559  15.869 -0.1096  0.2693  0.1179
11261W        W27522  13.770  17.278   1.774 -0.1219 -0.1386 -0.1111
11262W        W27523  14.472  12.117   3.104  0.1301 -0.0956  0.1091
11263W        W27524   4.414  13.200   0.661  0.0422 -0.1864  0.1322
11264W        W27525   3.672  11.093   6.148  0.0014  0.0433 -0.5202
11265W        W27526   0.360  15.233  13.699 -0.2874 -0.3509 -0.1916
11266W        W27527  17.853   6.712  12.543  0.0195 -0.1740  0.1497
11267W        W27528   4.353  13.694  14.465  0.2059 -0.0148  0.0338
11268W        W27529  12.298  14.319  14.623  0.1627 -0.3311 -0.0944
11269W        W27530   8.846  11.085   4.641  0.1206  0.0865 -0.1179
11270W        W27531  11.906  10.378   0.783 -0.0230 -0.3443 -0.0580
11271W        W27532  13.761   4.350  14.391  0.0386  0.1322  0.1250
11272W        W27533  16.590   1.739  11.624  0.0368  0.1101  0.0940
11273W        W27534   3.528  16.060   1.278  0.0752  0.1689 -0.0050
11274W        W27535   5.463  13.692  12.263  0.0429  0.0664  0.0615
11275W        W27536  14.471   9.140   0.489  0.0409  0.0192  0.0029
11276W        W27537   0.584  15.713   3.400 -0.0688  0.0632 -0.0338
11277W        W27538  16.735   7.624   3.702  0.0873 -0.1103 -0.1545
11278W        W27539  11.545   7.391  15.123  0.0160 -0.0164  0.1013
11279W        W27540  15.630  14.163  11.534  0.2046 -0.0442 -0.1384
11280W        W27541   2.924  14.885  12.624 -0.1006 -0.1554  0.0948
11281W        W27542   8.896  17.506   0.317 -0.2967 -0.2911 -0.0305
11282W        W27543   5.711  12.023  15.186 -0.4602 -0.0048 -0.0209
11283W        W27544   3.572   4.323  15.547 -0.2869 -0.1689  0.3148
11284W        W27545  10.602   7.913   5.080  0.0721  0.1274 -0.0317
11285W        W27546   6.330  16.242  14.280 -0.2317 -0.0577 -0.1452
11286W        W27547   8.840   7.782   6.109 -0.2106  0.0102 -0.3407
11287W        W27548   5.980  11.353  14.324 -0.0715 -0.0305 -0.1584
11288W        W27549  12.005   9.214   2.866 -0.3766 -0.1012  0.1889
11289W        W27550  16.859  15.782   0.841  0.0437  0.3238  0.3442
11290W        W27551   4.069   7.229   5.802 -0.1570 -0.1604 -0.0668
11291W        W27552   6.197   4.838   2.561 -0.0280  0.3445  0.1949
11292W        W27553  11.232   4.172  15.149 -0.2052  0.2554 -0.2470
11293W        W27554   9.359   3.589   0.800 -0.0001 -0.1871  0.1648
11294W        W27555   4.170  15.231  13.766 -0.1250 -0.0481 -0.2344
11295W        W27556  10.113   1.411   0.257  0.0495 -0.0451 -0.4295
11296W        W27557  11.401  12.300   0.741 -0.0294 -0.1246  0.1357
11297W        W27558  13.582   1.401  11.389  0.0312  0.1756  0.3184
11298W        W27559   3.016   3.084  13.633  0.0100  0.3066  0.2853
11299W        W27560  14.494  15.152   4.470  0.0824  0.0960  0.0966
11300W        W27561  13.305   1.564  14.099  0.1890  0.1537  0.0530
11301W        W27562   8.413  15.822  14.803  0.0299 -0.2098  0.0157
11302W        W27563  11.378  14.456   4.786 -0.1478  0.1790  0.1684
11303W        W27564   1.168   3.540  16.323  0.1380 -0.3855 -0.1513
11304W        W27565   3.861  15.996   4.813 -0.1072 -0.0899 -0.0244
11305W        W27566  10.341   9.450   4.195  0.2117  0.1679 -0.0886
11306W        W27567  13.957   2.632  13.079  0.1678 -0.0440  0.0736
11307W        W27568   6.784   8.694   4.933 -0.2770  0.2662 -0.1820
11308W        W27569  14.055   1.673   1.407  0.3442  0.1880  0.0812
11309W        W27570  11.498   7.673   2.993 -0.3025 -0.2880  0.0237
11310W        W27571   1.471  16.623  14.744 -0.1592  0.1655 -0.0147
11311W        W27572  13.377  13.967   2.370 -0.4945 -0.2301 -0.1099
11312W        W27573   2.592   0.639  15.137 -0.2797 -0.2021  0.3692
11313W        W27574   0.748   7.079   0.995 -0.1532  0.0835 -0.1251
11314W        W27575  10.353   5.353   1.692 -0.1076  0.2216  0.0253
11315W        W27576  15.810  13.539  15.368  0.0592  0.0606 -0.1708
11316W        W27577   2.475   6.359   2.780 -0.0404 -0.0330 -0.0591
11317W        W27578  11.844   8.224   1.873 -0.0852  0.0435  0.0803
11318W        W27579   7.318   5.389   0.224  0.0525  0.1221  0.0828
11319W        W27580  14.814  17.510  14.913  0.0212 -0.0100  0.5670
11320W        W27581   9.805   2.516   0.460  0.0318 -0.1167  0.3905
11321W        W27582  12.832  10.109   2.089 -0.0470 -0.1873 -0.1011
11322W        W27583  11.145   5.129   2.337 -0.3209  0.1461  0.0390
11323W        W27584  11.254   0.843   4.491 -0.2190  0.2878  0.1395
11324W        W27585   2.428  16.254  11.931  0.1332  0.1592 -0.0375
11325W        W27586  14.067   4.146   1.187  0.3170 -0.1779  0.2307
11326W        W27587   8.223   9.951   4.723  0.1219  0.1020 -0.1669
11327W        W27588   8.552   8.909   4.864 -0.0499 -0.1994  0.0923
11328W        W27589   2.770   1.080  13.946 -0.0164 -0.1552 -0.2216
11329W        W27590  11.856  13.212  11.680  0.0006 -0.1225  0.0141
11330W        W27591  10.618   6.991  15.289 -0.0504 -0.1342 -0.0296
11331W        W27592  10.483  12.795  16.192 -0.0578 -0.2510  0.0165
11332W        W27593  18.044   8.597  13.018 -0.0783 -0.1469 -0.0293
11333W        W27594   8.617  12.278   5.965 -0.0668 -0.1345  0.0804
11334W        W27595  13.747   8.276   4.732  0.2756 -0.1154  0.0304
11335W        W27596  15.492   9.876   2.853  0.0368  0.2775  0.2795
11336W        W27597  12.291  10.216   2.253 -0.0319 -0.1604  0.0771
11337W        W27598  14.793   3.673   1.846 -0.1762 -0.2436  0.0016
11338W        W27599   2.826   5.784   5.689 -0.1744 -0.1462 -0.1122
11339W        W27600   1.473   5.522  13.622  0.2983 -0.0182  0.0385
11340W        W27601  10.310   5.293  15.966 -0.1593  0.1480 -0.3245
11341W        W27602  15.777   6.965   4.772 -0.3161  0.2753 -0.1633
11342W        W27603   2.881  15.876   5.906 -0.0087  0.0682  0.1042
11343W        W27604   7.273  11.038   2.079  0.1841 -0.0734 -0.1702
11344W        W27605  13.981  13.931   4.345 -0.0048  0.1560  0.0442
11345W        W27606   2.815   9.390  12.148  0.0222 -0.1967 -0.0129
11346W        W27607  11.150  11.992  11.856  0.3917 -0.0897  0.2633
11347W        W27608   9.133   2.445  12.626 -0.3585  0.0336 -0.1206
11348W        W27609   7.962   0.129   3.282 -0.1836  0.0390  0.1973
11349W        W27610   1.875   7.855   2.340 -0.2061  0.0669  0.0845
11350W        W27611  17.569  15.251   1.088  0.1569  0.2691 -0.1559
11351W        W27612   2.680   4.821   1.328 -0.2025  0.4811  0.0178
11352W        W27613  14.896  15.903   4.689 -0.0388 -0.0574 -0.3046
11353W        W27614   0.654  17.669   3.570  0.1600 -0.2455  0.0464
11354W        W27615  11.592  13.085   0.076 -0.3391 -0.4785 -0.3765
11355W        W27616   8.261   7.328  11.799  0.1277  0.0027 -0.0840
11356W        W27617   6.630   2.176   3.640  0.1886  0.1344  0.2098
11357W        W27618   3.317  12.665   5.882 -0.0537  0.0432 -0.1423
11358W        W27619   1.748  14.056  15.419 -0.0584  0.3302 -0.1208
11359W        W27620  16.237  11.418  12.898 -0.2582  0.1362  0.1423
11360W        W27621   8.296  10.902  11.830 -0.0097 -0.0864  0.5141
11361W        W27622   7.152   2.444   2.998  0.1804 -0.0050  0.0049
11362W        W27623   9.241   5.868  14.624 -0.0943 -0.1105 -0.1123
11363W        W27624  13.190   2.153   3.568 -0.1400  0.0359 -0.0392
11364W        W27625  14.519   1.079   3.931  0.2551  0.1011 -0.0200
11365W        W27626  15.978   8.959   3.206  0.1729 -0.2651  0.0864
11366W        W27627  12.569  14.035  16.486 -0.1450  0.0321  0.2705
11367W        W27628   1.324  15.131   3.095  0.3122  0.1724 -0.1170
11368W        W27629  11.196   4.777   3.436  0.2405 -0.2919 -0.3000
11369W        W27630  10.687  16.305  13.009 -0.0364 -0.1470 -0.0596
11370W        W27631  16.379   7.378   0.771 -0.0330  0.2851  0.3831
11371W        W27632   2.108   1.061   5.232 -0.0400  0.1480  0.0202
11372W        W27633   8.342   1.456  12.409 -0.1683 -0.2103  0.0520
11373W        W27634  15.821   3.163  16.299 -0.2426  0.0855 -0.3228
11374W        W27635  12.429   6.569   2.994 -0.0642  0.0777  0.0834
11375W        W27636   3.123   1.031  12.962 -0.0006  0.2201  0.2053
11376W        W27637   4.915   2.777  12.105 -0.0576 -0.0916  0.1853
11377W        W27638   1.975  16.509  11.818 -0.1025  0.0595  0.3792
11378W        W27639  10.550   0.303   1.691  0.2616  0.1028  0.1156
11379W        W27640   0.278  10.199  12.452 -0.1139  0.0809  0.1727
11380W        W27641   2.641   4.159   4.808  0.0006 -0.2268  0.0786
11381W        W27642  13.291  15.783   4.042  0.0556 -0.0277 -0.1232
11382W        W27643   6.720  12.199  11.775  0.0802 -0.0438 -0.2107
11383W        W27644   2.830   9.485   1.552 -0.3395 -0.1100  0.1742
11384W        W27645  17.585  17.791   2.945 -0.0857  0.2138 -0.0943
11385W        W27646   5.085  14.390  11.871  0.2816 -0.0892  0.3253
11386W        W27647  13.906   7.785   0.898 -0.0771 -0.0704  0.1350
11387W        W27648   1.655   0.033   2.140  0.4641  0.1487  0.3207
11388W        W27649  13.881  17.817  15.657 -0.1409 -0.0499 -0.0500
11389W        W27650  14.968  16.711  14.780  0.0268  0.0662 -0.2630
11390W        W27651   3.805  11.485  14.588 -0.2924  0.1848  0.0914
11391W        W27652   6.391   6.146   3.153  0.1197 -0.0727 -0.0846
11392W        W27653  10.502   6.294   2.224 -0.1264 -0.4720  0.0107
11393W        W27654  12.568  12.106   4.456  0.0922 -0.0199 -0.2039
11394W        W27655  13.991  14.021   2.986 -0.0338  0.1937 -0.1386
11395W        W27656   8.374   8.585  13.240 -0.0551  0.0265 -0.0188
11396W        W27657   3.023   2.053   0.178  0.0640  0.2518 -0.0859
11397W        W27658   8.190   0.163   5.556  0.1835  0.1234 -0.4294
11398W        W27659   2.076   5.813   0.479 -0.0486 -0.0558  0.0362
11399W        W27660  16.688  13.580   4.347  0.1942  0.1071 -0.1733
11400W        W27661  12.772   9.283  12.634 -0.0065 -0.0982  0.0718
11401W        W27662   5.919   9.509   3.424 -0.0981  0.1498 -0.0555
11402W        W27663  11.796   1.110  12.645 -0.0014  0.2177  0.1289
11403W        W27664   1.665  15.565   0.389  0.2176 -0.2756 -0.0744
11404W        W27665   2.226   2.624  13.575  0.1607 -0.1814 -0.1230
11405W        W27666   8.061   2.570   2.745 -0.0147 -0.0951  0.0801
11406W        W27667  15.237   6.497   1.372 -0.0436  0.1143 -0.1411
11407W        W27668   2.054   6.194   3.647 -0.1882  0.2154  0.1263
11408W        W27669  16.029   7.212   3.318 -0.0131  0.1183  0.0304
11409W        W27670   7.417   2.003  12.960 -0.3954 -0.4287  0.1311
11410W        W27671   7.909   2.050   1.265 -0.1669  0.1013 -0.1920
11411W        W27672  10.133  15.561  11.953  0.0402  0.4431 -0.0818
11412W        W27673  10.201   7.611   3.835 -0.0987 -0.0431  0.2385
11413W        W27674  14.717   1.166   2.779 -0.4728 -0.0281 -0.0607
11414W        W27675   3.366  11.773  15.272  0.1303  0.1085 -0.1757
11415W        W27676  17.845  10.829  14.685 -0.1060  0.0348 -0.1293
11416W        W27677   6.536  16.784   4.554 -0.0872  0.0997 -0.0008
11417W        W27678   1.132  15.929   2.484  0.0435  0.1086 -0.0029
11418W        W27679  18.047  15.352  14.512  0.1261 -0.0651  0.1458
11419W        W27680  13.434  12.396   4.204 -0.0668  0.0187 -0.0914
11420W        W27681  17.331  14.579  11.731 -0.0392  0.0534  0.0168
11421W        W27682   8.887   8.919  14.845 -0.2592  0.2867  0.1351
11422W        W27683  14.636  17.072  15.646 -0.1083  0.0689  0.0304
11423W        W27684   5.880   6.796   2.250 -0.2234 -0.1007  0.2291
11424W        W27685  16.336  13.057  16.070  0.1378  0.2283  0.1833
11425W        W27686  11.552   2.582  15.209  0.2373 -0.0650  0.1517
11426W        W27687  15.468   8.977  15.386  0.1527  0.0555 -0.2359
11427W        W27688  15.810   5.676   4.651  0.1819  0.0582 -0.3461
11428W        W27689  16.471  11.114  14.008  0.0254  0.0194 -0.0744
11429W        W27690  12.815  11.558  11.789 -0.0372 -0.0445  0.1898
11430W        W27691   8.599  10.935  12.283 -0.0996 -0.0921  0.3473
11431W        W27692  15.931  13.275  11.355 -0.3165 -0.0401 -0.2928
11432W        W27693   3.072  17.244  13.858  0.0984  0.0800  0.2490
11433W        W27694   0.230   8.294   4.362 -0.2546  0.1625  0.1287
11434W        W27695   9.066  12.069  15.757 -0.1466 -0.1147 -0.1511
11435W        W27696  13.406  17.598  15.961  0.1834  0.0502 -0.0974
11436W        W27697   6.245  16.522  15.320 -0.1637  0.4298 -0.0097
11437W        W27698  17.970  10.281   5.204 -0.1998  0.1369  0.2572
11438W        W27699  17.096   8.952   1.421 -0.0125 -0.1373 -0.1055
11439W        W27700  10.734   6.841   1.250 -0.0856 -0.3063  0.3709
11440W        W27701  17.327   8.412   2.825 -0.2651  0.0025  0.1665
11441W        W27702  14.741   4.072  11.887 -0.4691  0.0860 -0.0975
11442W        W27703   4.985   5.285  10.610 -0.2161  0.1686 -0.3125
11443W        W27704   8.228   8.647   2.288  0.0454 -0.1486 -0.3351
11444W        W27705   8.484   1.360  14.373  0.0336  0.0578  0.0863
11445W        W27706  18.073  16.540  13.729  0.2148  0.2622  0.0664
11446W        W27707  11.407   2.453   0.226  0.2295  0.1803  0.1773
11447W        W27708   8.914   2.091  11.495  0.1397 -0.1150 -0.2269
11448W        W27709  10.496   2.753   4.562 -0.1123 -0.2812 -0.0442
11449W        W27710   1.046  10.667  15.467 -0.0399 -0.0099  0.1962
11450W        W27711   6.650   4.802  16.017 -0.0249 -0.0021 -0.0775
11451W        W27712  11.154  11.271  13.055 -0.0936  0.1501 -0.2027
11452W        W27713  12.442  13.640  16.124 -0.2548  0.0147  0.0290
11453W        W27714  14.337   9.750  11.557 -0.4437 -0.0764  0.0427
11454W        W27715   2.448   4.051  12.263 -0.0160  0.0518 -0.1327
11455W        W27716  15.552  11.772  14.090 -0.0016 -0.3685 -0.0840
11456W        W27717  12.052  12.768  12.948  0.4509 -0.0737 -0.0004
11457W        W27718   4.390   9.316  12.799 -0.0715  0.3686 -0.2505
11458W        W27719  13.058   8.548   1.743 -0.0755  0.0136  0.0099
11459W        W27720   7.715   0.787   2.205  0.1345  0.0551  0.1483
11460W        W27721   0.682   7.345   5.982 -0.0844 -0.0722 -0.0277
11461W        W27722   6.197  16.129   5.665 -0.3255  0.0418 -0.2283
11462W        W27723  14.153   8.109  11.606 -0.0467  0.3891  0.2651
11463W        W27724  14.178  10.768   1.293 -0.0092 -0.1807  0.2270
11464W        W27725  18.004   0.216  14.334  0.0421 -0.1025 -0.0865
11465W        W27726  14.163  13.577  14.531 -0.1025  0.3784 -0.1058
11466W        W27727  10.595  16.523   4.184 -0.1207 -0.0491  0.2630
11467W        W27728  16.948   6.980  12.115 -0.1104  0.1148  0.3901
11468W        W27729  10.523   5.740  10.221  0.0910  0.0604 -0.0289
11469W        W27730   1.393  15.325  12.287 -0.0676 -0.2380  0.0403
11470W        W27731  13.603  10.453  14.399 -0.1282 -0.1664 -0.2367
11471W        W27732   6.741   9.547   4.998  0.0346  0.2804  0.2323
11472W        W27733   5.295   6.819   2.217 -0.0324 -0.0749  0.0612
11473W        W27734   1.369   6.754  12.629 -0.1392 -0.2398 -0.0385
11474W        W27735  12.474   8.885  12.427 -0.0443  0.0620  0.2591
11475W        W27736   3.885   8.408  15.443 -0.2508  0.0210 -0.1449
11476W        W27737  11.899   8.081   5.835  0.2769  0.0773  0.0711
11477W        W27738   0.912  10.290  14.538 -0.0177  0.1024  0.0993
11478W        W27739  15.725   5.771   5.674 -0.1910  0.1252 -0.0480
11479W        W27740   3.713   1.606  13.174 -0.1794 -0.0466  0.0474
11480W        W27741   5.131  14.453  12.428 -0.1269 -0.3745 -0.1406
11481W        W27742  15.290  13.083   5.129  0.2673 -0.1454  0.0024
11482W        W27743   6.413  12.021   5.660  0.2139  0.0468 -0.1015
11483W        W27744  10.276   5.889   1.821  0.0111 -0.1000  0.3920
11484W        W27745  13.167  10.087  12.080  0.1125  0.1785  0.0307
11485W        W27746   3.872   3.816   2.350 -0.0871  0.1315  0.4648
11486W        W27747   7.846   8.417  15.885 -0.1338  0.1103 -0.0259
11487W        W27748   0.298  16.788  12.414 -0.0033 -0.1047 -0.1331
11488W        W27749   6.749   3.960  12.938  0.3597 -0.2039 -0.1163
11489W        W27750   6.723   6.285   5.558 -0.3079  0.1179 -0.1371
11490W        W27751  10.293  16.897  13.948 -0.0190  0.0645  0.1878
11491W        W27752   8.153  14.142  15.464  0.1523  0.0691 -0.1621
11492W        W27753  10.767  12.308   4.946  0.1582  0.0199 -0.2389
11493W        W27754   5.516   4.948  14.703  0.0257  0.3400 -0.1001
11494W        W27755   8.509  17.870  13.951  0.0320 -0.0611 -0.1391
11495W        W27756  13.935   4.359  13.379 -0.2587 -0.0942  0.1182
11496W        W27757   4.255   7.032  15.035 -0.0806  0.1719  0.2114
11497W        W27758   4.434  12.784   0.150  0.0075 -0.1674  0.2358
11498W        W27759   4.284   1.026   0.381 -0.1138  0.3381 -0.0214
11499W        W27760   1.680  13.555   5.411  0.0356  0.2106  0.4195
11500W        W27761   1.819   1.185   1.355 -0.1619 -0.1004 -0.1226
11501W        W27762  17.189   9.253   5.760 -0.0146  0.0592  0.1148
11502W        W27763   5.932   8.417   2.289  0.2270 -0.2699  0.2910
11503W        W27764  10.420   2.169   4.271  0.3623  0.0229  0.0874
11504W        W27765   5.491  14.141   0.297 -0.3555 -0.0519  0.0138
11505W        W27766   1.112   6.361   4.535  0.3005  0.0383 -0.0343
11506W        W27767  13.895   9.978  11.302  0.0950 -0.0688  0.1529
11507W        W27768   9.844   5.405   2.992 -0.0282  0.1464  0.0787
11508W        W27769   3.439   6.251  15.337 -0.1349 -0.1319  0.1715
11509W        W27770  12.277   7.240   4.625  0.0090  0.0457  0.1223
11510W        W27771   9.430  15.428   5.036  0.1217  0.1013 -0.1141
11511W        W27772  15.473   4.236  12.745  0.2997  0.0439  0.1826
11512W        W27773  12.648   6.710   2.196 -0.2900  0.0349  0.0456
11513W        W27774  10.516  12.091  13.111 -0.0608 -0.2705 -0.2319
11514W        W27775  16.715   0.454   4.811  0.3274  0.1716  0.2272
11515W        W27776  11.297   1.178  13.212 -0.0528 -0.2251 -0.0116
11516W        W27777   7.057  18.001  12.843  0.1329 -0.0995  0.1706
11517W        W27778  11.994   6.947  12.287 -0.0953 -0.0594  0.1036
11518W        W27779  18.047  11.914   3.019  0.1572  0.4510  0.4221
11519W        W27780   7.712  11.299  16.481 -0.0226 -0.2176 -0.0510
11520W        W27781   1.277   7.841  15.821 -0.0241  0.1325  0.1086
11521W        W27782   4.988  10.936   2.067  0.1684 -0.1242  0.0709
11522W        W27783   1.018  14.997   1.353 -0.1639  0.3284 -0.0058
11523W        W27784  12.904  17.108  14.311 -0.0602  0.1463 -0.0944
11524W        W27785   3.153   9.328   1.166  0.0009  0.1379 -0.2356
11525W        W27786   5.368   2.046  12.361 -0.1528  0.2302 -0.1281
11526W        W27787  14.918  12.532  12.236  0.0345 -0.1767 -0.2372
11527W        W27788   8.355  16.082  12.261 -0.0472  0.1532  0.0774
11528W        W27789   2.620   5.306   2.638 -0.0359  0.0136  0.0780
11529W        W27790   4.729  10.838  15.609 -0.1947 -0.0522 -0.1460
11530W        W27791  10.013  11.042   2.833  0.0210 -0.0579 -0.0978
11531W        W27792  12.513  17.232  12.292 -0.4384  0.3058 -0.1703
11532W        W27793   7.663   6.747  13.831  0.1036 -0.0064  0.0782
11533W        W27794  16.598  12.590  11.636 -0.1318  0.1604 -0.1397
11534W        W27795   5.958  11.747   3.490  0.0482 -0.3662 -0.0029
11535W        W27796   2.281   6.587  16.564  0.0989 -0.1963  0.1870
11536W        W27797   6.766   5.224   2.905 -0.0346 -0.2542  0.1062
11537W        W27798  15.714   9.606  14.592 -0.1046  0.2870  0.1528
11538W        W27799  10.844   3.789  13.869  0.0843 -0.0752 -0.2335
11539W        W27800   9.542   1.759  11.918  0.0953  0.2021  0.0566
11540W        W27801  17.217   9.195   0.920  0.2423  0.2579  0.0358
11541W        W27802  10.958   7.279  13.391 -0.1657  0.0231  0.0186
11542W        W27803   6.184   7.725  12.854 -0.2866 -0.0199  0.0850
11543W        W27804   7.360   7.255  11.785 -0.3894  0.0554  0.1462
11544W        W27805  13.055   6.222  13.334  0.1251  0.0246  0.2885
11545W        W27806  15.346  13.931   3.075  0.3722  0.0627 -0.0408
11546W        W27807   8.079  15.027   1.236  0.2901 -0.2139 -0.1589
11547W        W27808   4.221  12.102  13.187  0.1366 -0.1562 -0.1877
11548W        W27809  16.635  13.515   2.872  0.0907  0.0337  0.0574
11549W        W27810   9.672   7.586  13.137  0.0080  0.0509  0.0874
11550W        W27811   3.323   9.410   4.349 -0.2150  0.1587  0.0253
11551W        W27812  14.618   4.552   1.824 -0.0889 -0.0473 -0.3247
11552W        W27813   5.527  10.599   5.664  0.2218  0.0787  0.1142
11553W        W27814   8.757  13.785  13.405 -0.0454 -0.3384 -0.0999
11554W        W27815  15.271  12.785  11.966  0.2324  0.0309  0.2122
11555W        W27816   9.504   4.082   2.030  0.0299 -0.3497  0.0147
11556W        W27817  10.596  10.805   0.253  0.1278 -0.1365 -0.0253
11557W        W27818   4.516   9.029   0.295  0.0971  0.2257  0.0884
11558W        W27819  18.089  17.686   0.427 -0.2370  0.0869  0.0618
11559W        W27820   2.123   6.516  16.094  0.2662  0.0105  0.0382
11560W        W27821   1.800  16.326   2.899 -0.0142  0.0576  0.3506
11561W        W27822   1.569   9.816  13.999  0.2943 -0.0985 -0.2932
11562W        W27823   2.722  15.400  12.558 -0.1175  0.0396 -0.0697
11563W        W27824   3.776  10.884   4.792 -0.2098 -0.1711  0.0433
11564W        W27825   9.139  11.445   6.157 -0.1852  0.0521 -0.2333
11565W        W27826   7.180   0.764  12.456  0.1536  0.0663 -0.0752
11566W        W27827  11.137   3.234  15.319 -0.0596  0.1270 -0.0824
11567W        W27828  10.597   8.698   1.664  0.0171  0.2050  0.0673
11568W        W27829  10.796   6.377  16.573 -0.0127 -0.0093  0.0662
11569W        W27830   7.491   5.849  13.531 -0.2994  0.2065  0.0226
11570W        W27831  13.275  18.170  12.310 -0.3161 -0.2162 -0.2803
11571W        W27832  14.387   3.768   1.278 -0.1885 -0.2342  0.3827
11572W        W27833   3.071   2.702   5.296  0.2266 -0.2261 -0.2715
11573W        W27834  14.065   7.983  10.685 -0.0792 -0.0767  0.3213
11574W        W27835  10.977   0.371  15.374 -0.2173  0.1854 -0.0018
11575W        W27836   9.754  11.486  16.131  0.0595  0.0272 -0.4762
11576W        W27837   6.953   3.264  14.804 -0.0662 -0.2703 -0.1555
11577W        W27838   3.435   7.619  13.317  0.0414  0.1629 -0.1894
11578W        W27839   4.443   1.052   2.940 -0.2300 -0.0268  0.2417
11579W        W27840   9.875  17.144  13.791 -0.0556  0.0642 -0.3464
11580W        W27841   0.003  14.992  12.626  0.1180  0.0862  0.2408
11581W        W27842   6.648  16.528  16.084  0.0291  0.1235 -0.0020
11582W        W27843  10.656  13.634   0.726  0.1514  0.1784 -0.1370
11583W        W27844  17.937  12.063  16.526 -0.0525  0.0183  0.0715
11584W        W27845   5.503   2.690  16.288 -0.1384 -0.5259  0.0077
11585W        W27846   0.034  10.284   3.105  0.1265  0.2086 -0.3513
11586W        W27847   6.298   5.956  12.810  0.0696 -0.3189  0.1701
11587W        W27848  17.515  11.858   1.995  0.0197 -0.0338 -0.0637
11588W        W27849  14.960  10.623   3.853  0.0923 -0.0380  0.0684
11589W        W27850   1.345  15.179  14.924  0.0320  0.0759 -0.1487
11590W        W27851   8.563  13.704   0.326  0.2298 -0.2187 -0.1236
11591W        W27852   0.410  10.116   3.683  0.2068  0.1338  0.0197
11592W        W27853  18.147   5.974   2.346 -0.1433 -0.0010  0.1359
11593W        W27854  10.549   8.287  15.415  0.1544 -0.2772 -0.1542
11594W        W27855  13.782   4.772  13.112 -0.2196 -0.1229 -0.1541
11595W        W27856   3.346  17.550   1.565 -0.1194  0.3571 -0.0278
11596W        W27857  16.597   3.589   4.603 -0.3195 -0.2232  0.1429
11597W        W27858   8.981   8.827   3.705 -0.3527  0.3822  0.3202
11598W        W27859   9.266  16.330  16.038  0.0224  0.0725  0.0939
11599W        W27860  13.344  13.526   0.921 -0.0562  0.1039 -0.1799
11600W        W27861   9.449   4.937   0.675 -0.1400 -0.1019 -0.0419
11601W        W27862   7.733  10.270  15.106 -0.3188  0.0211 -0.2123
11602W        W27863   9.799   9.577   6.262  0.1610  0.0932  0.1689
11603W        W27864   3.611  10.468   4.452  0.1537  0.0053  0.1413
11604W        W27865   0.128   0.062   2.513 -0.1873 -0.4677 -0.1451
11605W        W27866   6.458   9.526   3.408 -0.0215  0.0744 -0.0804
11606W        W27867  16.405   5.694   0.275 -0.1300  0.3987 -0.3180
11607W        W27868   1.088  14.274   5.607 -0.0793  0.0320  0.0485
11608W        W27869   8.446   9.479   2.641 -0.1852  0.0795  0.0205
11609W        W27870   6.632   3.016  13.026  0.0410 -0.1601 -0.1374
11610W        W27871   1.262  13.206  12.906 -0.1871 -0.3458 -0.3292
11611W        W27872  10.221   4.960   3.674 -0.1002 -0.1686 -0.1761
11612W        W27873   9.551  11.970  14.473  0.1303  0.0016 -0.0162
11613W        W27874  16.878  14.523  16.482 -0.3240 -0.0889 -0.0526
11614W        W27875   9.401   8.464  13.004 -0.0501  0.1854 -0.0881
11615W        W27876  13.724  13.798   0.954  0.1020 -0.0150 -0.0669
11616W        W27877   3.815   6.936   4.627  0.1526  0.1982 -0.2012
11617W        W27878   9.178  15.089  13.164 -0.0362  0.2242  0.1261
11618W        W27879  17.683  10.059   0.736 -0.0517 -0.0711 -0.0795
11619W        W27880   0.379   4.791   3.644 -0.2169  0.1799 -0.0972
11620W        W27881   5.408  16.649  12.778 -0.0497 -0.2299 -0.1627
11621W        W27882   0.625  11.988   3.928  0.4437 -0.0711  0.1333
11622W        W27883   7.507  15.653   5.755  0.0157  0.1259  0.3418
11623W        W27884   5.567   7.261  11.870  0.2244  0.0113 -0.1115
11624W        W27885   0.974  12.248  13.433 -0.2914  0.2460  0.1526
11625W        W27886  11.628  12.962   3.724 -0.0387 -0.0994 -0.1206
11626W        W27887  13.336  10.030  14.190  0.0756 -0.3143  0.2237
11627W        W27888  13.399   3.409   0.340 -0.0241 -0.0426 -0.1744
11628W        W27889   0.008   4.368  13.705  0.1508 -0.2064  0.0983
11629W        W27890  13.965  10.162  13.544  0.2973  0.0333  0.0308
11630W        W27891   2.948   8.181  12.055 -0.1007  0.1451 -0.0361
11631W        W27892   8.866  17.726   5.174 -0.2008  0.2711  0.0866
11632W        W27893  10.445  11.622  13.564  0.0354 -0.0270 -0.1681
11633W        W27894   1.884  15.179  12.164 -0.0375  0.0728 -0.0141
11634W        W27895  14.813  17.359  13.600  0.2626 -0.3236  0.2621
11635W        W27896   5.857  10.414   1.112  0.1007 -0.0987  0.3167
11636W        W27897  12.459  14.022  12.622 -0.1160 -0.0152 -0.0616
11637W        W27898  10.599   9.908   0.144  0.1527  0.1626  0.2240
11638W        W27899   5.006   0.776   3.445  0.2524 -0.0977  0.2263
11639W        W27900  10.929  15.270  15.269  0.2872 -0.2043  0.2858
11640W        W27901   1.105  13.068   0.867 -0.3699  0.1348  0.1519
11641W        W27902  16.997   9.440  16.522 -0.1708  0.0357  0.2525
11642W        W27903  16.016   0.946   1.522  0.1601 -0.0925 -0.0477
11643W        W27904   5.495   1.915  16.193 -0.0307  0.1463 -0.0939
11644W        W27905  14.987  14.774  12.082 -0.0461  0.0560 -0.1239
11645W        W27906   3.586  13.085  16.460 -0.2133  0.1637  0.2864
11646W        W27907   3.603   9.502   2.199 -0.0851 -0.0776 -0.0609
11647W        W27908   9.417  11.861   3.058  0.1816 -0.0058 -0.2386
11648W        W27909   2.234   8.894  11.197  0.0920  0.0697  0.0811
11649W        W27910   9.731   5.861  14.356 -0.1172 -0.2175  0.0285
11650W        W27911   6.688  13.791   3.265  0.2126  0.1938  0.0330
11651W        W27912   8.499   9.875   0.573 -0.1621 -0.2175 -0.0801
11652W        W27913   0.575  14.022  11.768 -0.1728  0.0126  0.0360
11653W        W27914  14.901  15.603   3.814  0.1998  0.0731 -0.0510
11654W        W27915   1.703  17.420  16.536 -0.2532 -0.2829  0.5745
11655W        W27916   4.701   4.510  11.844  0.2821  0.3643 -0.1671
11656W        W27917   1.533  10.701  14.434 -0.0664 -0.0838 -0.0585
11657W        W27918   3.159  17.172   4.116 -0.0827  0.2189  0.0732
11658W        W27919  15.143   2.324   4.016  0.2826  0.0661 -0.1066
11659W        W27920  12.146  14.448   4.354 -0.1753  0.1373 -0.0213
11660W        W27921  16.317  10.887   3.239 -0.1151  0.0761 -0.1665
11661W        W27922   1.091  14.157  14.919 -0.0447  0.1252  0.0760
11662W        W27923   6.054  15.295  13.888  0.0109 -0.3386 -0.0294
11663W        W27924   1.970   9.004  11.625 -0.1704  0.0971  0.1133
11664W        W27925  10.549  11.718   5.063 -0.1004 -0.1390 -0.1487
11665W        W27926  16.919   1.187   6.924  0.0342  0.1514  0.0760
11666W        W27927  10.113  10.600  16.264  0.0608  0.0551  0.0675
11667W        W27928  16.287  17.501  14.811 -0.1670  0.2843  0.0589
11668W        W27929  17.920   9.144  13.065  0.0212 -0.0705  0.1147
11669W        W27930   8.255  17.634  13.137 -0.1064 -0.0692  0.0245
11670W        W27931  12.445   8.170  10.985 -0.2578  0.0028 -0.2169
11671W        W27932  13.274   9.878  15.535 -0.2749  0.0157 -0.4177
11672W        W27933  12.126  14.243   0.779  0.2021  0.1700  0.1444
11673W        W27934  11.317  14.386   3.084 -0.0173  0.0891 -0.0347
11674W        W27935   7.685   5.072   3.867 -0.0953 -0.0571  0.0713
11675W        W27936  13.895   4.548  10.400  0.0160 -0.0879  0.0873
11676W        W27937  15.129   6.883   1.784  0.1628  0.1273 -0.1717
11677W        W27938   5.355  17.980  12.630  0.3081 -0.1320 -0.0480
11678W        W27939  16.898  16.719   5.507 -0.1900  0.0868 -0.1762
11679W        W27940  15.165   0.367   2.437 -0.1445  0.0109 -0.0664
11680W        W27941   3.942  15.146  15.543 -0.3478  0.1377  0.1285
11681W        W27942   1.301  11.703  11.975  0.0886 -0.1914 -0.0047
11682W        W27943   9.969   9.421  12.719 -0.1712 -0.1920 -0.0252
11683W        W27944  13.281   1.201   5.387  0.2374  0.0029 -0.0840
11684W        W27945  14.021   6.263  13.321 -0.2758 -0.0615 -0.1189
11685W        W27946  15.782  12.806  14.719 -0.1073  0.3338  0.3082
11686W        W27947   1.534   5.460   2.450  0.0072 -0.4986  0.1123
11687W        W27948   6.766  15.883  13.213  0.0791 -0.1065 -0.0099
11688W        W27949   9.749   4.972   3.455  0.0722 -0.0233 -0.1132
11689W        W27950  14.232   6.446  14.939  0.5053 -0.0702  0.2720
11690W        W27951   6.561  17.148  12.360 -0.3008  0.0593 -0.0582
11691W        W27952  11.654  13.609  15.531  0.0753 -0.4012  0.1496
11692W        W27953  16.962   8.869  13.219  0.0956 -0.1937 -0.0369
11693W        W27954  13.833  11.759  11.824  0.0082  0.0277 -0.0384
11694W        W27955  16.638   7.809   0.603  0.0382 -0.0622 -0.1634
11695W        W27956  13.001   4.388   4.739 -0.3008 -0.1062  0.4788
11696W        W27957  17.758   6.917   5.392 -0.1138  0.3996  0.0417
11697W        W27958  10.856  13.509   4.830 -0.1991  0.0820 -0.1213
11698W        W27959  13.635  17.614  13.153 -0.1877  0.1879 -0.3676
11699W        W27960   7.649  16.614  14.913  0.4782  0.3136 -0.1965
11700W        W27961   3.707  17.182   1.826 -0.1004  0.0247  0.0438
11701W        W27962   6.851  13.251  12.764 -0.2138  0.1102 -0.0172
11702W        W27963  11.200   8.524  12.722 -0.1886 -0.0302  0.1339
11703W        W27964   3.372  17.559   5.840  0.2716  0.1129  0.1344
11704W        W27965  12.401  17.408  10.280  0.4216  0.0294  0.1077
11705W        W27966  14.812   1.153   5.854 -0.2223  0.1471  0.1760
11706W        W27967  12.525  12.522  13.606  0.0396  0.0745  0.0454
11707W        W27968   2.267  14.079   1.897 -0.2916  0.0620 -0.0075
11708W        W27969   0.830   2.388  15.087  0.1556  0.3742 -0.0900
11709W        W27970   4.365  11.046   2.815 -0.1404 -0.1475  0.0730
11710W        W27971   9.336  10.821  11.734  0.0754 -0.0218 -0.3863
11711W        W27972   4.388   9.102  16.443  0.2437  0.0791  0.3478
11712W        W27973   7.326   3.725   3.437  0.1752  0.0015 -0.0332
11713W        W27974   5.723   7.849   5.454 -0.0199  0.0391  0.3192
11714W        W27975   4.868   0.201   3.658 -0.1222  0.2102  0.0060
11715W        W27976  14.802  17.807   1.079  0.0285  0.0244  0.0199
11716W        W27977   0.340  10.597   2.865 -0.3085 -0.3286  0.2032
11717W        W27978  15.452  14.418  13.330  0.3274 -0.1013  0.0099
11718W        W27979  13.061   3.018  12.019 -0.0088  0.3350  0.1203
11719W        W27980   7.795   1.676  12.011  0.1763  0.1493 -0.0694
11720W        W27981  14.693  11.399   2.843  0.0625  0.2436 -0.0852
11721W        W27982   1.366  15.799   5.031  0.2955  0.0394  0.0920
11722W        W27983  14.823   3.065  14.826  0.1497  0.0994 -0.0014
11723W        W27984   6.353   5.832  10.809 -0.1056 -0.4138  0.1862
11724W        W27985   2.221  16.528  12.357 -0.1588 -0.1393 -0.1953
11725W        W27986   9.546  10.490  13.375  0.1588 -0.0607  0.0190
11726W        W27987  17.607  12.861   1.580  0.2556  0.2670  0.2051
11727W        W27988  13.772   9.897   1.308 -0.2765  0.0169 -0.2027
11728W        W27989  14.464  18.005  13.868  0.3670  0.0742 -0.0798
11729W        W27990   1.194  15.658  14.900  0.2379 -0.2722 -0.0552
11730W        W27991   0.531   5.008   2.368  0.0908  0.3713 -0.1282
11731W        W27992  16.079  16.809  14.186 -0.0725 -0.2104  0.3225
11732W        W27993   2.953   7.948  12.660 -0.0489 -0.0108  0.2558
11733W        W27994  14.532  17.502   3.632 -0.1420 -0.2327  0.2734
11734W        W27995  14.687   4.026   2.705  0.1721  0.0845  0.1257
11735W        W27996   0.596   5.686  16.077 -0.3320 -0.3158 -0.3155
11736W        W27997   7.021   9.424   3.229  0.5017 -0.0947 -0.1704
11737W        W27998  17.498  10.946  13.045 -0.2249 -0.1657  0.2942
11738W        W27999   1.964  13.381  12.509 -0.0303 -0.2742 -0.1275
11739W        W28000  18.023   5.889  12.722  0.0866  0.2025 -0.1333
11740W        W28001   9.541   7.703   1.500 -0.2546  0.0876  0.0416
11741W        W28002   9.334  16.877   3.550 -0.2191  0.0799 -0.1356
11742W        W28003   9.441  12.666  12.092  0.0858  0.1301  0.1186
11743W        W28004  11.038   9.549   0.022 -0.1709  0.0588 -0.4678
11744W        W28005   3.812   9.392  14.827 -0.0484  0.2616  0.1152
11745W        W28006   3.797  12.528   0.462 -0.2073  0.1882  0.2394
11746W        W28007  12.107   4.603  14.926 -0.2713 -0.0630 -0.2723
11747W        W28008   3.162  16.048  16.228 -0.4779 -0.3270 -0.5377
11748W        W28009  10.918  16.672  12.111  0.0090  0.0938  0.1707
11749W        W28010   5.169  11.455  12.131  0.0042  0.3455  0.3793
11750W        W28011  16.079   5.714   2.676  0.2355 -0.0127  0.1504
11751W        W28012  16.868  17.801   5.390  0.0549  0.3332  0.0879
11752W        W28013   4.958  10.838  13.957 -0.1312 -0.0756  0.2445
11753W        W28014  17.679   8.020   1.543 -0.1385 -0.0009  0.1355
11754W        W28015  12.183  12.519  16.533 -0.2478  0.0778  0.1093
11755W        W28016   8.522   7.476   2.657 -0.0175  0.0983  0.3410
11756W        W28017   8.632   8.445   0.446 -0.0384  0.0339 -0.0966
11757W        W28018  16.542  17.402  14.430 -0.2837  0.1351 -0.0271
11758W        W28019   1.155  13.189   4.067  0.3241 -0.2241  0.2666
11759W        W28020  17.750   8.219  16.302 -0.0297  0.0304 -0.0090
11760W        W28021   9.571  11.853  14.964 -0.2092  0.0094 -0.1883
11761W        W28022  16.226   4.018  14.072  0.1139 -0.1147  0.2456
11762W        W28023   1.616  10.990  13.372  0.0621 -0.0039 -0.1181
11763W        W28024   4.095   1.857  15.671 -0.1840 -0.2760 -0.0866
11764W        W28025   7.915  10.161   5.837  0.1036 -0.3192  0.1374
11765W        W28026  15.177   0.030  13.649 -0.1507  0.0523 -0.0185
11766W        W28027   3.115   6.158   3.701 -0.3956 -0.2673 -0.0207
11767W        W28028   4.160  10.288  14.424  0.1707  0.0624 -0.3331
11768W        W28029   4.083  11.577   3.046  0.1603  0.0073 -0.1811
11769W        W28030  10.099  12.902  11.584  0.0589 -0.1060  0.0910
11770W        W28031   4.361  14.621   2.708 -0.2387  0.0163 -0.2188
11771W        W28032   4.605   9.206   0.740  0.0244  0.1249 -0.1248
11772W        W28033   2.435  11.369   5.365 -0.2698 -0.1871  0.1806
11773W        W28034   9.785   4.953  13.659  0.0132 -0.0926  0.1077
11774W        W28035   2.260   7.500   4.385 -0.0216 -0.0730 -0.0835
11775W        W28036   1.361   3.718  13.824  0.0396 -0.0422 -0.1339
11776W        W28037  10.230   7.339   0.679  0.0524  0.1913 -0.2866
11777W        W28038  13.419   9.760  14.652 -0.2328  0.0335 -0.1782
11778W        W28039   8.642   3.169   4.225 -0.0897 -0.0355  0.0131
11779W        W28040  14.149   0.398  12.806 -0.1422  0.4154  0.1705
11780W        W28041   5.207  10.399  14.803  0.2314  0.1048 -0.3102
11781W        W28042  17.742   5.092  14.986 -0.0726  0.1724 -0.0006
11782W        W28043  12.194   0.801  13.538 -0.0703 -0.0683 -0.0928
11783W        W28044  16.846   2.359  14.432 -0.0410  0.2132 -0.0329
11784W        W28045  15.755   2.739   2.216 -0.2113 -0.0155  0.1941
11785W        W28046  11.128  10.520  11.832  0.1425 -0.2591  0.0472
11786W        W28047   4.797   9.704   1.634 -0.0007  0.1962  0.0616
11787W        W28048  11.465  10.838  13.604 -0.0030 -0.0884 -0.0648
11788W        W28049  16.463   7.972   0.178  0.4034 -0.1040  0.3052
11789W        W28050   8.293  15.507  12.493 -0.2274  0.1688 -0.0818
11790W        W28051   3.699   1.355   2.689  0.0126 -0.0887 -0.4586
11791W        W28052   0.283   1.116  16.340 -0.0414  0.1771  0.0872
11792W        W28053   7.649   9.899   4.945  0.1337 -0.0692 -0.1288
11793W        W28054   6.489   1.106   3.168  0.0056  0.1010 -0.1747
11794W        W28055  15.521   1.264  15.951  0.3323  0.0697  0.1088
11795W        W28056   4.116  14.766  16.546 -0.2922  0.2463  0.2554
11796W        W28057   4.287  15.811   1.682 -0.1743 -0.1642 -0.1408
11797W        W28058  16.484   2.619  13.981  0.0056 -0.0394 -0.3499
11798W        W28059  15.636  13.289   3.407 -0.1498 -0.0310  0.1059
11799W        W28060  14.340  10.144  12.336  0.1116  0.1655 -0.3621
11800W        W28061   1.023   0.310   3.469  0.0303  0.3058 -0.1060
11801W        W28062  13.359  16.782  14.874  0.0169 -0.1539  0.1474
11802W        W28063  11.409  12.936  11.531 -0.0205  0.1760  0.1200
11803W        W28064  16.739   1.701   5.812  0.0260 -0.2404  0.3416
11804W        W28065  17.702   7.456   1.305 -0.0430 -0.2730  0.1426
11805W        W28066   3.652   8.430   1.921 -0.0929 -0.0810  0.1656
11806W        W28067  16.765   2.301  15.106  0.2617  0.0987  0.2254
11807W        W28068  15.631  13.116   2.609  0.1823  0.0338 -0.1025
11808W        W28069  15.873  17.683  15.811 -0.1401  0.0818  0.3038
11809W        W28070  12.460   5.189   0.482  0.1778  0.0062  0.2535
11810W        W28071   8.312   0.235   5.063  0.0512 -0.0757 -0.2927
11811W        W28072  13.117  17.988  15.669 -0.0794 -0.3285  0.1584
11812W        W28073   2.468   7.224   1.620  0.0729  0.0263  0.2692
11813W        W28074  12.933   7.576  11.284 -0.0029 -0.0249  0.0172
11814W        W28075   1.709   5.563   4.919 -0.0278 -0.1261  0.0652
11815W        W28076  14.741  15.073   2.307 -0.1027 -0.0213 -0.0019
11816W        W28077  11.984  10.782  14.646 -0.2093 -0.1180  0.0295
11817W        W28078  10.400   0.775   1.884  0.0481 -0.1821 -0.3118
11818W        W28079  13.841  12.574  16.086  0.3193 -0.0002  0.0604
11819W        W28080  12.329   3.949  11.748 -0.1980 -0.0907 -0.2092
11820W        W28081  14.738  15.875  16.534  0.2495 -0.0650  0.0773
11821W        W28082   2.385   1.572   4.847 -0.2740 -0.2126  0.1182
11822W        W28083   1.647  11.376  15.906 -0.0736  0.2520  0.1638
11823W        W28084   9.346  15.131  13.740 -0.0905 -0.1136  0.0102
11824W        W28085  12.454   0.818   0.517 -0.1788  0.1209  0.1810
11825W        W28086   1.076   5.210   2.506  0.1706  0.0996 -0.0392
11826W        W28087   3.008   6.728   4.945 -0.0420  0.0478  0.1285
11827W        W28088  13.086  13.116   1.210 -0.1400  0.0257  0.1456
11828W        W28089  11.525   2.986  14.463 -0.1388 -0.2873 -0.1481
11829W        W28090   6.369   7.042  12.239 -0.0580  0.1101  0.3843
11830W        W28091  15.878   7.074  13.523 -0.3210  0.0627 -0.1096
11831W        W28092  10.708  17.358   0.129 -0.2296 -0.2153 -0.4157
11832W        W28093   8.418  16.140   5.944 -0.2205  0.1710 -0.1864
11833W        W28094   5.893   8.462   0.816  0.0979 -0.3624  0.0787
11834W        W28095  11.728  12.610   4.978  0.1397  0.1652 -0.1747
11835W        W28096   7.418  16.108   6.062 -0.3303 -0.0412 -0.0696
11836W        W28097  11.079  12.817  15.144 -0.1217 -0.1866  0.0289
11837W        W28098   1.036  10.676   3.856 -0.3111 -0.0796  0.4127
11838W        W28099   7.605  10.304   2.156 -0.2487  0.3134 -0.0066
11839W        W28100  16.428  10.866  11.177 -0.2270  0.3026 -0.1279
11840W        W28101  16.725  16.207  16.217  0.3798 -0.1000 -0.0726
11841W        W28102   4.045  16.224  13.946 -0.1304 -0.0417 -0.1185
11842W        W28103  16.723  17.117  14.771 -0.0199 -0.0943 -0.0690
11843W        W28104   6.160   9.372   4.738  0.0480 -0.1536 -0.2428
11844W        W28105   7.929   1.933  14.799  0.1583  0.0623 -0.0268
11845W        W28106   5.887   0.514  14.772 -0.0455  0.1044 -0.1631
11846W        W28107  13.878  17.477  12.035  0.0341  0.0011 -0.0913
11847W        W28108  17.092   3.466   4.613  0.0611  0.0048  0.2175
11848W        W28109  12.277   4.260  11.268  0.0012 -0.0596  0.2326
11849W        W28110  12.119   4.525   1.586  0.1863 -0.1052 -0.0884
11850W        W28111  14.696   0.375  14.450 -0.1429  0.3276  0.2338
11851W        W28112   0.937  13.561   4.950 -0.1768 -0.1518  0.2577
11852W        W28113  11.512   1.944  12.833 -0.2935 -0.0989 -0.2767
11853W        W28114   7.856  13.524  13.968 -0.1745 -0.3665 -0.1239
11854W        W28115   9.715   1.047  12.559 -0.0364  0.3886  0.1190
11855W        W28116   3.843  17.413   0.836  0.0549  0.2812  0.3084
11856W        W28117   6.078   8.418   2.782 -0.1287  0.1228 -0.0580
11857W        W28118   7.448   6.826  11.277  0.2719  0.0325 -0.1369
11858W        W28119   9.132   1.643  11.402  0.0684  0.4743  0.2881
11859W        W28120  13.190   5.135   2.859  0.0271  0.2533 -0.1162
11860W        W28121   4.557  13.318  15.737 -0.2446  0.1043 -0.1377
11861W        W28122  15.368   0.700  13.807  0.2077 -0.2533 -0.1009
11862W        W28123   9.641   7.163  16.483 -0.0482 -0.3036  0.1364
11863W        W28124  10.751   9.863  12.827 -0.2518 -0.0415 -0.1452
11864W        W28125  11.997   4.968   6.180 -0.0006  0.2530 -0.1310
11865W        W28126  11.133  14.676  12.633 -0.0894 -0.1024  0.2378
11866W        W28127  11.810  15.924   2.869  0.4028  0.4557  0.1224
11867W        W28128   0.276  13.915   2.615 -0.1910 -0.1034 -0.1225
11868W        W28129  16.314   5.083   3.337  0.2200  0.3268 -0.1176
11869W        W28130   8.940   9.639  12.817  0.2915 -0.1281  0.1569
11870W        W28131   1.756   5.005   1.659  0.0113  0.2446  0.2471
11871W        W28132  12.792   2.659  11.530  0.1013 -0.3146 -0.1228
11872W        W28133  17.545  14.386  16.525 -0.5834 -0.0924  0.0257
11873W        W28134  13.563  14.890   4.355 -0.1195 -0.0328  0.1712
11874W        W28135  11.171   3.888  12.462 -0.1166  0.2001  0.2880
11875W        W28136  13.358   1.177  12.584 -0.2261 -0.2396 -0.0167
11876W        W28137  13.587  10.618   3.735  0.1287 -0.0025 -0.1284
11877W        W28138   9.926   8.696  16.487  0.0325  0.2759  0.2837
11878W        W28139   1.115  13.833   0.601 -0.0279 -0.3167 -0.1127
11879W        W28140   4.995  12.820   2.634 -0.0455  0.1305  0.1385
11880W        W28141  13.577  13.729   5.389  0.0339  0.0804 -0.0581
11881W        W28142  17.297   9.797   5.403 -0.0797  0.0259  0.1040
11882W        W28143  16.530   8.411  14.399  0.0139  0.0245 -0.3472
11883W        W28144   4.655  15.029   2.596  0.2067  0.0577  0.0578
11884W        W28145  13.103   0.606   0.321 -0.1760 -0.0406 -0.0202
11885W        W28146  10.270  14.155   1.504 -0.0573  0.1636  0.0316
11886W        W28147  10.710   7.588   2.487  0.2045  0.0027 -0.0270
11887W        W28148   3.048  10.476   4.212 -0.0084  0.3557 -0.3616
11888W        W28149   4.930  15.508   1.900 -0.1264  0.3401 -0.0000
11889W        W28150   3.407  11.900   3.072 -0.1062  0.1464 -0.0778
11890W        W28151  14.018   9.393  15.119 -0.0857 -0.2280 -0.0666
11891W        W28152   0.434  17.049  14.285 -0.1175  0.0248  0.0113
11892W        W28153   4.816   5.496   1.125  0.4117  0.1117 -0.0502
11893W        W28154   2.368   4.379   5.592 -0.0830  0.1930 -0.2693
11894W        W28155  17.631   3.578  14.596 -0.1142  0.2201  0.2620
11895W        W28156  18.038   6.599  10.825  0.1989  0.0460  0.0804
11896W        W28157  13.796  15.878  16.448 -0.1153  0.3566 -0.1690
11897W        W28158  13.387  15.657  12.803 -0.1399 -0.2452 -0.1616
11898W        W28159  18.133   5.860   4.094  0.0154 -0.2888  0.0749
11899W        W28160   7.319  14.675  15.546  0.0853  0.3148 -0.1006
11900W        W28161  11.929   2.017   4.204  0.0651  0.0677 -0.1509
11901W        W28162  14.003  16.796   3.377 -0.0675 -0.3333 -0.0848
11902W        W28163   9.584  15.913   3.570  0.2506 -0.3027 -0.1755
11903W        W28164  16.393  16.601  15.169  0.0092  0.0407 -0.2670
11904W        W28165  18.151  10.229   3.832 -0.3366  0.1442  0.1372
11905W        W28166  10.394   6.224   3.852 -0.0284  0.3032  0.3754
11906W        W28167   0.807   8.398   5.720 -0.1732 -0.0468  0.1043
11907W        W28168  13.340  11.566   1.015 -0.3045 -0.1048  0.0830
11908W        W28169  16.309  10.626  16.271  0.0901 -0.2376 -0.0846
11909W        W28170   1.189  14.629  15.717  0.0045 -0.0700  0.0181
11910W        W28171   8.040  12.637   2.943 -0.0576  0.3364  0.0756
11911W        W28172   1.347   5.440   4.493 -0.0694  0.1916  0.0168
11912W        W28173  16.327   3.202   2.951  0.3600 -0.1925 -0.3380
11913W        W28174   7.970   7.529   4.006  0.1255  0.2010 -0.0021
11914W        W28175   7.235   9.063   1.279 -0.0621  0.3288  0.2672
11915W        W28176   7.508   6.114  16.092 -0.1283  0.3404 -0.0018
11916W        W28177   8.579   0.209  11.845  0.0475 -0.2316 -0.0715
11917W        W28178  13.570   2.954  15.186 -0.1280 -0.0918  0.2413
11918W        W28179   7.635  11.948  12.502  0.0520  0.3359  0.5100
11919W        W28180   8.998  14.286  15.381  0.0538 -0.1231 -0.1193
11920W        W28181   0.076   5.710  15.953  0.0866  0.1133  0.1811
11921W        W28182  12.475   0.884   4.005  0.0251  0.1855 -0.0774
11922W        W28183  11.338   5.489   3.978  0.1144 -0.0024 -0.2914
11923W        W28184  14.764  10.663  11.921  0.2595 -0.1923 -0.1704
11924W        W28185   2.074   9.608  16.194  0.2218 -0.0406 -0.2051
11925W        W28186   9.884   7.629   2.939  0.0683 -0.2232 -0.0420
11926W        W28187   7.396   7.430  13.297  0.4678 -0.2404  0.0723
11927W        W28188  12.908   8.770  15.181  0.2038  0.1884  0.2595
11928W        W28189   2.710  10.873  11.463  0.1711 -0.1226 -0.0746
11929W        W28190   6.154   1.369   2.724  0.1112  0.0368 -0.1985
11930W        W28191   2.122   3.121   5.503  0.0821  0.0110 -0.2672
11931W        W28192  13.913   3.961   1.721  0.1707  0.3759  0.0938
11932W        W28193  10.504   2.690  12.797 -0.0881  0.2384  0.0000
11933W        W28194   9.162   9.550   1.849  0.4251 -0.2783  0.1282
11934W        W28195   4.952   1.452  16.618 -0.2884 -0.0480  0.0246
11935W        W28196   1.601  13.229  11.499 -0.1393  0.1896 -0.1022
11936W        W28197  14.641   7.125  14.502 -0.0874  0.1849 -0.2284
11937W        W28198  17.197   1.473  16.549  0.0175  0.0626  0.0953
11938W        W28199   4.230  16.716   5.785 -0.0517  0.4005  0.3944
11939W        W28200   5.890   4.410   0.872 -0.0751  0.0744 -0.1570
11940W        W28201   3.009   3.400  12.041  0.3505 -0.0696 -0.2085
11941W        W28202  11.558  12.872  11.053  0.0296 -0.7449  0.0116
11942W        W28203   7.604   0.293   6.478 -0.1243  0.0928 -0.1405
11943W        W28204  15.634  13.681  15.808  0.1749 -0.0316 -0.0043
11944W        W28205  14.248   6.542  13.751 -0.0892 -0.0616 -0.1740
11945W        W28206  13.757   7.111   1.460 -0.1417 -0.0048  0.3088
11946W        W28207   0.857  10.046   0.037 -0.1721  0.2181 -0.1205
11947W        W28208   9.774  15.062   5.153 -0.1532 -0.0335 -0.0693
11948W        W28209   7.482   6.737  12.720 -0.0242 -0.2839 -0.1159
11949W        W28210   2.333  12.678  13.183 -0.1572  0.2131 -0.1721
11950W        W28211  12.286   3.301   4.816 -0.2451  0.0607  0.0546
11951W        W28212   6.058   0.926   2.404 -0.4153 -0.1527  0.2286
11952W        W28213  16.051  13.103   4.429 -0.0724  0.0320 -0.4693
11953W        W28214  14.412   3.787  14.631 -0.2658 -0.0834 -0.1400
11954W        W28215  11.104  13.071  13.554 -0.0427  0.0896  0.0226
11955W        W28216   5.359   3.675  14.923 -0.2725 -0.2001 -0.0130
11956W        W28217   0.122  17.132   5.383 -0.1799  0.0344 -0.2364
11957W        W28218   1.891  15.754   2.241  0.0819  0.1457 -0.3025
11958W        W28219  11.487  10.523   2.605 -0.1614  0.0653  0.3860
11959W        W28220  17.500  17.513   2.495  0.1570 -0.0716 -0.1649
11960W        W28221  17.407   9.029  13.478  0.0475 -0.0230 -0.0917
11961W        W28222   7.599  13.591  16.443 -0.0264  0.1865 -0.0049
11962W        W28223   7.828  16.929   3.602  0.1595  0.5567 -0.0621
11963W        W28224  13.285   2.642  14.463 -0.1608 -0.2217 -0.1540
11964W        W28225  16.155  10.253  16.635 -0.1819  0.0076 -0.2759
11965W        W28226  17.598  17.645  11.614  0.1028  0.1874  0.2262
11966W        W28227  13.044  14.380  13.461  0.3686 -0.0161 -0.1886
11967W        W28228  17.155   7.019   2.715  0.0771 -0.0352 -0.1984
11968W        W28229   4.225   9.857  14.149  0.0895  0.0210  0.2742
11969W        W28230  13.509  17.659   3.512 -0.0088 -0.0515  0.2402
11970W        W28231   1.415  17.321  13.999  0.1827 -0.0444 -0.3147
11971W        W28232  15.073   5.691  15.716 -0.0057  0.1831 -0.1016
11972W        W28233   6.947  16.585  16.547 -0.1122  0.0454  0.2831
11973W        W28234   9.301   6.688   4.604 -0.2748 -0.0456  0.2232
11974W        W28235  11.011   2.234   2.766 -0.0091 -0.2295  0.1784
11975W        W28236   2.746  16.860   3.110  0.2265  0.0975  0.2595
11976W        W28237   9.140   4.165  12.922  0.1830 -0.0880 -0.0660
11977W        W28238   1.682   2.664   0.164  0.0259 -0.2660  0.0525
11978W        W28239   7.118  16.485   4.081  0.1228  0.0676 -0.0058
11979W        W28240   8.046   1.910   0.796  0.0471  0.2267 -0.0247
11980W        W28241  10.015  16.769  13.489 -0.2041  0.1279  0.0140
11981W        W28242   5.997  13.348  13.117  0.1120  0.0748  0.1001
11982W        W28243  10.632   1.934   0.199 -0.0779 -0.1304  0.0520
11983W        W28244  10.522   5.970  12.721 -0.0179 -0.1901 -0.1972
11984W        W28245  17.857   0.016   3.890  0.0003 -0.2044 -0.1649
11985W        W28246  17.275  15.031  11.521  0.0829 -0.0016 -0.1089
11986W        W28247  13.887  11.751   1.230  0.2471 -0.3381 -0.2168
11987W        W28248   5.430   8.812  12.096  0.1828  0.0249  0.0665
11988W        W28249  17.263  16.754  13.485  0.1148  0.0986 -0.1818
11989W        W28250   4.051   9.117  12.471  0.0329 -0.1484 -0.0055
11990W        W28251  15.736  15.464  14.555 -0.0193 -0.0735  0.0454
11991W        W28252   0.938  15.585   6.327  0.1455  0.4292 -0.0405
11992W        W28253   4.406   1.998   3.911  0.3463 -0.2473  0.0059
11993W        W28254   2.459   6.599   0.502  0.0768  0.1831  0.0707
11994W        W28255  16.154  17.779  11.880  0.1156 -0.1982  0.0216
11995W        W28256  13.215  12.339   2.840 -0.1398 -0.6115 -0.1540
11996W        W28257   7.007   5.070  14.282 -0.1447  0.0920 -0.0806
11997W        W28258   2.691   6.786  15.776 -0.1712 -0.3426  0.2737
11998W        W28259   5.157   9.272   2.456  0.1334  0.1020 -0.1368
11999W        W28260   0.302   4.075  14.633 -0.0908  0.0370 -0.3409
12000W        W28261   3.749   8.604   5.438 -0.2228 -0.0017  0.2628
12001W        W28262  15.690   9.104  12.897  0.0229 -0.0560 -0.1370
12002W        W28263   9.045  12.008  14.378 -0.0897  0.1344 -0.1236
12003W        W28264  12.641   1.949   0.631  0.1591 -0.1285 -0.0008
12004W        W28265   5.529  13.574   2.472 -0.3003  0.2376  0.2968
12005W        W28266  15.640  15.680   3.290 -0.0350  0.0652  0.1141
12006W        W28267  17.589  10.616  13.447 -0.0691 -0.0480 -0.2127
12007W        W28268   9.157   5.179  12.271  0.0482  0.3493 -0.1392
12008W        W28269   9.816  13.620   5.706  0.0728  0.1433 -0.1620
12009W        W28270   1.894  17.108   4.126  0.2312  0.1306  0.0130
12010W        W28271   3.870  11.966   4.836  0.0348 -0.0956  0.0465
12011W        W28272   4.766  12.737   1.339  0.1292  0.3085  0.2863
12012W        W28273   0.745   4.886   3.954 -0.2354 -0.2365 -0.2933
12013W        W28274  13.488   0.958  13.804  0.4842  0.3332  0.0674
12014W        W28275   1.484  17.493   0.897  0.1030 -0.1971 -0.1472
12015W        W28276  14.209   4.105  10.720  0.0460 -0.0258  0.0137
12016W        W28277   8.725   5.838   2.139 -0.1376  0.2749 -0.3526
12017W        W28278  17.767  14.882  12.325 -0.0405  0.1187 -0.4134
12018W        W28279  15.672   7.089   4.234 -0.0093  0.0111 -0.0808
12019W        W28280   7.147  10.765   5.139  0.1514  0.2056 -0.0933
12020W        W28281   7.563   8.933   5.260 -0.0881 -0.3593 -0.0803
12021W        W28282  15.660  10.473  14.934 -0.2383  0.3687 -0.1207
12022W        W28283   3.314  17.506   4.795 -0.3812 -0.0481 -0.0564
12023W        W28284  17.654   2.413   0.638 -0.2884 -0.2584 -0.4430
12024W        W28285  16.290   3.529   2.429 -0.0096 -0.0676  0.1162
12025W        W28286  17.819   0.011  14.794 -0.1170 -0.2640  0.0830
12026W        W28287   6.836   9.329  12.153  0.4417 -0.2796  0.0366
12027W        W28288  14.726   2.115   3.322  0.0126 -0.2530 -0.1879
12028W        W28289  11.257  10.051  12.798 -0.1285  0.0243  0.0523
12029W        W28290   1.914  14.007   2.378  0.1004 -0.2858  0.1515
12030W        W28291   1.452   6.091   5.502 -0.0372  0.0868  0.1718
12031W        W28292   7.052   9.748   3.781 -0.0305 -0.1935  0.2375
12032W        W28293  11.476   6.535   1.018 -0.2354 -0.0769 -0.0038
12033W        W28294   2.930  13.273   2.772 -0.0720  0.0378 -0.1182
12034W        W28295   5.820  17.519   4.808  0.1115 -0.2361  0.1544
12035W        W28296   5.226   5.704   4.455  0.1062 -0.0479 -0.3391
12036W        W28297   0.053   2.495  12.274  0.4441 -0.1448  0.0436
12037W        W28298   1.538   6.265   2.037  0.0449  0.1420 -0.0221
12038W        W28299   9.250  15.717  11.303  0.0727  0.1551  0.1376
12039W        W28300   9.493   6.995   5.454  0.3503  0.2452  0.2606
12040W        W28301   4.631  12.482   5.230  0.1582  0.2861  0.1209
12041W        W28302   4.268   5.230  13.565  0.4421  0.0076 -0.2869
12042W        W28303  10.033   9.139   0.133  0.0673  0.0020 -0.1789
12043W        W28304   8.640  16.811   0.272  0.3287 -0.2696 -0.2966
12044W        W28305   3.243   1.674   1.848  0.2545 -0.1401  0.2361
12045W        W28306   4.307   4.397  16.304  0.0733  0.0589 -0.0332
12046W        W28307   4.373   5.538   1.452  0.0570 -0.1436  0.0736
12047W        W28308  14.608   7.864  13.641  0.0707 -0.0453  0.1342
12048W        W28309   3.859   6.449  12.023  0.0923  0.2577  0.0041
12049W        W28310   9.209   5.131  16.484 -0.0538  0.0666 -0.2086
12050W        W28311   7.829  18.011   2.329  0.0539  0.1407 -0.1782
12051W        W28312   6.526   8.456   5.891  0.2691  0.4155  0.2031
12052W        W28313  17.514   5.980  12.694 -0.1864  0.1682  0.0425
12053W        W28314   7.761  16.589  12.551  0.0968  0.0826 -0.1911
12054W        W28315   6.902   5.013   5.089  0.0180 -0.0450 -0.1056
12055W        W28316   2.069   2.827   3.956 -0.2091  0.2770  0.0321
12056W        W28317   0.130   7.959  13.786  0.0434  0.1516  0.1464
12057W        W28318  17.490   2.269  13.346  0.0459 -0.2658  0.1457
12058W        W28319   8.510   3.666  12.413  0.0522 -0.0028  0.0215
12059W        W28320   3.214   1.688  14.533  0.2246 -0.2810 -0.1083
12060W        W28321   4.065   0.547   5.308  0.1586 -0.2461  0.0137
12061W        W28322   2.319   2.935   3.077  0.0619 -0.3771  0.1071
12062W        W28323   2.808   5.401  14.587  0.0118  0.0261 -0.0416
12063W        W28324   6.912  10.250  11.123 -0.0954  0.1405 -0.1276
12064W        W28325  12.547  10.602  12.661  0.3597  0.0274  0.1417
12065W        W28326   5.195  16.841   0.270  0.0508 -0.0200 -0.1449
12066W        W28327   9.416   0.624  13.691  0.1355  0.1936  0.1206
12067W        W28328   2.951  11.273   5.703 -0.2110 -0.1158 -0.1313
12068W        W28329   0.779  13.944   5.221 -0.0337 -0.1382  0.2096
12069W        W28330   2.253   2.955  12.430  0.2147 -0.3484 -0.1604
12070W        W28331  13.280   1.413  12.153  0.0227 -0.1037 -0.1765
12071W        W28332   6.321  16.622   2.891 -0.0418  0.1195  0.2459
12072W        W28333   4.944  17.374  15.928 -0.0276 -0.1237  0.0085
12073W        W28334  13.072   4.098  12.937 -0.1150 -0.4418  0.0113
12074W        W28335   7.077   8.456  16.200 -0.0241  0.0288 -0.2466
12075W        W28336   6.337  16.141   5.124  0.1256 -0.2563  0.1511
12076W        W28337   1.656   0.709   0.921 -0.1259  0.2650 -0.0146
12077W        W28338   8.598  10.297   0.219 -0.0664 -0.2883  0.0897
12078W        W28339   3.497   2.841  16.557 -0.1994  0.2942  0.4257
12079W        W28340  17.262   9.762   2.806  0.1300  0.0234  0.0653
12080W        W28341   6.643  16.724   4.071  0.0702  0.0078  0.1829
12081W        W28342   0.966  17.920   2.278 -0.0047 -0.3852  0.1999
12082W        W28343  10.382   2.541   3.442  0.0737  0.0974  0.3286
12083W        W28344  14.662   4.822   0.199 -0.0564 -0.0515 -0.0745
12084W        W28345   9.566   9.500  13.501  0.1944  0.0682  0.0655
12085W        W28346   4.052  10.968   0.599  0.2342  0.1576 -0.1348
12086W        W28347   0.434   2.040   0.692  0.4152  0.0396 -0.2797
12087W        W28348   1.131   3.154   3.143  0.2178  0.3180  0.1710
12088W        W28349   9.332  12.773  16.568 -0.2715  0.0398  0.0716
12089W        W28350   9.301   5.923   3.279 -0.3335 -0.0472  0.1020
12090W        W28351   5.689   6.892  15.406  0.1275 -0.2081  0.0075
12091W        W28352  17.666   9.515   1.610 -0.0179 -0.0990  0.1367
12092W        W28353  13.971   9.631  13.475 -0.2653 -0.0621  0.1331
12093W        W28354  16.003   7.695  15.271  0.1821 -0.1967 -0.4314
12094W        W28355   8.999   0.171   6.191  0.0565  0.1117  0.2354
12095W        W28356  15.722  15.998   5.697  0.1222 -0.0813 -0.2225
12096W        W28357  14.522   8.422  11.641  0.2362 -0.0160  0.2914
12097W        W28358  10.213  10.247   4.243  0.0363 -0.1459  0.0518
12098W        W28359  16.558   0.718   6.241 -0.1180 -0.1607  0.0121
12099W        W28360  16.173   2.143  11.838 -0.2873 -0.4683 -0.0888
12100W        W28361  11.642  14.212  15.234 -0.1982 -0.3643 -0.1760
12101W        W28362  18.083  13.620   1.490  0.0662  0.0390  0.1328
12102W        W28363   9.002   4.096   3.279 -0.1140  0.0207  0.1326
12103W        W28364   3.779   8.498   3.551 -0.2128 -0.3762  0.0097
12104W        W28365   9.145  17.855  16.537 -0.0201  0.0164 -0.0138
12105W        W28366   5.541   1.387  14.088 -0.4119  0.0344 -0.0577
12106W        W28367   1.986  15.607  11.911  0.2828 -0.1500  0.1063
12107W        W28368   1.861   9.972  13.502 -0.0268  0.0299  0.3842
12108W        W28369  13.434  17.000  14.417 -0.0151  0.0772 -0.0482
12109W        W28370  13.042   0.557  11.703 -0.1479 -0.2680 -0.3287
12110W        W28371   1.716   8.537  10.757  0.0422 -0.0372  0.2563
12111W        W28372   7.330   8.679   0.686  0.0436 -0.2244  0.0248
12112W        W28373   4.116   3.937   3.688  0.0631 -0.2230  0.0940
12113W        W28374   3.387  17.185   0.985  0.1723  0.1064  0.1058
12114W        W28375   7.489  13.125   1.129  0.1067  0.0421 -0.0933
12115W        W28376  13.475   2.952  10.507  0.2796  0.0359 -0.2267
12116W        W28377   6.514  10.737   2.257  0.2146  0.1201 -0.3237
12117W        W28378  12.388  13.126  10.773  0.2448  0.1918  0.0194
12118W        W28379  10.368   0.049  13.230 -0.3473 -0.0443  0.1520
12119W        W28380  11.005   8.377  15.293  0.1194  0.0832  0.0968
12120W        W28381   2.266   3.685  16.068  0.1659  0.2345 -0.1334
12121W        W28382  16.398   0.133   0.405  0.0720 -0.1725  0.4264
12122W        W28383  16.938   8.949  12.284 -0.3192 -0.2775  0.0742
12123W        W28384   0.116   1.467   0.702 -0.1352  0.2937 -0.3940
12124W        W28385  12.849   4.075  11.983  0.0403  0.1304  0.3999
12125W        W28386  13.647   4.045  16.008  0.0077  0.0490  0.4196
12126W        W28387  14.573  15.092   5.305  0.0593  0.0994  0.1322
12127W        W28388   7.215   6.756   1.970 -0.2076 -0.0934  0.1632
12128W        W28389  16.518   6.379  11.501 -0.0122  0.0435  0.2665
12129W        W28390   8.903   0.922   4.653 -0.1573 -0.1941 -0.4574
12130W        W28391   9.631   1.776   0.133 -0.0076  0.3899 -0.0824
12131W        W28392   3.677   8.799   3.001 -0.0816 -0.0260  0.0647
12132W        W28393   9.473  16.805  13.319 -0.0865 -0.1760  0.2356
12133W        W28394  14.427   9.295   4.235 -0.1965 -0.1111  0.3880
12134W        W28395   1.692   5.800   6.721  0.2262  0.2987  0.0323
12135W        W28396  12.219   1.902   0.970  0.1223 -0.0492 -0.2140
12136W        W28397   0.128   0.387   2.103 -0.4860  0.0852 -0.0412
12137W        W28398   9.413  11.118  14.565 -0.2037  0.0533 -0.2990
12138W        W28399   7.947   3.371   2.831  0.0311 -0.1391 -0.1305
12139W        W28400   7.282   4.057   0.739 -0.0712  0.3094 -0.0241
12140W        W28401   8.893  15.247   4.115 -0.2073 -0.1300 -0.0505
12141W        W28402   5.210   3.912   2.263  0.4072 -0.0989 -0.1201
12142W        W28403  11.225   9.557   6.150 -0.1154  0.1855  0.1054
12143W        W28404  13.517  13.408   0.377 -0.0125 -0.0476  0.0314
12144W        W28405  17.445   9.679  12.420 -0.3807 -0.0402 -0.2792
12145W        W28406  10.850  12.356   1.383 -0.3759 -0.1138  0.0243
12146W        W28407   4.173  18.066  12.713 -0.1922  0.0142  0.0049
12147W        W28408   9.678   3.879   4.428 -0.0864 -0.0054 -0.0943
12148W        W28409   9.300  14.065   1.708 -0.1873 -0.2440  0.0199
12149W        W28410  13.374  16.075   5.501 -0.4401  0.2450  0.0099
12150W        W28411  18.062   5.291   3.956  0.3293  0.1140 -0.1497
12151W        W28412  17.850  17.332   5.174 -0.0880 -0.1267  0.0711
12152W        W28413   1.086  12.333   1.534  0.3187 -0.1749 -0.0674
12153W        W28414  11.006   5.694  15.692 -0.0539  0.3198  0.2499
12154W        W28415   5.464   6.446   5.404 -0.1134 -0.2370  0.1153
12155W        W28416   6.098   4.648  15.149 -0.1369  0.1551  0.1757
12156W        W28417   9.252  11.506  15.086 -0.0210  0.0252 -0.2992
12157W        W28418  16.185   7.415  11.561  0.1860 -0.1625  0.2777
12158W        W28419   3.124  15.185  16.510 -0.2122 -0.1135  0.0539
12159W        W28420  13.455   4.698   2.282  0.0493 -0.0595  0.1892
12160W        W28421  12.771  14.100   0.708 -0.2543  0.0954 -0.4168
12161W        W28422  15.377   1.395  12.030  0.0341 -0.2048 -0.0077
12162W        W28423  17.631   0.843   2.397  0.1065  0.3226 -0.1710
12163W        W28424  17.199   1.420  12.266  0.2780 -0.1328  0.0561
12164W        W28425   3.821   0.009  13.954  0.3911  0.0049  0.3946
12165W        W28426  16.482  10.221   2.153  0.0875 -0.0197 -0.1079
12166W        W28427   2.687  15.701  13.983 -0.0492  0.0596 -0.3668
12167W        W28428  18.116   7.141   1.470  0.3153  0.0040  0.1656
12168W        W28429   8.165   5.186  11.964  0.3411 -0.2204 -0.1537
12169W        W28430   5.286   6.103  12.617 -0.3115 -0.0141 -0.0122
12170W        W28431   9.896   3.591   0.293 -0.3262  0.1658 -0.2955
12171W        W28432   2.512   4.637  13.161  0.0188 -0.2250 -0.2107
12172W        W28433  11.623   0.981   1.575  0.4315  0.0644  0.0156
12173W        W28434   1.872  11.122   0.588 -0.2883 -0.0111 -0.1912
12174W        W28435   5.949  11.782   3.998 -0.0884 -0.0238 -0.0782
12175W        W28436   9.540  17.650  15.903  0.3817 -0.1373  0.5737
12176W        W28437   5.165  17.087   4.191  0.2310 -0.2059  0.2808
12177W        W28438  14.211  11.626   2.979  0.0372  0.2118  0.1376
12178W        W28439  11.965  17.068   0.786  0.2862  0.0019  0.0683
12179W        W28440  15.318  11.851  13.019  0.2283  0.1228  0.1048
12180W        W28441  12.027   7.434  11.306 -0.1176  0.0441  0.1056
12181W        W28442  11.898   3.977  10.895  0.3581  0.0700 -0.0188
12182W        W28443  10.546   9.586   2.685 -0.0509  0.0212  0.1388
12183W        W28444   2.597  12.002   1.196  0.0897 -0.2948  0.3598
12184W        W28445   8.959   3.655   0.200  0.1473 -0.0658 -0.0840
12185W        W28446   8.707  15.792   4.508 -0.0839  0.1402  0.1247
12186W        W28447   6.223   6.010   1.307 -0.2477 -0.0263  0.1145
12187W        W28448  17.011   6.134  14.515 -0.2556  0.0569  0.1658
12188W        W28449   7.754   9.603   5.767 -0.2623  0.1243  0.0737
12189W        W28450  15.780   8.309  13.637  0.0724  0.1038  0.2004
12190W        W28451   2.214   6.521  13.286 -0.0664  0.1371  0.0502
12191W        W28452   4.008  13.823   1.566 -0.0413  0.1023  0.2406
12192W        W28453   4.172  10.153  11.730 -0.1134 -0.0937  0.1120
12193W        W28454   2.707   1.127  14.981 -0.0001 -0.0770  0.2600
12194W        W28455   4.406  14.828  12.966 -0.2869 -0.1967 -0.0161
12195W        W28456  12.727   5.713  11.239 -0.3031 -0.0954  0.2443
12196W        W28457   5.196   2.684   2.764 -0.1248 -0.2934 -0.3068
12197W        W28458   6.120   2.331   6.294  0.4512  0.1371 -0.1296
12198W        W28459   3.653   8.414   4.982  0.0079  0.1369  0.0061
12199W        W28460   3.646   0.140   0.437 -0.0429 -0.2910 -0.0199
12200W        W28461  10.054  10.872   0.541 -0.4383  0.0095  0.2323
12201W        W28462   4.532   6.541   5.995  0.1082 -0.2229 -0.0016
12202W        W28463  15.545   3.551   2.890  0.3265  0.2709 -0.2502
12203W        W28464   0.977  10.847  11.502 -0.3585 -0.1620  0.0050
12204W        W28465   5.350  12.225   2.645  0.1329 -0.1586  0.2782
12205W        W28466   9.546   7.180   2.374  0.2006  0.0338 -0.0854
12206W        W28467   9.960   0.177  12.713  0.1516 -0.0141 -0.0284
12207W        W28468   4.517   8.002  13.715  0.0273 -0.1577 -0.1941
12208W        W28469   0.537  10.869   4.557 -0.0247 -0.0353 -0.2588
12209W        W28470   7.397   0.272   0.954 -0.0823 -0.2213  0.0320
12210W        W28471   3.724  14.631  16.254 -0.1620 -0.2480 -0.2395
12211W        W28472  14.491  15.902  15.749 -0.0196  0.3931  0.3897
12212W        W28473   8.823  10.758  11.811  0.2235 -0.1169 -0.1008
12213W        W28474   4.645  10.867  12.151  0.1180 -0.0315 -0.0046
12214W        W28475   1.203   6.435  14.612 -0.1262  0.0066  0.1863
12215W        W28476   3.940   3.038   4.729  0.1958  0.0575 -0.3394
12216W        W28477   6.746  15.267  12.193 -0.0128  0.3231 -0.0104
12217W        W28478   6.358   4.669  11.606 -0.1194 -0.1686 -0.1989
12218W        W28479  15.943  15.301   5.604  0.0604  0.2683  0.3209
12219W        W28480  11.585   0.603  15.343 -0.1632  0.0532 -0.1273
12220W        W28481   9.760  16.430   1.521  0.4127 -0.0501  0.0706
12221W        W28482  12.935   4.150  14.819  0.0615  0.0159 -0.1939
12222W        W28483   6.664   5.597  12.628  0.3355  0.1588 -0.1630
12223W        W28484   3.205   8.190   5.420 -0.1225 -0.0766 -0.3202
12224W        W28485  10.166  17.291   5.526  0.3036  0.2074 -0.0642
12225W        W28486   1.225   8.071  11.449  0.2564  0.1285 -0.0033
12226W        W28487  17.125   7.697   3.418  0.2700  0.1920 -0.0459
12227W        W28488  11.545   5.733   3.568 -0.3466  0.0606  0.0039
12228W        W28489   7.295  14.688   3.974  0.2517 -0.0431 -0.1132
12229W        W28490  14.437   9.782   3.974  0.0136 -0.0598  0.0961
12230W        W28491  11.733  11.991   5.818 -0.1213  0.3067  0.1473
12231W        W28492   2.577   7.382  15.938 -0.1076  0.2015 -0.0738
12232W        W28493   5.253   2.920  12.768 -0.1849  0.1796  0.2418
12233W        W28494   6.511  17.294  13.879 -0.0796 -0.1354  0.2539
12234W        W28495  11.780   3.548   4.563 -0.0522  0.0656  0.1286
12235W        W28496  11.801  17.175  14.440  0.0095 -0.1108 -0.3221
12236W        W28497  14.423   8.413  12.440  0.0136 -0.0702 -0.1983
12237W        W28498   6.249   6.596   2.852  0.0349  0.0464  0.4206
12238W        W28499  10.680  12.862   0.604  0.1636  0.3616  0.2565
12239W        W28500   0.331  15.997  14.860 -0.0568 -0.4025 -0.2678
12240W        W28501   4.127   8.833  14.017  0.3123 -0.0634  0.3194
12241W        W28502   2.626   0.438  13.294 -0.0577  0.1097 -0.3261
12242W        W28503  11.285  12.939  14.593 -0.1345  0.2397  0.1612
12243W        W28504  17.352  12.360   4.187 -0.1576  0.0084 -0.1790
12244W        W28505   2.464   8.874  14.021 -0.5934  0.0345 -0.1137
12245W        W28506  16.346  14.000  14.734 -0.0639  0.2113  0.0206
12246W        W28507   3.881  15.161   3.724 -0.0229 -0.1435  0.1367
12247W        W28508   3.231   8.579   0.818 -0.0915 -0.0211  0.2926
12248W        W28509  17.808  10.276   2.659  0.2027 -0.3363  0.0155
12249W        W28510   0.952   3.844   1.290  0.1616  0.0869 -0.1319
12250W        W28511  13.570  15.255   1.690  0.1113  0.1246 -0.2789
12251W        W28512  13.163   8.157   1.270 -0.0117  0.2008 -0.0047
12252W        W28513   1.141   2.946  13.461  0.1758 -0.0527  0.2349
12253W        W28514  14.515   8.614   1.008 -0.2661  0.3084 -0.0225
12254W        W28515   3.460   6.990   3.390  0.0648 -0.3053  0.2705
12255W        W28516   1.900   5.088   2.169 -0.0678  0.2067 -0.1504
12256W        W28517   4.343  10.608  11.738 -0.0888  0.0713  0.2317
12257W        W28518   1.285   2.597  13.048  0.2374  0.0355  0.3978
12258W        W28519   9.318  16.692   0.325  0.4347  0.1131 -0.0817
12259W        W28520   2.018   9.500   1.552 -0.0326 -0.1174  0.2391
12260W        W28521  17.288  15.549  13.938 -0.4688 -0.1546 -0.1341
12261W        W28522   1.985  16.028  12.158 -0.0026  0.2136 -0.1480
12262W        W28523  13.271   6.877   4.661 -0.0615  0.2256 -0.2374
12263W        W28524   8.300  17.940  12.180  0.0515 -0.0689 -0.1763
12264W        W28525  17.204   2.556  13.070 -0.1328 -0.0584  0.0502
12265W        W28526   6.787   5.468   5.733 -0.1007 -0.1767  0.1841
12266W        W28527   3.453  11.873   3.980  0.4382 -0.0232 -0.2506
12267W        W28528   5.232   7.552  15.590 -0.0019  0.2145 -0.0200
12268W        W28529  10.589   8.723   2.190 -0.0127  0.2095 -0.2972
12269W        W28530  11.439  12.914  13.150 -0.2342  0.3467  0.1868
12270W        W28531  10.929   6.675   2.192 -0.0729 -0.0415  0.2385
12271W        W28532   4.647   9.722   0.854  0.0072 -0.1398 -0.3046
12272W        W28533   2.260  10.489  16.174  0.0979 -0.0916  0.0254
12273W        W28534   0.215  15.209  15.649 -0.3823 -0.0413  0.1127
12274W        W28535  17.310   9.003   5.278 -0.1504  0.0000  0.2648
12275W        W28536   8.836   2.904   1.835 -0.1157  0.2855 -0.2764
12276W        W28537   9.407   2.392   2.369  0.0768 -0.1845 -0.2519
12277W        W28538   0.484   6.679  12.860  0.1696  0.2417  0.1069
12278W        W28539  11.402   0.717   0.620 -0.0597 -0.1962 -0.1326
12279W        W28540  16.992  12.881   2.182 -0.0043 -0.0055 -0.0782
12280W        W28541  14.068   7.431  12.247  0.1956  0.0290 -0.1534
12281W        W28542   3.279  10.818   4.720 -0.1119  0.0284 -0.1746
12282W        W28543   7.495  17.631  12.696  0.3691 -0.1972  0.0594
12283W        W28544   1.257  17.370   0.244  0.0380 -0.0891  0.2550
12284W        W28545   5.252   3.276   2.854  0.3840 -0.0301 -0.1814
12285W        W28546  16.865   5.259  12.774 -0.0219 -0.2540  0.0414
12286W        W28547  11.978   0.921   5.416 -0.2602 -0.7388  0.2509
12287W        W28548  15.909  13.905   3.021  0.0447 -0.4126 -0.0273
12288W        W28549   8.447   7.217  15.688 -0.1671 -0.2321 -0.0789
12289W        W28550  12.871  12.379  15.767 -0.1769  0.1985  0.1104
12290W        W28551   4.611   1.777  13.538 -0.1681  0.0084 -0.1606
12291W        W28552  13.890   3.888  13.604  0.1124  0.0230 -0.1793
12292W        W28553  10.976   2.728  12.805  0.4166  0.1804  0.2079
12293W        W28554  10.073   1.462   1.622 -0.4245  0.2159 -0.1412
12294W        W28555   7.062  17.189   1.632  0.0390 -0.0124 -0.1173
12295W        W28556   8.157  11.735   2.866 -0.1601 -0.2442  0.1474
12296W        W28557   9.194   0.087  16.067 -0.2203  0.0473 -0.3344
12297W        W28558   8.306   2.434   0.854 -0.5421 -0.2404  0.0273
12298W        W28559   3.425  12.186   5.529 -0.2340  0.0200  0.1792
12299W        W28560   1.536   1.787  12.507  0.1180 -0.1391  0.0775
12300W        W28561   6.319  14.067  14.449  0.0380  0.0440  0.3025
12301W        W28562  12.913   1.488  15.705  0.1604 -0.3536  0.0072
12302W        W28563  15.660   6.241   1.907  0.0806 -0.2185 -0.1345
12303W        W28564   8.406   8.071  16.331  0.0408 -0.0992 -0.0238
12304W        W28565  13.402  11.948   3.871  0.0903 -0.0830  0.0929
12305W        W28566   2.034  16.107   1.546 -0.0526 -0.0492 -0.3563
12306W        W28567   7.400   7.519   1.373  0.0562  0.1710 -0.3004
12307W        W28568   3.148  13.608  13.907 -0.2308  0.2891 -0.4908
12308W        W28569   9.062   1.162  15.510 -0.0313 -0.1537  0.0752
12309W        W28570   7.269   1.207  14.956 -0.0232  0.0948 -0.1235
12310W        W28571   7.945   5.839   3.742  0.0985  0.2372 -0.0027
12311W        W28572  14.170  11.592   2.178  0.2197  0.1288 -0.1092
12312W        W28573  13.159  17.841   0.045 -0.0762  0.0046 -0.1419
12313W        W28574  15.530   1.697  15.473  0.3765 -0.3117 -0.1972
12314W        W28575   6.817  14.187   5.053  0.0013 -0.1043 -0.2428
12315W        W28576  16.549  18.159  16.550 -0.2089  0.1348  0.4771
12316W        W28577   8.251  13.492  16.611 -0.1437  0.1084 -0.1599
12317W        W28578   7.548  17.384   5.652  0.0414 -0.1386 -0.2005
12318W        W28579   7.026  12.979  11.710 -0.0984 -0.1884 -0.4558
12319W        W28580   7.953   8.080   0.075 -0.1927 -0.1321  0.1073
12320W        W28581  12.576   8.581   0.987 -0.0594  0.0904 -0.1559
12321W        W28582   1.122  14.983  16.373 -0.5434  0.0167  0.0982
12322W        W28583   4.274   5.745  14.192  0.0391  0.2302 -0.0624
12323W        W28584  10.705   1.648  11.106  0.1932  0.1648 -0.0483
12324W        W28585  15.945  12.823   5.779 -0.2386  0.2195  0.1071
12325W        W28586  12.612  15.080  15.936 -0.0599 -0.0667 -0.0489
12326W        W28587   5.098   8.514   3.146  0.0392 -0.0528 -0.1512
12327W        W28588  12.061   9.873  13.223 -0.0416 -0.0264  0.1836
12328W        W28589   1.019   7.732   0.503 -0.2108 -0.1185 -0.3230
12329W        W28590  11.272   6.738   4.726 -0.0049 -0.0351  0.1189
12330W        W28591  10.345   3.150   4.040  0.1700 -0.0416 -0.0653
12331W        W28592  15.666   3.207  13.465  0.0331  0.0510 -0.1732
12332W        W28593   7.754   3.111  11.576  0.0625  0.1912  0.1793
12333W        W28594   4.920  12.183  15.527 -0.1416  0.1571  0.1686
12334W        W28595   9.642   2.399  12.581 -0.2458 -0.0234  0.1479
12335W        W28596  15.671   2.435   0.068 -0.1970  0.0765  0.4909
12336W        W28597   7.875   7.244  14.930  0.3170  0.2821 -0.0416
12337W        W28598   8.731  13.824   6.434 -0.1722 -0.0087 -0.1165
12338W        W28599  12.687   7.029  15.493 -0.0286 -0.2765  0.0427
12339W        W28600   6.132  13.020   3.514  0.1773  0.1869  0.3716
12340W        W28601   8.930   2.832  12.340 -0.2292  0.2628  0.0283
12341W        W28602   1.167   9.283  15.647 -0.2157  0.2061 -0.3436
12342W        W28603   9.055  11.556   1.786  0.0504  0.4292 -0.1558
12343W        W28604  14.791   1.350  14.928 -0.1637  0.3605 -0.1595
12344W        W28605   7.395  12.449   4.414  0.1338 -0.0179  0.1454
12345W        W28606  13.218   2.508   4.350 -0.0081  0.0696 -0.0710
12346W        W28607  12.263   6.168  12.917  0.1577  0.1195  0.1008
12347W        W28608  13.392  10.711   3.206 -0.1381 -0.1760  0.2928
12348W        W28609   1.210   6.421   3.592  0.1671 -0.2975  0.1815
12349W        W28610   0.106   2.575  15.331  0.0649 -0.1330  0.2276
12350W        W28611   9.029   3.352   1.651  0.0747 -0.3502 -0.4731
12351W        W28612   7.747   4.191  13.982  0.3041 -0.1684  0.0347
12352W        W28613   7.970   8.528   2.911  0.0478  0.1991 -0.1792
12353W        W28614  16.402   9.751   3.593 -0.0338 -0.1261 -0.0776
12354W        W28615  14.233  15.880   0.043 -0.4300  0.1585  0.0729
12355W        W28616  10.920   9.243   2.549 -0.0476 -0.0251 -0.0223
12356W        W28617  14.788  15.607   2.138 -0.0971 -0.1785 -0.0268
12357W        W28618  14.328  10.533   1.716 -0.0740 -0.0497 -0.1483
12358W        W28619  14.657   1.941  15.270 -0.1225 -0.3229  0.0255
12359W        W28620  10.870  18.128   4.368 -0.1886 -0.0095  0.3183
12360W        W28621   1.677   0.467  13.019 -0.2620  0.1665 -0.1335
12361W        W28622   4.292   2.326   2.527  0.2200 -0.0591  0.0443
12362W        W28623  11.188  14.009   3.376 -0.1013 -0.2130 -0.0879
12363W        W28624  11.421   7.856   1.785  0.0332  0.0967 -0.3473
12364W        W28625   2.747   4.469   2.256 -0.1230 -0.2780 -0.1377
12365W        W28626   3.952  12.333  13.617 -0.0961  0.1688  0.0557
12366W        W28627   3.443  14.862   3.562 -0.1127 -0.1670  0.0593
12367W        W28628  13.766   7.482  16.340  0.0407  0.2335 -0.2504
12368W        W28629  11.761   6.311  13.004 -0.0897 -0.0941  0.1086
12369W        W28630  12.181  14.186   1.455 -0.1631  0.1227  0.0320
12370W        W28631   3.414  10.566   1.269  0.1831 -0.0328 -0.0424
12371W        W28632  14.145  10.883   0.361 -0.1521  0.1835 -0.0069
12372W        W28633   7.530   4.418  12.101 -0.2402 -0.0864  0.2287
12373W        W28634   3.113   8.411  11.134 -0.1969  0.0111  0.0915
12374W        W28635   8.236   3.776   3.424 -0.1975  0.4203  0.0050
12375W        W28636   9.615  11.269   6.130 -0.2814 -0.1271 -0.2129
12376W        W28637  12.080   3.207  15.070 -0.2419 -0.1343  0.0041
12377W        W28638   6.599  12.865   1.884  0.0309 -0.0364 -0.1379
12378W        W28639   0.790   1.080   0.962 -0.2294  0.2992  0.0304
12379W        W28640  13.354   3.166   3.949  0.0773  0.2296 -0.0780
12380W        W28641  16.878  12.364   5.859  0.0667  0.0811  0.0908
12381W        W28642  17.375   3.280  14.220 -0.2240 -0.2883  0.0133
12382W        W28643   1.287   9.801   3.373  0.1055 -0.0271  0.1409
12383W        W28644   7.160   8.652   0.041 -0.0914  0.1104 -0.1924
12384W        W28645   4.989   4.095   3.869  0.1660  0.1173 -0.0810
12385W        W28646   8.504  11.759  16.617 -0.2867 -0.2456  0.2876
12386W        W28647  13.928   6.677   5.164  0.1282  0.0543  0.0190
12387W        W28648   1.987   1.941   4.686  0.0741  0.1678 -0.3322
12388W        W28649  12.050   3.768   2.228 -0.3078 -0.1363  0.0537
12389W        W28650  17.525   7.526   2.521  0.0364  0.1176  0.0578
12390W        W28651   1.703  14.327   0.279  0.0460 -0.3370 -0.0826
12391W        W28652   1.892  15.540  15.687 -0.1246 -0.0203 -0.0107
12392W        W28653   9.282   8.656   0.368 -0.0492 -0.1262  0.1092
12393W        W28654   6.629  14.380  15.479 -0.0886  0.3460  0.1609
12394W        W28655  12.425  11.272   5.487 -0.1213 -0.3642 -0.2381
12395W        W28656   1.331   3.258  13.804  0.3147  0.1389  0.3235
12396W        W28657   7.657   8.748   2.110  0.1386 -0.0764  0.0637
12397W        W28658   7.806   7.271  12.052  0.1901  0.1323 -0.3537
12398W        W28659   7.541   1.686   1.245  0.1950  0.1486  0.1264
12399W        W28660   1.554  13.214   4.402 -0.1863  0.0538 -0.1002
12400W        W28661   1.162   2.855  15.877  0.2195 -0.0288  0.0688
12401W        W28662   5.492   6.065  12.179 -0.1736  0.3430 -0.2836
12402W        W28663  10.655   4.755   3.038 -0.1963 -0.5632 -0.0935
12403W        W28664  15.748  17.203  15.161  0.1588 -0.0329 -0.3681
12404W        W28665   3.319   3.443   5.912  0.4103 -0.2115 -0.1581
12405W        W28666   5.022   6.852  16.212  0.3894 -0.2110  0.1047
12406W        W28667   4.592  12.374   1.021  0.0080 -0.0956 -0.1343
12407W        W28668  13.104  17.388   0.429  0.1956  0.3053  0.4216
12408W        W28669   4.837  15.813   4.752  0.0644 -0.1531  0.0553
12409W        W28670   7.343  17.858  16.167 -0.4944  0.0570  0.0951
12410W        W28671  12.423   3.386  14.548 -0.2928  0.1147 -0.0774
12411W        W28672   1.034   4.000   4.581  0.2814 -0.0617  0.1310
12412W        W28673   6.152   3.742  12.324  0.2926 -0.3253  0.0150
12413W        W28674  10.045   0.711  12.822  0.1802 -0.5038 -0.0921
12414W        W28675   7.234  11.455   4.032  0.1584 -0.0587  0.0582
12415W        W28676  16.173   3.023   3.632  0.0638 -0.0458 -0.0340
12416W        W28677  14.838   5.911   1.941  0.0571  0.1616  0.4082
12417W        W28678  10.586   9.161   5.117  0.2071 -0.0279 -0.0604
12418W        W28679   2.082  10.153   5.234 -0.0108  0.2275 -0.1062
12419W        W28680  10.268   5.990  15.047  0.0974 -0.2132 -0.1291
12420W        W28681  11.451  10.251   4.689 -0.1215  0.0613  0.0801
12421W        W28682  13.067  13.146  14.470  0.2557 -0.2078  0.0053
12422W        W28683   3.874   9.836   5.943 -0.1303 -0.0045 -0.0574
12423W        W28684   8.339  11.253   4.754 -0.1784  0.3461 -0.4246
12424W        W28685   8.203   9.585  12.383  0.0279 -0.3245 -0.1450
12425W        W28686   0.663   8.288   6.279 -0.2042  0.0516  0.0638
12426W        W28687   2.045   2.868   4.502 -0.1440  0.1606 -0.2694
12427W        W28688   6.213   9.233   3.705 -0.0582  0.0355  0.1084
12428W        W28689  10.639   5.430   0.287 -0.1191 -0.4166 -0.2449
12429W        W28690   2.529   4.618  12.199  0.3052  0.2473  0.1968
12430W        W28691  17.094   9.974  15.964  0.0060  0.1319  0.0631
12431W        W28692  15.864   9.339  15.142  0.0693  0.2961 -0.0870
12432W        W28693  10.381   5.212   4.684 -0.2915 -0.5298  0.1823
12433W        W28694   0.845  14.382  13.659 -0.1473  0.4075  0.1398
12434W        W28695   9.690  17.254   3.396  0.0128  0.1498 -0.1099
12435W        W28696  13.235   8.345  15.489 -0.1723 -0.1010 -0.2342
12436W        W28697  17.134   1.886  14.135 -0.0339 -0.4193 -0.1431
12437W        W28698   0.081   6.346  12.910 -0.1269  0.1179 -0.1365
12438W        W28699  17.043  13.064   5.748  0.1474  0.1193  0.0126
12439W        W28700   0.047  17.770   2.301  0.1823 -0.1875  0.2415
12440W        W28701  15.478   0.263   1.167  0.0900 -0.1253 -0.0105
12441W        W28702  12.176   4.239  14.181 -0.2597 -0.4059  0.0754
12442W        W28703   0.662   7.761  12.208  0.0167 -0.0673  0.2159
12443W        W28704   6.295  16.018  16.152 -0.0256 -0.1185  0.3044
12444W        W28705   7.877   0.213  13.273 -0.1795  0.2243 -0.2155
12445W        W28706  10.351   9.183   1.860  0.2476 -0.0383  0.0337
12446W        W28707  15.504   6.169   4.954  0.3706 -0.2185  0.1678
12447W        W28708  15.634  13.056   0.136  0.2443  0.3686 -0.0171
12448W        W28709  17.984  16.862   5.683 -0.3509 -0.2809  0.0064
12449W        W28710  17.516   9.428  12.008  0.2224  0.0879  0.0025
12450W        W28711  14.047   3.108  16.280 -0.1680  0.1628 -0.2946
12451W        W28712   6.074  16.991   5.387  0.0883  0.1503 -0.2517
12452W        W28713   7.688   6.193  15.607 -0.4846  0.1457 -0.2968
12453W        W28714  17.444   8.736   0.895  0.5782  0.0461 -0.1094
12454W        W28715   9.054   5.938  12.680 -0.0110  0.1079  0.0031
12455W        W28716   1.931  12.423   2.401  0.0280  0.2776 -0.1014
12456W        W28717   8.768   2.736   0.744  0.2210 -0.1359 -0.0051
12457W        W28718  17.870   9.863   0.329  0.0243  0.1488  0.1385
12458W        W28719  17.756   2.663  16.361 -0.0770 -0.1055 -0.1445
12459W        W28720   4.233   5.581   4.300  0.0720  0.1708 -0.0125
12460W        W28721   3.561   5.475  13.168 -0.1452 -0.1109 -0.2000
12461W        W28722   8.130  11.972   1.479 -0.1802 -0.0771 -0.1093
12462W        W28723   0.944   5.599  13.712 -0.0716  0.1441 -0.0757
12463W        W28724   1.670   8.592   3.500  0.0227 -0.0141 -0.1859
12464W        W28725   6.162  11.344   1.267  0.1327 -0.1486  0.0016
12465W        W28726   4.460   7.976  14.223 -0.2416  0.1551  0.0345
12466W        W28727  14.852   0.735   2.218  0.0755 -0.1431 -0.1688
12467W        W28728   4.528   0.764   3.295 -0.1309 -0.0830  0.1611
12468W        W28729  13.672   9.169   0.749  0.1294  0.0576 -0.1763
12469W        W28730  10.633  12.503  13.835 -0.0411 -0.0247 -0.0445
12470W        W28731  10.176   0.097   3.469  0.1883 -0.0814 -0.0114
12471W        W28732  17.601  16.073   4.139 -0.1203 -0.2505  0.1622
12472W        W28733   3.825   7.592  13.587  0.0421  0.1599 -0.0080
12473W        W28734  14.486   3.254   2.042  0.1181 -0.2223  0.0272
12474W        W28735   3.811  14.846  12.883 -0.1429 -0.4704  0.3967
12475W        W28736   8.037   0.963  11.527  0.0800  0.1593 -0.1432
12476W        W28737  15.818   0.588   0.660  0.0482 -0.1013 -0.1464
12477W        W28738   3.973  16.194  14.449  0.1669  0.1788  0.2096
12478W        W28739  11.585   8.392  16.291 -0.2302  0.3502 -0.0265
12479W        W28740  17.948   4.613  15.065  0.2605  0.0021  0.3924
12480W        W28741  12.782  13.990  14.482 -0.0351 -0.2767 -0.1548
12481W        W28742   9.766  11.477   4.765  0.0590 -0.0499  0.0094
12482W        W28743  16.706  12.558   0.849 -0.1078  0.0418  0.0514
12483W        W28744   8.747  11.261  13.080  0.1082 -0.1353  0.3531
12484W        W28745   7.989  12.286   0.622 -0.0772 -0.0458 -0.0747
12485W        W28746   1.344  16.697   2.910 -0.2194 -0.1234  0.3589
12486W        W28747  12.771   1.898  13.694  0.4385  0.2558  0.0855
12487W        W28748  12.837   8.484  12.217  0.0113  0.0486  0.1759
12488W        W28749   1.128   8.480   5.292 -0.0087 -0.2068 -0.0491
12489W        W28750   1.694  11.979  14.741  0.0499 -0.0620  0.0333
12490W        W28751  13.208  16.562  12.606 -0.2457 -0.5174 -0.0636
12491W        W28752  13.255  14.532   3.425  0.0971  0.1790  0.1561
12492W        W28753   7.110   8.840  12.896  0.2985  0.1874  0.2540
12493W        W28754   7.670   8.173  12.254 -0.0454 -0.1070  0.3989
12494W        W28755   3.007   8.346  12.939  0.0294  0.0977 -0.3930
12495W        W28756  10.809   7.048   3.472 -0.1413  0.0352 -0.1494
12496W        W28757  10.007  14.278   5.273  0.1262  0.2306 -0.1169
12497W        W28758   5.069   8.266  14.461 -0.2172  0.4528 -0.0350
12498W        W28759  16.472  15.655  15.179  0.2064  0.0576  0.1226
12499W        W28760   4.576  14.206  13.023 -0.1502  0.0178 -0.0603
12500W        W28761   9.862   5.434   1.926 -0.3135  0.0666 -0.0170
12501W        W28762   5.110  10.690  12.599 -0.0752  0.0647  0.2374
12502W        W28763  11.272  12.089  13.396 -0.2206 -0.4137 -0.2893
12503W        W28764   4.523   6.301  14.313  0.0782 -0.0463 -0.3153
12504W        W28765   0.617  12.585   1.560 -0.1752 -0.0152 -0.2698
12505W        W28766  16.196   6.282  15.740  0.0038 -0.1879 -0.2086
12506W        W28767   9.629  16.791   2.042  0.3865 -0.2377 -0.0709
12507W        W28768   9.023  17.732   4.719  0.0388 -0.2214 -0.4571
12508W        W28769  14.540   5.304   5.208 -0.0853 -0.1663  0.1376
12509W        W28770   5.212   2.760  14.347  0.0882 -0.1896 -0.2951
12510W        W28771  13.923  13.280   1.872  0.0626 -0.1044 -0.2282
12511W        W28772  14.386   7.122   3.770 -0.1136  0.1955  0.1416
12512W        W28773  16.399   6.742   1.477  0.2651 -0.0615 -0.2611
12513W        W28774   1.203  12.820   2.323 -0.0005 -0.0933 -0.2151
12514W        W28775   4.309  12.025  14.933  0.0358  0.1053  0.2496
12515W        W28776  14.464  11.839  16.127  0.0637 -0.0034 -0.1485
12516W        W28777   7.688   7.923   3.796 -0.2849 -0.0169  0.1275
12517W        W28778  11.060  12.295  15.149  0.2611 -0.2525  0.0296
12518W        W28779  17.049  15.330   1.149 -0.1672  0.2847  0.0476
12519W        W28780   3.081   1.458  12.655  0.3501  0.2484  0.0469
12520W        W28781  15.262   5.764  13.732  0.1477  0.1660  0.0273
12521W        W28782  11.230  12.392  11.529  0.3407 -0.1024  0.3465
12522W        W28783  16.908   5.313  14.289  0.0733 -0.1088  0.1242
12523W        W28784   2.604   6.243  13.989  0.0856  0.0310 -0.2963
12524W        W28785   1.682   9.217   5.667 -0.1956  0.0147  0.0092
12525W        W28786  13.085   9.412   1.944  0.2529 -0.0302  0.0186
12526W        W28787   5.482  12.472  13.799  0.0243 -0.1069  0.0376
12527W        W28788  10.351   4.490  11.217  0.0130 -0.0731  0.0419
12528W        W28789  12.327  11.394  15.108 -0.1115 -0.0076 -0.0337
12529W        W28790   5.592  12.108   0.838 -0.2680 -0.0816 -0.0194
12530W        W28791   2.852   8.276   4.595 -0.1523  0.1081 -0.1005
12531W        W28792  15.400  11.847  16.068 -0.2822 -0.2004  0.1384
12532W        W28793   3.551  13.060   4.126 -0.0406  0.1605  0.0278
12533W        W28794   1.823  10.143  16.282  0.4305  0.0507  0.0385
12534W        W28795  12.527   4.484   1.861  0.0252  0.2998  0.4545
12535W        W28796   8.441   2.013   1.118  0.0293  0.2723 -0.1552
12536W        W28797   9.700   7.266   1.333 -0.0446 -0.3608  0.0196
12537W        W28798   8.564   8.370  15.417 -0.2239  0.0253 -0.0468
12538W        W28799  15.376   2.540   2.601  0.1174  0.3825 -0.1951
12539W        W28800  12.810  15.017   0.773  0.1415  0.0579  0.1632
12540W        W28801   4.771  12.809  13.695 -0.0728  0.0033  0.1104
12541W        W28802  12.924  11.883  12.162  0.1833  0.2016 -0.0838
12542W        W28803   1.028   5.575   4.872  0.1322 -0.0045 -0.1023
12543W        W28804   7.957  16.256   2.368 -0.0582  0.1158  0.0830
12544W        W28805  12.584   3.037   0.140  0.0652  0.3311  0.1904
12545W        W28806  11.859  12.017  12.549  0.1617  0.4318  0.0543
12546W        W28807  12.043   3.777  12.282 -0.0304  0.2332  0.1198
12547W        W28808   6.604  11.592   1.972 -0.0493 -0.4827 -0.0682
12548W        W28809   9.247  12.725  14.823 -0.1141  0.0572 -0.0280
12549W        W28810   6.821   6.292   0.912 -0.0358 -0.1197  0.2063
12550W        W28811  10.104   4.225  10.562 -0.2312 -0.1164  0.1948
12551W        W28812  15.161   3.008   4.219 -0.1165 -0.0863 -0.0987
12552W        W28813   8.435  10.891   4.431  0.1296 -0.1731 -0.2374
12553W        W28814   5.091   0.146   1.664 -0.1259 -0.2956 -0.1187
12554W        W28815  15.552   3.373   0.529  0.1274 -0.1246 -0.0802
12555W        W28816   7.741  13.787   5.375  0.0015 -0.0977  0.5408
12556W        W28817  10.298   3.394   0.008 -0.0801  0.2167 -0.2996
12557W        W28818  17.239   1.171   2.630 -0.2570 -0.1159 -0.0353
12558W        W28819   0.149   8.575   2.765  0.1077  0.3103  0.2388
12559W        W28820  14.462   7.052  15.787  0.2032 -0.0427  0.1568
12560W        W28821   9.544   6.779  12.688 -0.2964  0.0293 -0.2104
12561W        W28822   2.163  12.125   2.758  0.1698  0.0750 -0.5552
12562W        W28823   9.337  15.945  15.010  0.0984  0.1923  0.1853
12563W        W28824  14.424   6.157  14.142 -0.0253 -0.0834  0.0083
12564W        W28825  17.742  16.556  15.242  0.0819  0.0155  0.0440
12565W        W28826  11.022  15.731   3.696 -0.0599  0.0704  0.1924
12566W        W28827  10.431   2.902  13.622  0.1497  0.2847  0.2009
12567W        W28828   6.014  10.707  16.451  0.1313 -0.0072  0.1930
12568W        W28829  18.003  12.602   1.821 -0.1291  0.1224  0.0100
12569W        W28830  16.045  16.827   2.599 -0.1512  0.3634 -0.0706
12570W        W28831  13.624   7.694  12.347 -0.1677  0.0269  0.1850
12571W        W28832   3.126  14.559  15.685 -0.1528  0.3277 -0.0804
12572W        W28833  13.463  12.146  15.801  0.2655  0.2497 -0.1312
12573W        W28834   3.832  10.275   0.179 -0.0229 -0.2682  0.0383
12574W        W28835   4.332  11.806  11.524 -0.0953 -0.2274 -0.1844
12575W        W28836   5.374   1.052   5.258  0.3354  0.2804 -0.1676
12576W        W28837  10.171   8.313   5.016 -0.1854 -0.1745  0.0622
12577W        W28838  11.783  10.442   5.041 -0.1961 -0.5216  0.1587
12578W        W28839  11.597   9.050   3.059 -0.3310 -0.0646  0.3469
12579W        W28840   8.459  10.963   3.912 -0.0133 -0.1306 -0.1054
12580W        W28841  12.518  17.718  11.443 -0.0137  0.2875  0.2411
12581W        W28842   8.910   0.541  13.621 -0.2159 -0.4138  0.2861
12582W        W28843  16.668   6.209  14.880 -0.2956 -0.2957  0.2362
12583W        W28844   2.517   9.628   0.428 -0.1856 -0.2955 -0.0129
12584W        W28845   9.433  17.007  14.224  0.1648 -0.3049 -0.4112
12585W        W28846  13.369   0.201  14.328  0.0817 -0.3308  0.0119
12586W        W28847   0.078  10.276  15.239 -0.1727 -0.0530 -0.3404
12587W        W28848   0.369   8.405   0.728 -0.1943 -0.1856  0.0127
12588W        W28849   9.636  16.790   1.084  0.0940  0.4477  0.4304
12589W        W28850  15.930  14.737  16.410  0.0137 -0.1262 -0.0944
12590W        W28851   0.658   4.377   3.630  0.1325  0.1317  0.0061
12591W        W28852   3.481   6.662   2.513  0.0982  0.0631 -0.2699
12592W        W28853  10.819   9.859   2.189  0.0096 -0.0021  0.0422
12593W        W28854   2.968   7.648  16.520 -0.0661  0.0038  0.0345
12594W        W28855   3.293   2.963  14.477 -0.0830 -0.4782 -0.2108
12595W        W28856   6.408   1.077  12.346  0.2094  0.2581  0.0499
12596W        W28857   4.802   4.731  14.281  0.0237 -0.0815 -0.0653
12597W        W28858   4.158  16.631  14.194 -0.3313 -0.2530  0.0496
12598W        W28859   6.908   4.643   5.722  0.1378  0.2184  0.1709
12599W        W28860  16.395   6.575   2.822  0.1814 -0.0942  0.1883
12600W        W28861  15.422  16.250   4.387 -0.0915  0.1597  0.0140
12601W        W28862  10.435  12.506   2.497 -0.4093 -0.4639 -0.3302
12602W        W28863   7.737  15.475   0.358  0.0029 -0.0680 -0.3855
12603W        W28864  13.014   2.002   1.044 -0.0013  0.1934 -0.2595
12604W        W28865  10.232   1.129   1.247  0.0545 -0.0834 -0.1960
12605W        W28866  15.012   2.874  15.475  0.3627  0.1860  0.0799
12606W        W28867   4.335  12.557   1.421  0.2552  0.3411  0.0439
12607W        W28868   8.282  11.436  11.657  0.1670 -0.0203  0.1073
12608W        W28869   7.116   8.078  16.528 -0.5108 -0.1575 -0.1714
12609W        W28870  13.307  15.755   2.460  0.0374  0.1428  0.1523
12610W        W28871   2.331   3.807  15.021  0.1157  0.3121 -0.1665
12611W        W28872   6.789   5.937  14.118 -0.4382  0.1996 -0.1052
12612W        W28873   0.800   9.877   5.536 -0.2641  0.0323  0.3426
12613W        W28874  14.979  13.077   2.479  0.0058  0.1281 -0.3078
12614W        W28875   0.810  14.123   0.288  0.0691  0.0136 -0.3706
12615W        W28876  11.186  11.467  16.599  0.1094 -0.0038 -0.1876
12616W        W28877   0.080  12.484  14.498 -0.0872  0.2860 -0.2770
12617W        W28878  10.950   1.496  13.422  0.2583  0.1844 -0.0676
12618W        W28879  16.998  10.859   6.184 -0.3996 -0.1602 -0.1557
12619W        W28880  15.809   3.793   1.301  0.1300  0.1529  0.0046
12620W        W28881  12.705   5.585   1.997  0.1508  0.0068  0.2180
12621W        W28882  14.569  12.230   2.564 -0.1149 -0.0166 -0.1405
12622W        W28883  12.679  10.775   1.149  0.1531 -0.0693 -0.4148
12623W        W28884   0.543  11.499  11.768  0.1732 -0.2202  0.0420
12624W        W28885   6.074  14.397   1.177 -0.1097 -0.2444 -0.1566
12625W        W28886  15.636  12.962  11.588 -0.0757 -0.2286  0.1882
12626W        W28887  14.951   6.615  13.358  0.0058 -0.2637  0.1952
12627W        W28888   4.944  15.806  12.455  0.1226 -0.0939  0.0583
12628W        W28889  13.803   8.416  15.966 -0.1951 -0.1730  0.1000
12629W        W28890  13.844  15.742   4.331  0.1436 -0.4397 -0.0960
12630W        W28891  13.927   3.429  14.942  0.1401 -0.1481 -0.1363
12631W        W28892   9.193  13.285   3.851  0.2608 -0.3609 -0.3623
12632W        W28893   5.163  17.399   6.372 -0.0936 -0.1093  0.2115
12633W        W28894  13.042   9.100   3.877 -0.0714  0.0877 -0.0582
12634W        W28895  15.832  10.551  12.941 -0.0591 -0.2144  0.0677
12635W        W28896   5.558   1.320   1.368 -0.0659 -0.1122  0.0436
12636W        W28897  17.760  16.706  16.220  0.0256 -0.2162  0.3126
12637W        W28898  14.998  15.024  14.728  0.0284 -0.1059  0.2058
12638W        W28899  14.717  10.124   3.658  0.2310 -0.1158  0.1590
12639W        W28900  17.418   2.962  15.573  0.0644 -0.2448  0.0583
12640W        W28901  14.297   0.414  16.352 -0.0116  0.1194 -0.1098
12641W        W28902   7.278   7.934   1.150  0.0144 -0.0274 -0.3839
12642W        W28903  15.158  16.446  16.562 -0.0112  0.0181 -0.3645
12643W        W28904   1.940   5.984  16.074  0.1147  0.1933  0.5322
12644W        W28905  17.240   8.336   0.466  0.1288 -0.0356  0.0663
12645W        W28906   7.344  15.396   5.100  0.1506 -0.1586  0.2497
12646W        W28907  10.976  15.712   2.347 -0.0566  0.0537 -0.1388
12647W        W28908  14.217  17.862  11.311  0.4509  0.1315  0.2787
12648W        W28909   7.206  12.867  12.927 -0.1682 -0.2322  0.2721
12649W        W28910  16.438   6.206  13.810 -0.0976 -0.0979 -0.0614
12650W        W28911   8.934  15.927   2.166 -0.0024  0.1390 -0.0452
12651W        W28912   7.003  18.075   1.510 -0.1242  0.0364  0.2675
12652W        W28913  18.140   4.209   1.106 -0.1343 -0.0337  0.0060
12653W        W28914  14.710  16.423   5.066 -0.0389  0.0021 -0.1408
12654W        W28915  12.042   2.854  12.862  0.2329 -0.1996  0.1590
12655W        W28916  10.240   9.804   3.517 -0.1493 -0.3902 -0.0730
12656W        W28917   7.618  10.207   3.047 -0.0267 -0.0300  0.0359
12657W        W28918   1.288  17.753   1.915 -0.0134 -0.0744 -0.0001
12658W        W28919   7.941   1.470   4.967  0.3848 -0.0000  0.1699
12659W        W28920   3.624  10.689   0.469  0.0562 -0.1750 -0.4164
12660W        W28921   6.580  17.747   2.416  0.0328  0.2177 -0.2318
12661W        W28922  12.073  11.190   0.270  0.1516  0.0517 -0.0944
12662W        W28923   7.795   8.957   4.600 -0.0409 -0.1672  0.1637
12663W        W28924  12.817   3.000  15.853  0.1630 -0.0659  0.1584
12664W        W28925  11.842   4.972  14.142 -0.0486 -0.0276  0.0514
12665W        W28926   9.808   8.051  15.904 -0.5056 -0.1346  0.2175
12666W        W28927   8.200   0.639  13.047  0.0902  0.1236  0.2289
12667W        W28928   5.525   0.824  16.617  0.1885 -0.0452 -0.2653
12668W        W28929   8.623   4.911   4.093  0.1467  0.0397 -0.1542
12669W        W28930  10.158   2.586   1.176 -0.1171 -0.0842 -0.1542
12670W        W28931   9.619  15.431   5.511 -0.2448 -0.0967 -0.2312
12671W        W28932  11.608   1.332  16.139 -0.0571  0.4716 -0.0525
12672W        W28933   6.477   2.377  15.891  0.2819  0.2408 -0.3811
12673W        W28934   6.381  14.788  15.692 -0.3393  0.0625  0.0512
12674W        W28935   3.016  13.110  11.774  0.1489 -0.2511  0.2993
12675W        W28936  15.253   7.712   2.903 -0.1507 -0.0923 -0.0330
12676W        W28937   7.817   3.329   5.315  0.2961  0.2143  0.2609
12677W        W28938   1.423  12.361   2.255 -0.0615 -0.0690  0.4991
12678W        W28939  12.889   1.981   1.670 -0.1144 -0.2594 -0.1387
12679W        W28940  18.121  16.666  12.072 -0.0254 -0.2015 -0.0444
12680W        W28941   5.601  16.791   5.349 -0.2202 -0.1488  0.2156
12681W        W28942  11.069   4.339   3.721 -0.1765  0.2324 -0.1683
12682W        W28943  15.548  14.933  12.370  0.2369 -0.1252  0.0504
12683W        W28944  15.705   3.487   5.001 -0.0861 -0.2017  0.1299
12684W        W28945   2.807  10.147   5.089 -0.0423 -0.1650 -0.0330
12685W        W28946   0.357  10.397  11.930 -0.1593 -0.2589  0.2251
12686W        W28947   1.991  15.002  14.071 -0.2679 -0.2758 -0.0922
12687W        W28948  17.536  11.673   2.779  0.1887  0.2212 -0.1174
12688W        W28949   5.283  13.504   0.649  0.0915  0.2350 -0.0025
12689W        W28950   1.727   1.820   3.667  0.0625 -0.0391  0.2700
12690W        W28951   9.872  14.179  14.677  0.2835 -0.1776  0.2081
12691W        W28952   0.256   3.011  14.468  0.0471  0.1091  0.3525
12692W        W28953   5.035  12.064  11.750 -0.1736  0.1930 -0.1085
12693W        W28954  18.034   0.742   1.208  0.0447 -0.1142 -0.1646
12694W        W28955   0.904   3.641  15.229 -0.2409  0.3600 -0.1516
12695W        W28956   1.265   1.391   0.342  0.1022 -0.3634  0.3093
12696W        W28957   7.844  10.630  15.499 -0.2135  0.0995  0.2581
12697W        W28958   3.039   2.885   0.197  0.1678 -0.1247 -0.1601
12698W        W28959   7.184  11.823   0.926  0.1285  0.1212 -0.1631
12699W        W28960  12.734  13.426   5.869 -0.0883  0.0481  0.0367
12700W        W28961  11.122  15.850  14.169 -0.4415  0.2517  0.1706
12701W        W28962   8.745   5.699   4.528 -0.0407  0.1897 -0.2798
12702W        W28963  15.440  14.577   5.094  0.1864 -0.1359  0.0721
12703W        W28964   7.659  17.850   5.888  0.0723  0.1761  0.1074
12704W        W28965  11.479   4.960  13.843  0.4845 -0.0117  0.1583
12705W        W28966   5.180  17.089   5.505 -0.2963 -0.1024 -0.0840
12706W        W28967  12.811   0.532   0.780  0.1635 -0.1127 -0.3488
12707W        W28968   6.202   3.282  11.824 -0.1505 -0.0943 -0.1607
12708W        W28969   5.781   8.083  13.017 -0.0072  0.1577 -0.6681
12709W        W28970  12.439   6.398   4.118  0.0216 -0.0231  0.1931
12710W        W28971  17.908   5.661   0.145  0.1917  0.0528  0.1446
12711W        W28972   6.925   8.124   2.179  0.0201  0.1736 -0.0429
12712W        W28973  14.145  14.849  13.701  0.3493 -0.0786  0.0907
12713W        W28974   3.162   1.798   5.948  0.1254 -0.0008 -0.0765
12714W        W28975  16.809  10.432  11.364 -0.2304  0.0889 -0.0382
12715W        W28976  12.512   5.757  12.208 -0.0488 -0.3147  0.2320
12716W        W28977  18.045   3.420   4.086  0.0824 -0.0995  0.2551
12717W        W28978   6.446   6.447  12.638  0.0697  0.0410 -0.0767
12718W        W28979  10.716   2.471  13.197 -0.0787 -0.3959 -0.1037
12719W        W28980  16.914   6.491  13.165 -0.0922  0.0461  0.1897
12720W        W28981   4.770  13.321  12.919 -0.3423  0.0271  0.0045
12721W        W28982   8.698   0.618   1.277  0.0637  0.1505  0.0344
12722W        W28983   1.469   0.657  15.182  0.1721  0.1089  0.0531
12723W        W28984   9.552   9.862  14.330  0.0420  0.0834 -0.0178
12724W        W28985  11.595   8.883  16.366 -0.1862 -0.1253 -0.0541
12725W        W28986   0.230   4.993  15.470  0.2284 -0.0367  0.2594
12726W        W28987   3.946   8.805  11.699  0.3903  0.1795  0.1907
12727W        W28988   7.044   7.131   0.633 -0.1223 -0.1909  0.0700
12728W        W28989   7.961   3.715  11.609  0.0406  0.0898  0.1383
12729W        W28990  17.885   2.473   2.005 -0.0908  0.1993  0.1203
12730W        W28991  13.919  13.307   4.673  0.1489  0.3072 -0.2800
12731W        W28992   8.172  15.550   2.028 -0.0466 -0.3465 -0.2939
12732W        W28993  16.055  15.089  14.734 -0.0959  0.2559  0.0435
12733W        W28994   9.848   3.871  14.317 -0.0132  0.0654  0.0370
12734W        W28995   8.220   3.197   2.239 -0.3541 -0.1276  0.0318
12735W        W28996  13.146   4.956  12.321 -0.2281  0.0004 -0.0535
12736W        W28997   0.654  10.973   0.237  0.0637 -0.0534 -0.2450
12737W        W28998   1.618  14.973   4.512  0.0852  0.0535 -0.0578
12738W        W28999  13.388   2.332   1.105 -0.1188 -0.2725  0.0775
12739W        W29000   3.598   0.538   3.039 -0.2021  0.0480  0.0380
12740W        W29001   3.522  17.162   2.252  0.2732  0.0556 -0.0159
12741W        W29002   8.603   9.925  13.432  0.1121  0.0641 -0.0022
12742W        W29003  16.636  10.037  15.016 -0.3653 -0.3241 -0.2651
12743W        W29004  17.243  17.000  14.801  0.1229 -0.0943 -0.1323
12744W        W29005   0.564  11.923   1.361 -0.1705 -0.0091  0.2200
12745W        W29006  13.511   8.347  16.481  0.2847  0.4018 -0.0049
12746W        W29007  16.599   1.944  14.163  0.0004 -0.0820 -0.2112
12747W        W29008  10.036   7.363  13.380 -0.3523 -0.2510  0.2804
12748W        W29009  14.510  13.381  14.001 -0.1960  0.0151  0.3771
12749W        W29010   7.024   8.179  11.863  0.3916 -0.0166 -0.1050
12750W        W29011  18.061  17.493   1.404 -0.1613  0.3356  0.0994
12751W        W29012   0.729   0.221   4.328 -0.1864  0.0555  0.3215
12752W        W29013  13.216  13.641  15.091 -0.0326  0.2531 -0.0874
12753W        W29014  15.059   5.848  11.667  0.2878  0.0440 -0.1210
12754W        W29015   7.321  14.559   1.425 -0.0872  0.2749  0.0969
12755W        W29016  13.379   3.947   0.934  0.0577 -0.2552 -0.0648
12756W        W29017   9.339   2.611  14.335  0.1036  0.4251 -0.1619
12757W        W29018  10.989   4.300  10.664 -0.1140 -0.1508 -0.3307
12758W        W29019   4.697   5.053  15.810 -0.1800 -0.1777  0.0279
12759W        W29020   3.175  13.879  14.339 -0.0883 -0.3340 -0.2639
12760W        W29021  14.118  10.461  14.457  0.0410  0.2558  0.1447
12761W        W29022   8.124   4.886  15.258  0.0645 -0.2983 -0.0889
12762W        W29023   0.430  13.071  15.875  0.1216 -0.1024  0.2774
12763W        W29024   6.993   7.561  11.809 -0.0342  0.2602  0.0834
12764W        W29025  13.786   0.748  14.462  0.2210  0.1088 -0.1183
12765W        W29026  16.969   3.381  13.468 -0.1982 -0.1243  0.3310
12766W        W29027  11.755  16.165   3.947 -0.0494 -0.0405  0.0330
12767W        W29028  17.283   9.945  13.855 -0.2315  0.1349 -0.4349
12768W        W29029  16.624   5.469  15.912  0.1426 -0.0208 -0.1713
12769W        W29030   1.437   2.159  14.035 -0.0305 -0.1635 -0.2056
12770W        W29031  13.166   7.978  14.751 -0.0768  0.1036  0.0725
12771W        W29032  13.908   4.802   4.768  0.1791 -0.3214  0.1300
12772W        W29033  12.877   7.549   4.073  0.1030 -0.1654  0.2445
12773W        W29034  11.982  16.209  15.161  0.1641 -0.0092 -0.3946
12774W        W29035  15.653   9.902   4.188 -0.2015  0.1793  0.2310
12775W        W29036   2.106   3.554   3.966 -0.0972 -0.1854  0.1671
12776W        W29037  11.974  16.754  13.484  0.0545  0.1386  0.0123
12777W        W29038   1.172  12.800  14.354  0.1758  0.2716 -0.2264
12778W        W29039   4.048   4.285   2.697  0.3728  0.2989 -0.0320
12779W        W29040   4.714   0.779  16.077 -0.1653  0.2454  0.2423
12780W        W29041   7.597  12.630   3.868  0.2015  0.2319  0.1677
12781W        W29042  14.650  10.704   4.338 -0.3658 -0.1993  0.1764
12782W        W29043   5.763   4.676   2.320  0.1049 -0.0526  0.2276
12783W        W29044  13.289  15.956   4.694 -0.2238  0.0901  0.1385
12784W        W29045  15.040   3.685   0.681  0.0548  0.0289  0.0047
12785W        W29046  12.213  15.580   2.921  0.0266  0.2012  0.1503
12786W        W29047   0.944  16.368  11.544  0.0207  0.2006 -0.1151
12787W        W29048   5.710   4.526  14.427  0.0417  0.2448  0.0242
12788W        W29049   5.032   4.894  12.716  0.1472 -0.0184 -0.3068
12789W        W29050   4.665   1.458  15.699  0.1251 -0.0165 -0.0735
12790W        W29051   8.444  15.111   0.558  0.0552  0.4203 -0.0056
12791W        W29052  13.058  12.571   2.379  0.2696 -0.0745  0.0019
12792W        W29053   6.488  16.206  15.654 -0.0897 -0.0005 -0.0384
12793W        W29054   8.027   6.331   0.340  0.0814  0.1555  0.0407
12794W        W29055   7.864  12.761  13.377  0.0566 -0.1131 -0.0890
12795W        W29056   2.716   7.904  14.900  0.1462 -0.1411 -0.1108
12796W        W29057   2.061  12.906  16.609  0.0713  0.1458 -0.1728
12797W        W29058   3.494  11.421   1.516 -0.0004  0.6332 -0.0502
12798W        W29059  17.108   7.469   0.451 -0.1979  0.1211  0.0349
12799W        W29060   2.988  16.061   2.991 -0.0730 -0.0884  0.0476
12800W        W29061   5.460   1.012   3.314  0.1170  0.1116  0.1762
12801W        W29062   9.013  16.718  13.995 -0.2128  0.0380  0.0214
12802W        W29063  12.822   4.702  14.154 -0.1324  0.1943 -0.0660
12803W        W29064   7.471   7.677   4.142 -0.1606 -0.0571 -0.2612
12804W        W29065   0.539   2.506  11.932  0.1313  0.1937  0.1565
12805W        W29066   6.110   8.932   2.557 -0.2360 -0.2908  0.1213
12806W        W29067   8.001   6.268   6.015  0.1503  0.1932 -0.0155
12807W        W29068   1.334   6.826   5.420  0.2430  0.1599  0.2796
12808W        W29069  15.118  17.459   1.346  0.2063 -0.1725 -0.0525
12809W        W29070  13.550   0.144  14.779  0.0093 -0.1174 -0.0717
12810W        W29071  17.704  16.937  15.617  0.0921  0.3458  0.2435
12811W        W29072   7.559   4.201  12.573  0.3876 -0.2323  0.0285
12812W        W29073   6.171   6.865  14.011  0.1466  0.1799  0.0363
12813W        W29074  12.679   6.917  14.101  0.0639  0.0060 -0.1429
12814W        W29075  18.173   5.429  13.129  0.0883  0.0861  0.0079
12815W        W29076  11.333  18.102   2.530  0.4405  0.1894  0.4056
12816W        W29077   5.056   8.885   2.828 -0.0978  0.0213 -0.1307
12817W        W29078   9.555  10.887  12.564  0.4415 -0.1020  0.0030
12818W        W29079   1.872   4.848   5.712 -0.0022 -0.1405  0.1344
12819W        W29080   7.587  13.674   1.208 -0.0607 -0.0262 -0.3528
12820W        W29081   5.361  12.301   0.432  0.2249  0.0583  0.2010
12821W        W29082   0.708  10.364   5.328 -0.1749 -0.1725  0.0895
12822W        W29083   8.780  17.948  14.864 -0.3535 -0.2410 -0.1091
12823W        W29084  17.089  10.877   1.644  0.0062 -0.2751 -0.0208
12824W        W29085   7.593  12.156  15.077  0.2049  0.0323 -0.0084
12825W        W29086   7.265   0.257  11.945 -0.0004  0.0946 -0.1511
12826W        W29087  16.112  10.924  14.451  0.1137  0.2287 -0.1464
12827W        W29088   0.654   8.009  14.435 -0.0071  0.0020  0.1366
12828W        W29089   6.030   9.696   3.914 -0.0239 -0.1869 -0.1294
12829W        W29090   9.743  11.981   2.765  0.0190  0.2149 -0.1057
12830W        W29091   7.336  10.736  15.617 -0.2351 -0.0262  0.4533
12831W        W29092  14.928   6.059   4.634  0.3787 -0.0525 -0.0141
12832W        W29093   5.104  14.098   2.401  0.0693  0.2374  0.2992
12833W        W29094  14.625   2.351  12.299  0.0828  0.1159  0.0501
12834W        W29095   2.944  10.799  14.361 -0.0012 -0.2603  0.2450
12835W        W29096  11.860  15.360  12.558 -0.2789  0.0324 -0.1501
12836W        W29097   5.877   5.293  11.869 -0.1379  0.0395  0.1606
12837W        W29098   2.532  14.107  15.890  0.0209  0.0015  0.0467
12838W        W29099   1.449   1.150   0.740 -0.0991  0.1099  0.1520
12839W        W29100  13.345  17.029   4.430  0.1320  0.0459  0.0013
12840W        W29101   4.172   6.989  11.473 -0.1175  0.2162  0.0899
12841W        W29102   5.604  12.804  14.190  0.0601  0.0473  0.0279
12842W        W29103   0.655  13.161  14.341  0.0083  0.2353 -0.2676
12843W        W29104  11.512   2.229  11.413  0.0942 -0.0114 -0.1328
12844W        W29105  17.941   7.566   4.789  0.0585  0.1440  0.2836
12845W        W29106   2.709   0.916   1.096 -0.0607 -0.2989 -0.1429
12846W        W29107   0.962  14.405   4.464  0.1754 -0.0333 -0.0912
12847W        W29108  17.350   4.170  12.241 -0.1381  0.0987  0.2280
12848W        W29109  11.516  14.999  12.894  0.2213 -0.3565  0.2068
12849W        W29110  13.394  17.464  11.710 -0.2218 -0.1503  0.1030
12850W        W29111  16.389   9.353  15.846 -0.2003 -0.3782 -0.2304
12851W        W29112   9.110   7.400  16.107  0.0276  0.1026 -0.0016
12852W        W29113   7.810  16.510  14.406 -0.0941  0.0691  0.1434
12853W        W29114   5.333   2.090   3.005 -0.4877 -0.1838 -0.2880
12854W        W29115  11.944   6.262  14.615 -0.0324  0.1439 -0.0311
12855W        W29116  14.592  16.815   5.360  0.1454  0.0845 -0.1674
12856W        W29117   4.108   5.731   5.746 -0.0731  0.0657  0.1109
12857W        W29118   3.609   2.814  14.866  0.0960 -0.0058  0.2119
12858W        W29119   0.876   2.226   4.082 -0.0835  0.0367  0.0526
12859W        W29120   1.990   9.036   1.547 -0.2075 -0.0753  0.1031
12860W        W29121   2.787   2.398   4.513 -0.0362  0.1673 -0.2337
12861W        W29122  17.545   0.785  13.630 -0.4119 -0.2676  0.0501
12862W        W29123  11.967   2.400   5.011  0.2941 -0.1593 -0.0218
12863W        W29124  11.238  15.486  16.169  0.1515  0.0184 -0.0861
12864W        W29125  10.419   4.032  15.045  0.0401 -0.1241 -0.0761
12865W        W29126  14.361   0.664   2.863  0.0209  0.1360  0.2500
12866W        W29127  17.401   6.040   3.645 -0.0002 -0.0264 -0.0400
12867W        W29128   6.200  11.403   3.150  0.2423  0.3106 -0.0679
12868W        W29129  14.509  15.566  12.975  0.0617  0.0777  0.0640
12869W        W29130   4.291   3.046   4.401 -0.0903 -0.4359 -0.0323
12870W        W29131   7.588  10.792  15.124 -0.0563  0.0286 -0.0079
12871W        W29132  10.728  14.268   1.251 -0.1760 -0.2431  0.1341
12872W        W29133  10.884  17.055   1.915 -0.0817 -0.0169  0.1818
12873W        W29134  14.815   8.558  15.804 -0.0317 -0.0072 -0.0010
12874W        W29135   3.961  15.895   1.101 -0.0275 -0.0720  0.1329
12875W        W29136   8.838   6.279  15.634  0.2443  0.1307 -0.0961
12876W        W29137   4.679  16.677   5.024 -0.0565 -0.2088  0.0764
12877W        W29138  16.542   7.646  14.606  0.2698 -0.1540  0.1095
12878W        W29139  14.227   8.028   3.472  0.3500 -0.1634 -0.1092
12879W        W29140   9.895   8.976   0.997  0.0653  0.0142  0.0776
12880W        W29141  11.385   6.066   0.632  0.3950  0.0663  0.1562
12881W        W29142   5.518   4.613  12.939  0.4246  0.0032 -0.0083
12882W        W29143   5.604   2.491   4.897  0.2437 -0.1655 -0.2204
12883W        W29144   3.624   0.857  13.669 -0.0393  0.1687 -0.2123
12884W        W29145  12.510   2.367  11.799 -0.1187  0.1494 -0.2039
12885W        W29146   1.583   3.395   3.283 -0.1093  0.0612  0.0498
12886W        W29147  17.486  12.670   1.132  0.0280  0.4434  0.1373
12887W        W29148   4.761   8.936  11.331  0.0369  0.1085  0.1393
12888W        W29149   5.041  16.925  12.987  0.0599 -0.1208  0.2443
12889W        W29150   2.650  16.544  15.071  0.0210 -0.1322 -0.0271
12890W        W29151  16.575   0.865   0.249  0.2129  0.1092 -0.2610
12891W        W29152  18.157  10.766   5.277 -0.2129 -0.2455 -0.2510
12892W        W29153   1.271  13.504  16.139  0.2129  0.1754 -0.0229
12893W        W29154   4.567  17.555   3.419 -0.3035  0.3293 -0.0103
12894W        W29155   2.856   0.141   1.269  0.2659 -0.2659  0.0885
12895W        W29156  16.600   2.979  11.329  0.0437  0.0656  0.0421
12896W        W29157  11.442  15.970  12.865 -0.0946  0.0165  0.2430
12897W        W29158   7.484  12.625  14.366  0.1705 -0.2806 -0.1024
12898W        W29159  11.828  15.702  13.999 -0.1075 -0.2804 -0.5439
12899W        W29160   9.408   9.099  12.374 -0.1419  0.4506  0.2075
12900W        W29161  12.631   9.359  12.051 -0.0401  0.0035  0.3284
12901W        W29162   4.791  15.394  14.243 -0.0390  0.0529  0.0383
12902W        W29163  16.659   9.616   3.964  0.4825 -0.2967  0.1766
12903W        W29164   8.642   1.672   1.563  0.0287 -0.0533 -0.0371
12904W        W29165  12.364   4.532  13.491 -0.1404 -0.1025  0.0547
12905W        W29166  11.717   1.147   3.401  0.1749  0.0931 -0.3730
12906W        W29167  13.758   0.656  13.098 -0.0505  0.0146 -0.1026
12907W        W29168   6.998   2.404  13.952  0.2687  0.5470 -0.0101
12908W        W29169  13.627  13.546   2.167 -0.0285 -0.0610 -0.0112
12909W        W29170   2.478  12.754  14.738  0.0245  0.2311  0.6150
12910W        W29171   1.137   7.368   3.828 -0.1036 -0.2202  0.0968
12911W        W29172  16.633  10.455   0.792 -0.2285 -0.0428  0.0146
12912W        W29173   3.679   2.883   2.579  0.3914  0.0601  0.0458
12913W        W29174  12.550   4.980  10.895 -0.1045 -0.0506  0.1313
12914W        W29175   7.044  15.350   5.616 -0.3167  0.1346 -0.0070
12915W        W29176   4.460  15.466   0.153 -0.0953 -0.1382  0.3378
12916W        W29177   8.260  16.829   3.907 -0.1060 -0.2882  0.4691
12917W        W29178  13.168   3.684   5.317 -0.0358 -0.3776 -0.1621
12918W        W29179   7.205   8.794   3.013 -0.0204 -0.1023 -0.1647
12919W        W29180   8.314   2.641   3.139  0.1885  0.0611  0.1608
12920W        W29181  11.162  11.142  11.633 -0.1386  0.1592  0.0766
12921W        W29182   6.782   0.257   0.019  0.2474  0.0868  0.0585
12922W        W29183  13.473  10.027   0.341  0.2468  0.1103  0.0547
12923W        W29184   2.820  17.568  13.077  0.2859 -0.0648 -0.1400
12924W        W29185  17.905   2.282   6.032 -0.4481  0.0019  0.0520
12925W        W29186  18.178   7.697  12.513 -0.1646 -0.0651 -0.1382
12926W        W29187  14.592  12.420  14.973  0.3946  0.0798  0.2168
12927W        W29188  16.874  13.203   4.102  0.0657 -0.0010 -0.1883
12928W        W29189  11.645   9.568  14.380 -0.1586  0.0056  0.1051
12929W        W29190  11.736   9.411  12.555 -0.2502  0.1040  0.0369
12930W        W29191   6.592   9.456  11.368 -0.2675 -0.0527  0.1359
12931W        W29192   8.392  10.871  15.614  0.2814 -0.0910 -0.1245
12932W        W29193   3.029   4.790   0.538 -0.3006  0.1117  0.0466
12933W        W29194   9.958  14.523  10.619 -0.1527 -0.0171 -0.0754
12934W        W29195   7.423   7.310  14.458 -0.0169 -0.0749 -0.1452
12935W        W29196   6.973   3.268   3.757 -0.1399 -0.2891 -0.2021
12936W        W29197  12.869   4.809   2.698  0.0758  0.3293  0.0886
12937W        W29198  15.966   9.462  12.295  0.1037  0.1390 -0.1592
12938W        W29199  10.764   3.626   1.119 -0.0533 -0.5202 -0.1431
12939W        W29200   4.972   1.954  14.807  0.0461 -0.0708 -0.2164
12940W        W29201   0.489  12.247   0.666  0.0120 -0.5315  0.0428
12941W        W29202  13.875   3.889   2.216  0.2268  0.1126 -0.0662
12942W        W29203   0.694  17.807  13.086 -0.3350  0.2371  0.2305
12943W        W29204  16.564  15.892   3.246 -0.2609  0.2696 -0.0921
12944W        W29205   1.137  14.523   1.468 -0.2271 -0.0920  0.1519
12945W        W29206   5.424  10.610   2.132 -0.0590 -0.1649 -0.0990
12946W        W29207   1.072  10.946  12.428 -0.1059  0.0809  0.0842
12947W        W29208   3.536  14.339   4.283 -0.1039  0.2250 -0.0851
12948W        W29209   9.954  10.613  14.983 -0.0443 -0.0173  0.0517
12949W        W29210  14.733   7.075  11.502 -0.0157 -0.0457  0.3015
12950W        W29211   2.039  13.269  14.208 -0.0428 -0.0529 -0.0675
12951W        W29212  10.591  15.761   0.784  0.3887 -0.0798  0.2750
12952W        W29213  11.996   4.478   4.539 -0.0578 -0.1603  0.1011
12953W        W29214   5.594   1.583   3.037  0.0857 -0.0707 -0.0798
12954W        W29215  17.767  15.454   0.602  0.2951  0.3821  0.0913
12955W        W29216   0.859   1.745  11.504  0.1815  0.0094 -0.0447
12956W        W29217   5.935   8.274   4.360  0.1318 -0.1485  0.0421
12957W        W29218  14.868   3.240  11.330 -0.2217 -0.0900  0.2133
12958W        W29219   5.245  10.141   5.649  0.2591 -0.1283  0.0529
12959W        W29220   2.442  14.942  12.715  0.4101 -0.1367 -0.1171
12960W        W29221  13.371  17.720   3.053  0.1858 -0.0118  0.1284
12961W        W29222  12.583  16.501   4.424  0.1453 -0.1541 -0.0463
12962W        W29223   7.744  11.488   3.992 -0.1545 -0.1498  0.0569
12963W        W29224   3.974   5.884   2.155 -0.3319 -0.0726 -0.3401
12964W        W29225   2.970  17.564   4.437  0.1767  0.2778  0.0121
12965W        W29226  13.491   4.970  16.272  0.1705 -0.1441 -0.1977
12966W        W29227   7.738   8.946  12.684  0.2414  0.0921  0.2141
12967W        W29228   2.560   4.714  11.633 -0.1858 -0.3212 -0.0594
12968W        W29229   5.161   4.837  15.968  0.0313  0.4331 -0.0261
12969W        W29230  10.605   5.819  11.818  0.0201 -0.0247 -0.0203
12970W        W29231  16.844   4.541  15.348 -0.1587  0.0523 -0.3287
12971W        W29232   3.253  16.231  12.445 -0.1788 -0.0259 -0.0239
12972W        W29233  11.677  13.917  12.109 -0.1566 -0.0010 -0.0509
12973W        W29234   1.135  11.508   2.743 -0.0029  0.1333 -0.0184
12974W        W29235   3.950  12.570  15.761  0.2674 -0.0049 -0.0855
12975W        W29236   6.984   8.251   4.416  0.4840  0.1199  0.0600
12976W        W29237  17.712  13.740  15.817  0.3505  0.0515 -0.2903
12977W        W29238   4.327  17.997   1.463  0.0579 -0.2002  0.3448
12978W        W29239  17.640  10.000  15.374  0.1132  0.0350 -0.2620
12979W        W29240   9.263  15.578   2.820  0.0447  0.0665  0.0351
12980W        W29241   4.016  11.063  14.863  0.0212 -0.2893 -0.0329
12981W        W29242   4.356   3.978   5.752  0.2676  0.2253 -0.2798
12982W        W29243   9.524   8.550   5.796  0.3767 -0.1431  0.2088
12983W        W29244  15.876  18.164   2.869  0.1144  0.0857  0.4669
12984W        W29245  16.706   7.712  16.404  0.1466 -0.0205 -0.0121
12985W        W29246  16.543  17.124   5.519 -0.1900  0.2654 -0.2584
12986W        W29247   3.503   0.620  15.471 -0.0222  0.3527 -0.1972
12987W        W29248  12.117  15.931  16.579  0.0606  0.1797  0.2645
12988W        W29249  13.192  10.871  13.038 -0.1311  0.0130  0.2700
12989W        W29250   2.795   0.537   1.944  0.0878  0.0083  0.1866
12990W        W29251  10.163   5.377   4.255 -0.0201  0.2640 -0.1705
12991W        W29252   4.780   2.720  14.054 -0.4188  0.2081 -0.2198
12992W        W29253   0.862  16.723   3.978 -0.2024  0.0315  0.0829
12993W        W29254   7.328  13.172   0.424  0.0160  0.1760  0.1242
12994W        W29255   9.153  16.952   6.086 -0.1846 -0.0124  0.0376
12995W        W29256  16.521  12.337  15.467 -0.1400 -0.1273 -0.1263
12996W        W29257  16.677  11.780  15.295  0.1643 -0.4501 -0.1173
12997W        W29258   2.221  14.437  13.462 -0.6410 -0.0093  0.0985
12998W        W29259   1.941  17.477   3.247  0.0128 -0.1100  0.0970
12999W        W29260   0.976   2.059   1.513  0.1055 -0.1288 -0.0373
13000W        W29261   6.060   1.841   0.687  0.2851  0.6477  0.1612
13001W        W29262   9.526   7.975  12.029 -0.0890 -0.0631 -0.4479
13002W        W29263   8.150  10.815  15.186 -0.0365 -0.1482  0.0573
13003W        W29264   0.862  15.930   1.604 -0.3228 -0.0178 -0.0662
13004W        W29265  14.886   9.135   4.307 -0.0276 -0.1795  0.0918
13005W        W29266   6.675   6.123  14.583 -0.3128  0.0400 -0.1105
13006W        W29267  11.629   7.912   2.595  0.0098  0.2841  0.2019
13007W        W29268  15.833   9.154  11.865 -0.3636  0.1904 -0.1841
13008W        W29269  13.734   1.157  12.918 -0.1223 -0.2983  0.0008
13009W        W29270  17.842   1.089   3.950 -0.0193  0.0997 -0.0155
13010W        W29271  10.173   4.585  13.727 -0.1988  0.1273 -0.0380
13011W        W29272   1.283  14.263  12.385 -0.3373  0.0213  0.0986
13012W        W29273   9.184   6.748  13.636  0.0053  0.0770  0.0217
13013W        W29274   8.679   0.576  13.192 -0.4038 -0.2386 -0.3929
13014W        W29275   5.427   4.500   3.788 -0.1418  0.1760 -0.0057
13015W        W29276   9.722   2.476  14.815  0.1686 -0.2636  0.0060
13016W        W29277  16.485   8.977  13.293  0.2735 -0.0051  0.1490
13017W        W29278   3.512   2.375  12.875  0.0691  0.0893  0.0076
13018W        W29279   4.305   9.398  14.990 -0.1020  0.0639 -0.1131
13019W        W29280  15.905   9.509  13.130 -0.1632  0.1985 -0.2415
13020W        W29281   4.984   2.608   5.656 -0.2867 -0.0054 -0.3735
13021W        W29282  13.224   9.873   1.931  0.2729  0.6844  0.0924
13022W        W29283   6.920   2.393   2.147  0.1912 -0.1633  0.1486
13023W        W29284   9.750  13.092   0.059  0.0818 -0.1283  0.1551
13024W        W29285   4.310   0.693  14.676  0.3749 -0.0157  0.2523
13025W        W29286  17.833   7.696  14.122  0.1002  0.0860 -0.2238
13026W        W29287   0.443   3.699   6.220 -0.1110 -0.0858 -0.1345
13027W        W29288   1.720   0.318   5.465  0.2632 -0.0165 -0.4193
13028W        W29289   3.549   3.904   2.735  0.0701 -0.1805  0.1300
13029W        W29290   8.671  10.497   2.673 -0.1367  0.1627 -0.1911
13030W        W29291  16.209   1.699   4.295  0.0543  0.1409 -0.0944
13031W        W29292  13.300  16.125  16.576 -0.0121  0.1991  0.1302
13032W        W29293   8.352   0.017  15.061  0.4448 -0.1607  0.1429
13033W        W29294  17.696   7.646   4.362 -0.2557  0.1942  0.3527
13034W        W29295   1.975   0.172   0.334 -0.0711  0.0822  0.1789
13035W        W29296   2.410  15.084  15.011  0.0402 -0.0010  0.1144
13036W        W29297   6.735   0.807   2.809 -0.1049  0.3627  0.1531
13037W        W29298  14.821  16.160  15.445 -0.1183  0.1687 -0.2372
13038W        W29299  12.334   1.643  13.813  0.0251  0.2105 -0.1425
13039W        W29300   5.296   8.305  13.744 -0.3069 -0.1548  0.0171
13040W        W29301   3.917   3.237  12.399 -0.0261  0.1593  0.0005
13041W        W29302   6.310   2.238   4.438  0.2708  0.0497 -0.1247
13042W        W29303  13.669   3.474  16.033  0.0670  0.0305  0.0518
13043W        W29304  15.948  12.613   0.515  0.1595 -0.0441  0.1228
13044W        W29305   3.654   6.934  16.208  0.1874  0.0872 -0.0763
13045W        W29306   3.429   7.647  15.690  0.2367 -0.1986  0.3257
13046W        W29307  13.446   2.454  12.193  0.1799 -0.1747  0.0577
13047W        W29308   9.038  16.982  15.693  0.1646 -0.2542  0.0672
13048W        W29309   3.874   7.793  13.153 -0.1598 -0.0092  0.2118
13049W        W29310   7.866   3.352  13.934  0.0375  0.3963 -0.1853
13050W        W29311  11.922   6.799  13.644 -0.2429  0.1106  0.0108
13051W        W29312  15.425  17.551   3.263  0.0519 -0.1657  0.0175
13052W        W29313  15.149   3.370   6.200  0.0007  0.1124 -0.0229
13053W        W29314   5.004  16.242   2.995  0.0387  0.0239  0.0190
13054W        W29315   9.166  14.004  13.680 -0.0370 -0.4632 -0.4816
13055W        W29316  12.210   0.458   1.688 -0.1244 -0.0660  0.1005
13056W        W29317   3.510   6.038   4.668  0.2553  0.0930  0.0176
13057W        W29318   7.697  15.666  13.437  0.3154 -0.0105 -0.0013
13058W        W29319  15.556  11.929   3.986 -0.1281  0.0207 -0.0674
13059W        W29320  10.776   9.626   1.155  0.2987  0.0804 -0.0633
13060W        W29321   5.426   0.683  12.568  0.0434  0.1448  0.1020
13061W        W29322   4.350  10.859  16.121 -0.1770 -0.1478  0.2812
13062W        W29323  12.908  11.409   0.139 -0.2543 -0.1220 -0.2549
13063W        W29324  13.986  12.863   2.183  0.0215  0.0479  0.4023
13064W        W29325  10.730   8.732  16.131  0.2849  0.2174 -0.1353
13065W        W29326   3.185  10.053   2.282  0.0192 -0.1447 -0.0707
13066W        W29327   5.004   2.904  15.922 -0.2460  0.2005 -0.0790
13067W        W29328   0.802  15.870   4.878 -0.2635 -0.1893  0.1482
13068W        W29329  17.172  17.855  13.804  0.3535 -0.1759  0.2267
13069W        W29330  12.531   4.127  15.215 -0.0807 -0.1664 -0.0896
13070W        W29331   1.110  17.923  16.153  0.2869  0.0397  0.0596
13071W        W29332   4.803   7.298  13.073 -0.0149 -0.1427  0.0089
13072W        W29333   3.495   5.573   1.288  0.0527 -0.0800 -0.0867
13073W        W29334  11.367  12.304   5.211 -0.1888  0.3106 -0.2712
13074W        W29335  16.533   7.055  16.584 -0.1567 -0.0267  0.3198
13075W        W29336  17.310  17.435  15.030 -0.0996 -0.1137 -0.0367
13076W        W29337  12.616   4.259  13.966  0.1143 -0.0874  0.1596
13077W        W29338  15.519  17.150   1.481  0.1177  0.0899  0.0005
13078W        W29339  11.516  17.634  13.645  0.0457 -0.1676 -0.2558
13079W        W29340   0.260  14.737  13.443  0.0781 -0.3124 -0.0424
13080W        W29341  13.979   8.552  11.472  0.1815  0.0665 -0.0434
13081W        W29342   6.337  12.157  14.534 -0.0382 -0.1966  0.2451
13082W        W29343  16.452  12.184   4.374  0.1844  0.2794  0.0544
13083W        W29344  15.193   7.883   5.262  0.0077 -0.1964 -0.2827
13084W        W29345  13.751  14.338  12.188  0.0776 -0.2225 -0.0397
13085W        W29346  13.148  12.830   4.589  0.0347  0.1912  0.2493
13086W        W29347  15.116   9.388  15.358  0.1369  0.0487 -0.0239
13087W        W29348  16.766  10.010   5.129  0.1347 -0.0395  0.2843
13088W        W29349  10.501   0.529  14.480 -0.0587 -0.2161  0.2083
13089W        W29350   4.106   6.224   0.955 -0.0021  0.0283  0.1449
13090W        W29351   3.430   1.838  13.522  0.0090  0.0140  0.0871
13091W        W29352  16.433  14.009   4.690 -0.2191  0.0619  0.0424
13092W        W29353  14.513  13.032   2.387 -0.3037  0.1741  0.0250
13093W        W29354  15.983  10.737   0.122 -0.0131 -0.1831 -0.2219
13094W        W29355   4.652   0.881  15.546 -0.3158  0.0136  0.1514
13095W        W29356   5.420  10.284  15.829 -0.1399 -0.2788  0.1362
13096W        W29357   0.323  15.491  14.630  0.0586  0.1440 -0.4948
13097W        W29358   0.091   2.319  11.784  0.0211 -0.3899 -0.0032
13098W        W29359  14.969   0.436   0.362 -0.1522  0.0608  0.3051
13099W        W29360   7.561  13.174  14.993 -0.1613 -0.1208  0.3255
13100W        W29361   0.098  10.155   2.623  0.1438 -0.2174  0.1964
13101W        W29362   2.025   7.828  14.430 -0.0362 -0.1375 -0.2075
13102W        W29363   1.021   9.286   4.206  0.0055 -0.1902  0.2746
13103W        W29364   3.156  17.840   0.463 -0.0418  0.3814 -0.2986
13104W        W29365   6.648  10.797   3.826 -0.0597 -0.0187  0.2634
13105W        W29366   6.711  10.760  13.030  0.1630  0.0886  0.1178
13106W        W29367   2.266  14.919   5.359 -0.0693 -0.2488 -0.1352
13107W        W29368   3.061   6.668  15.473  0.0561 -0.1515 -0.3178
13108W        W29369  12.297   7.909  11.998  0.1283  0.3258 -0.1918
13109W        W29370  12.884  13.373   3.968  0.0269  0.1867  0.2059
13110W        W29371  16.705  11.324  13.567 -0.0616  0.2012 -0.0049
13111W        W29372   0.414  16.400  14.483 -0.0547 -0.3635 -0.1819
13112W        W29373   6.432   1.988  13.100  0.2503 -0.2847 -0.0726
13113W        W29374  13.415  17.867   2.510 -0.0878 -0.0823 -0.0551
13114W        W29375  16.839  17.494  15.734 -0.1284  0.1183  0.1893
13115W        W29376   8.673   5.149  13.687  0.1410 -0.1720 -0.2287
13116W        W29377  13.393  15.372   2.795  0.2084  0.1479  0.2844
13117W        W29378   2.008  13.134   2.957  0.0290  0.0980 -0.0863
13118W        W29379  15.869  15.889  16.448  0.1500 -0.3549 -0.1140
13119W        W29380  14.899   1.766  13.216 -0.0990 -0.0097  0.0038
13120W        W29381   2.160  11.358   3.930  0.0710 -0.1510 -0.0921
13121W        W29382   7.752  16.938  14.074  0.0853  0.0191 -0.2234
13122W        W29383   6.510  10.095  14.438  0.0559 -0.1788 -0.0238
13123W        W29384   9.373  11.742  11.630 -0.2499 -0.1496  0.2497
13124W        W29385   0.106   6.981   3.741  0.2370 -0.3289 -0.1897
13125W        W29386   4.195   2.492   0.856 -0.5215  0.4630 -0.3262
13126W        W29387  13.948   0.877   0.901  0.1531 -0.0543  0.2413
13127W        W29388  15.705  12.393   5.514 -0.1149 -0.0335  0.0456
13128W        W29389   4.249  17.528   5.627  0.0379 -0.2878 -0.2267
13129W        W29390   6.681  14.933   0.175  0.2058 -0.0570  0.2188
13130W        W29391  14.672   3.314   4.965  0.1061 -0.0902 -0.0310
13131W        W29392   8.399   5.512  15.126  0.0552 -0.0330  0.0639
13132W        W29393  13.290  15.941  15.435  0.0310 -0.2868 -0.0229
13133W        W29394   2.569  16.236  16.199  0.0620  0.1663  0.4212
13134W        W29395   2.663   6.603   3.168 -0.0631  0.0340  0.0261
13135W        W29396   9.032   7.993  12.285  0.2173 -0.1495  0.0206
13136W        W29397  16.345   5.016  15.609  0.1721  0.0439  0.0637
13137W        W29398   0.860  10.598  15.018  0.0956 -0.0591 -0.4724
13138W        W29399  15.291  12.476   2.053  0.2975  0.0193 -0.0114
13139W        W29400  16.536  15.730  11.803 -0.1383 -0.2870 -0.1715
13140W        W29401   6.025   1.281   3.304  0.0335 -0.2548 -0.1293
13141W        W29402  17.183  11.885  12.189 -0.0152 -0.1099 -0.2973
13142W        W29403   7.694  10.411  14.588  0.0400  0.2275  0.1331
13143W        W29404   7.658  13.348  13.455  0.0861  0.0831 -0.1423
13144W        W29405  10.133   2.416   1.776  0.1054  0.3129  0.1901
13145W        W29406   7.914   5.457   0.181  0.2269  0.0767  0.0505
13146W        W29407   3.253  12.923  15.377 -0.1146  0.0863 -0.5198
13147W        W29408   8.276   2.158   0.423 -0.0379 -0.1089  0.2314
13148W        W29409  17.565  12.494  12.944  0.3257  0.3137 -0.0791
13149W        W29410  14.435  17.958  14.496 -0.0194  0.1340  0.5623
13150W        W29411  16.923   5.655   5.468  0.2291  0.2243  0.2755
13151W        W29412  11.902   2.419  13.937 -0.0343 -0.0293 -0.0710
13152W        W29413   5.077  14.896  12.116  0.1850  0.0908 -0.3207
13153W        W29414   9.422  15.187   1.900  0.1597  0.2113 -0.3271
13154W        W29415  13.458   4.232   5.229 -0.2064 -0.0134  0.3111
13155W        W29416  17.940  13.704   4.553 -0.1868  0.2361  0.1024
13156W        W29417   0.869   1.530   2.443  0.1535 -0.0379 -0.2414
13157W        W29418   0.592   7.229   0.076 -0.0293 -0.1093 -0.3132
13158W        W29419  15.429   4.041   3.125 -0.1015 -0.1639  0.1145
13159W        W29420  14.598  16.440  14.473  0.0882  0.1788 -0.0740
13160W        W29421   2.995   3.294   1.468 -0.0167 -0.4606 -0.1265
13161W        W29422   5.875   6.103  12.580 -0.0080  0.2604  0.1955
13162W        W29423   2.509   8.874  11.630 -0.0721 -0.4890 -0.0907
13163W        W29424   2.760  14.507   4.143  0.2463  0.0292 -0.0074
13164W        W29425   8.268   2.984  11.735  0.1488  0.2766 -0.0649
13165W        W29426   3.626  11.461  15.577 -0.0292 -0.0420 -0.0297
13166W        W29427   9.342   6.485  11.453 -0.0830  0.3328 -0.0820
13167W        W29428   3.914   3.601  13.448 -0.1499 -0.0041  0.1398
13168W        W29429   7.454   4.653   3.867 -0.0071  0.2281  0.1483
13169W        W29430  16.164  10.887   2.730  0.5091  0.0772  0.0219
13170W        W29431  17.748  13.813   0.837  0.3013 -0.1615  0.0672
13171W        W29432  10.437   1.866   4.905  0.3206 -0.1697 -0.1488
13172W        W29433   9.504  13.334   0.371 -0.2125 -0.1522  0.0688
13173W        W29434   2.933   3.144   5.644 -0.2938  0.0010 -0.2551
13174W        W29435   7.778   5.324  16.379 -0.1480 -0.0112 -0.0030
13175W        W29436   5.039  12.946  14.422  0.1644  0.2666 -0.1958
13176W        W29437   5.242   1.751   2.646 -0.1143 -0.3639 -0.0099
13177W        W29438   0.428   2.392   2.727 -0.2496  0.1781  0.0999
13178W        W29439  11.713  11.294   2.973 -0.0367 -0.0990  0.2910
13179W        W29440   8.297  14.017   3.244 -0.2486 -0.5265 -0.1266
13180W        W29441  11.201   2.802  12.201  0.1309 -0.1817  0.1103
13181W        W29442   7.007  10.839   5.631  0.4491  0.2826  0.1208
13182W        W29443  11.183   7.400   0.241  0.1748 -0.1326  0.1916
13183W        W29444  15.649  11.945   5.612  0.1900 -0.1281  0.0305
13184W        W29445   9.266   3.822   1.372 -0.0888 -0.2036 -0.4475
13185W        W29446   8.474   0.767   2.166 -0.2321  0.0312 -0.0684
13186W        W29447  10.398   7.204   3.744  0.3256 -0.0756  0.1935
13187W        W29448  10.081   1.343   5.043 -0.2898  0.0999 -0.1181
13188W        W29449   2.877   6.074   2.788 -0.2816  0.3714  0.2156
13189W        W29450   6.267  15.022   6.837 -0.1446 -0.1521  0.1548
13190W        W29451   1.866  16.429   6.609  0.2184 -0.0319 -0.1044
13191W        W29452   5.647   5.675   6.605 -0.2594  0.0662 -0.1071
13192W        W29453   7.563  15.901   4.950  0.1387 -0.2065  0.0035
13193W        W29454   0.072  18.186   0.802 -0.2320  0.0685  0.1377
13194W        W29455   9.927   6.413   4.100  0.0451 -0.1348  0.0962
13195W        W29456   6.744  16.789  13.131  0.0117 -0.1727 -0.0967
13196W        W29457   6.188  10.292  12.397 -0.0904 -0.0692 -0.0784
13197W        W29458   9.523  17.728  13.019  0.0996  0.0744  0.0061
13198W        W29459  11.601   0.018  11.466  0.0996 -0.2559  0.0157
13199W        W29460  12.649  18.156   4.146  0.0295 -0.2143 -0.1254
13200W        W29461   0.192  13.302   1.239 -0.2363 -0.2519 -0.1788
13201W        W29462  14.728   8.632   4.605  0.0230 -0.0148  0.3483
13202W        W29463   9.911   7.617  14.551 -0.0035  0.0367  0.1033
13203W        W29464  16.028   5.676  16.495  0.0850 -0.0927 -0.0002
13204W        W29465  16.119   7.682  12.970  0.0288 -0.3148  0.1831
13205W        W29466   8.500   5.254  14.247 -0.2366  0.0095  0.4467
13206W        W29467   7.222   0.836   5.016 -0.2430 -0.1453  0.0892
13207W        W29468   9.570  16.050  13.113  0.0206  0.2792 -0.1818
13208W        W29469   5.189  17.599  15.190 -0.2411 -0.0787  0.1919
13209W        W29470   3.959   6.099   4.332 -0.0919 -0.0932 -0.1842
13210W        W29471   8.997  15.655  14.795  0.0237 -0.1368  0.3828
13211W        W29472   0.974   2.404  13.943  0.0333 -0.1699 -0.1733
13212W        W29473   1.251   3.324   5.049  0.2006  0.2651  0.2159
13213W        W29474  18.118  12.872   0.465 -0.0086 -0.2753 -0.1171
13214W        W29475   3.957   3.494  15.055  0.0097  0.0538  0.3240
13215W        W29476   4.197   6.868   2.158 -0.2268  0.0107 -0.0426
13216W        W29477   9.319   2.726   2.019 -0.0318 -0.1039 -0.3443
13217W        W29478  17.034  16.792   1.582 -0.0069  0.2913  0.0747
13218W        W29479  13.663  16.145  11.843  0.0153 -0.1726 -0.1281
13219W        W29480   9.219  17.873  15.515  0.0732  0.1893  0.1494
13220W        W29481   6.586   6.060   2.168 -0.1369  0.0049  0.2367
13221W        W29482   3.168   1.419   2.710  0.3184 -0.1475  0.3782
13222W        W29483   8.816   2.304   0.393  0.0773 -0.2077  0.0229
13223W        W29484   9.366   8.568  14.188 -0.2982  0.1052 -0.1344
13224W        W29485   3.236  14.707   4.009 -0.1593 -0.2134  0.1584
13225W        W29486   5.216  11.962  13.134  0.2056 -0.0330 -0.1708
13226W        W29487   2.927   8.140  16.373 -0.1315 -0.0835  0.1396
13227W        W29488  11.049  17.052  15.883  0.0253 -0.1087 -0.0325
13228W        W29489   8.421   1.203  11.885  0.0112  0.3535 -0.1697
13229W        W29490  13.886   3.217  13.956  0.0789  0.0600 -0.1001
13230W        W29491  14.562   1.202   4.883 -0.0211  0.1451  0.2566
13231W        W29492   8.153  15.542  15.796 -0.1113 -0.2832 -0.1231
13232W        W29493  17.375   7.149  15.864 -0.0737 -0.1057  0.1799
13233W        W29494   9.978  15.761   3.208  0.3456 -0.2452 -0.4569
13234W        W29495   5.111   6.873   4.632 -0.0676 -0.4639  0.0617
13235W        W29496   9.344  13.641   1.117  0.0523 -0.2573 -0.1625
13236W        W29497  16.938   3.438   4.124  0.0523 -0.0434  0.0299
13237W        W29498  12.130  16.664   2.085  0.2750  0.3447  0.2685
13238W        W29499  10.129   3.103   0.407 -0.1408 -0.2804  0.0904
13239W        W29500  10.209  16.899  14.978 -0.1402 -0.2035 -0.1033
13240W        W29501   2.729   7.354   4.317 -0.0351  0.1314  0.0785
13241W        W29502  11.791   9.988  11.605  0.0597  0.2233  0.1486
13242W        W29503   1.913  16.776  14.978 -0.1956  0.3910  0.2765
13243W        W29504  17.840   4.197   1.499 -0.1289 -0.1909 -0.2133
13244W        W29505  17.700  14.300  14.390 -0.1461 -0.1998  0.0682
13245W        W29506  15.001   4.551   1.523  0.4583  0.1604  0.2090
13246W        W29507   2.905   7.441   1.686 -0.2232  0.0370  0.1794
13247W        W29508   6.774   1.190  14.979  0.0366  0.0349  0.0905
13248W        W29509   9.879  11.949   4.759  0.1117  0.0111 -0.0269
13249W        W29510   0.539   8.985  15.948 -0.0023 -0.0691  0.0686
13250W        W29511   9.431  16.533   5.894  0.3205  0.0425  0.1219
13251W        W29512   5.503   3.112   1.549  0.1134  0.1488  0.0375
13252W        W29513  12.694   9.430   3.664  0.1943  0.1073 -0.0235
13253W        W29514   0.646   0.023  11.950 -0.1911  0.0147 -0.2004
13254W        W29515   1.295  16.017   0.567 -0.3015  0.1893  0.3721
13255W        W29516   8.078   1.413   0.745 -0.0403  0.0844  0.3011
13256W        W29517   4.859   7.177  15.465 -0.2006  0.1776  0.0378
13257W        W29518  10.637  10.706   4.351  0.1679 -0.3405 -0.2077
13258W        W29519   0.473   9.175   2.404 -0.0249  0.0886  0.4257
13259W        W29520   9.885  13.151   0.675 -0.1743  0.0369  0.0121
13260W        W29521  14.583  13.907  13.573 -0.1624 -0.0140 -0.4972
13261W        W29522  11.685   4.902   5.210  0.0139  0.3911  0.0812
13262W        W29523   9.324   8.025  11.559  0.1018  0.2669 -0.0467
13263W        W29524  18.111   7.605   6.105  0.0387  0.0758 -0.2329
13264W        W29525  12.897   6.490   3.180 -0.1311 -0.2621 -0.1081
13265W        W29526  15.565   7.034  16.304  0.0099  0.1682  0.2089
13266W        W29527   9.019  17.798  13.868 -0.3110 -0.1430 -0.1241
13267W        W29528  13.041  14.817  15.586 -0.1456 -0.1415 -0.0824
13268W        W29529  13.410   1.576   2.610  0.1189  0.1152 -0.0873
13269W        W29530   4.005  11.965  14.431 -0.0851 -0.4275 -0.0206
13270W        W29531   2.768   3.647   4.038 -0.0203 -0.1119  0.1228
13271W        W29532  12.436   3.076   1.069  0.3521 -0.2602 -0.2126
13272W        W29533   6.190  15.830  14.118  0.2884 -0.0109 -0.3188
13273W        W29534  12.774   5.678  11.745  0.2672  0.2823  0.2130
13274W        W29535  13.698  10.267   2.269 -0.2798  0.2077  0.1290
13275W        W29536   1.350   6.856  15.698 -0.1265  0.0286  0.2174
13276W        W29537  13.582   9.785   2.293  0.1476 -0.1515  0.1381
13277W        W29538   6.437  13.569  12.962  0.1156  0.1238 -0.0225
13278W        W29539   7.682  14.734  15.835 -0.0425 -0.1620 -0.0336
13279W        W29540   0.956   1.253   3.385  0.0922  0.1000 -0.0465
13280W        W29541   9.490  12.293   4.502  0.0283  0.0109 -0.2295
13281W        W29542   6.283   6.938   3.833 -0.1244  0.1101 -0.2312
13282W        W29543   3.538   3.274   5.494  0.1540  0.2368 -0.1535
13283W        W29544  15.564  11.320   3.459 -0.2414 -0.0604 -0.0784
13284W        W29545   6.750   8.031  15.417  0.0771  0.0987  0.0472
13285W        W29546  13.190   1.390  16.203 -0.0047  0.0108 -0.2185
13286W        W29547   8.711   6.312  12.675  0.1124  0.2280  0.1989
13287W        W29548  13.209   6.481   1.112  0.0852 -0.1247  0.2663
13288W        W29549  17.201   4.713  15.743  0.0283  0.0577 -0.1873
13289W        W29550  11.799   9.429  13.031 -0.1373  0.2470 -0.0161
13290W        W29551   5.228   0.723  14.832 -0.2235  0.0113 -0.2544
13291W        W29552   7.823   4.869  11.715  0.1384  0.1157  0.2722
13292W        W29553   8.089  11.150   2.154  0.1955  0.0777 -0.0475
13293W        W29554  12.148   7.694  14.473  0.0448 -0.5039 -0.1960
13294W        W29555   6.644   8.234  16.427  0.0201 -0.0738 -0.2321
13295W        W29556  11.015   9.802   4.024 -0.0490 -0.1729  0.2412
13296W        W29557   5.019   2.956  14.845  0.2097  0.0815  0.1617
13297W        W29558   5.152   3.283   5.196 -0.0056  0.0003  0.0291
13298W        W29559   1.735  12.943   6.017  0.1998  0.1091 -0.1246
13299W        W29560  15.040  14.845   1.129  0.1152 -0.0159 -0.1562
13300W        W29561   2.268   1.214  16.557  0.0042 -0.0968 -0.1710
13301W        W29562   6.907   4.254   2.432  0.1015  0.3753 -0.0039
13302W        W29563  18.035  15.175  16.066  0.1302  0.0697  0.2124
13303W        W29564  15.775   3.879  11.941  0.0955 -0.2684  0.0959
13304W        W29565   7.947  15.735  12.100  0.1726 -0.0127  0.2836
13305W        W29566  12.166  12.142  14.249  0.0627 -0.1214 -0.0489
13306W        W29567  11.768  16.174  12.001  0.0086 -0.1634 -0.0570
13307W        W29568   1.347   0.279   0.698 -0.0438  0.1579  0.1081
13308W        W29569  14.646   4.132  14.778 -0.3453 -0.1751 -0.1302
13309W        W29570   1.261   6.380  13.631  0.1576 -0.0901  0.4442
13310W        W29571   9.171   4.221   4.598  0.0038  0.1242 -0.0882
13311W        W29572   7.841  16.868   6.581  0.2638  0.0857  0.0270
13312W        W29573   8.850   2.838   4.718 -0.1202 -0.0557 -0.0085
13313W        W29574   9.226   6.498  10.968 -0.0460  0.2228 -0.0003
13314W        W29575  17.543   1.771   0.031 -0.0473 -0.1370 -0.2293
13315W        W29576   0.164  12.347   5.065  0.0653 -0.1378  0.0737
13316W        W29577  16.749   2.059  11.243  0.4995 -0.2302  0.2886
13317W        W29578  10.447   2.103   3.157 -0.0053  0.0889 -0.2333
13318W        W29579  17.836  13.690  12.117  0.3763 -0.1514 -0.2986
13319W        W29580  16.314  16.239   0.473 -0.0050  0.1370 -0.2582
13320W        W29581  14.361   9.434   3.615  0.3876 -0.0718 -0.4414
13321W        W29582  13.013   2.575   3.304  0.1205 -0.1423 -0.0876
13322W        W29583  10.227  11.339   5.481 -0.0376  0.0017  0.0873
13323W        W29584  13.030  11.860   4.340 -0.1112  0.0018  0.1956
13324W        W29585   1.185  11.728   5.636 -0.1811 -0.2181 -0.3132
13325W        W29586   4.968   4.066  12.128  0.0277 -0.1335  0.0342
13326W        W29587  12.883   0.855   4.797  0.3099 -0.0803  0.0542
13327W        W29588  16.758  14.529  13.174 -0.1965  0.2555  0.0276
13328W        W29589  14.652  17.761  11.213 -0.2451 -0.0344  0.1490
13329W        W29590  12.250   1.971  15.064  0.0106 -0.1463 -0.1011
13330W        W29591   8.168  14.714   1.654  0.3501  0.7009  0.0061
13331W        W29592   5.484   4.309   4.909 -0.2401  0.0069 -0.0927
13332W        W29593   2.783  10.788  12.549  0.0166 -0.0603  0.0357
13333W        W29594  12.284  13.997   4.642 -0.2819 -0.1869  0.1184
13334W        W29595   4.880   5.975   0.933  0.2377  0.1507 -0.0817
13335W        W29596  16.676  11.564   4.232  0.0023  0.0263  0.0151
13336W        W29597   1.403  17.270   3.929  0.1294 -0.2626  0.1950
13337W        W29598  11.913  17.596  12.321 -0.1553  0.2977  0.0009
13338W        W29599   9.970  17.128  14.250 -0.1655  0.2889  0.0772
13339W        W29600  13.763  12.582  16.601  0.1055  0.3132  0.0024
13340W        W29601   3.124  16.909  12.424  0.0157  0.0717  0.0509
13341W        W29602   8.808  16.954   3.751 -0.3705  0.0370  0.5088
13342W        W29603  12.808   7.360   2.762 -0.0883 -0.0738 -0.2011
13343W        W29604   7.166  15.577   4.566 -0.0330 -0.0592  0.2765
13344W        W29605  17.744  14.148   1.857  0.2287  0.2821 -0.0837
13345W        W29606  17.646  10.070   1.321 -0.1816 -0.0546 -0.2039
13346W        W29607   0.391  14.393   0.496 -0.2477 -0.1033  0.0132
13347W        W29608   6.864   6.567   2.279  0.2915  0.2949  0.0199
13348W        W29609  12.377   9.843   1.396 -0.5540 -0.0844  0.0725
13349W        W29610   2.201  13.355  15.824 -0.0268 -0.0953  0.0163
13350W        W29611  13.654   6.775   3.437  0.0041  0.1161 -0.0846
13351W        W29612  14.925   8.987   1.921  0.0403 -0.0030 -0.0018
13352W        W29613   2.078   8.194   0.038  0.0765 -0.2401  0.0508
13353W        W29614   4.604   0.878  13.283  0.3012 -0.2980  0.0754
13354W        W29615  12.637   4.704  12.378 -0.4553  0.2477  0.2114
13355W        W29616  15.454   2.195   0.930  0.0471  0.3914  0.1680
13356W        W29617  11.460   9.483   0.621 -0.0485 -0.0157  0.3033
13357W        W29618  15.022   9.984  15.418 -0.0822 -0.0637  0.0812
13358W        W29619  12.588   0.674  11.801  0.0237 -0.0439 -0.2315
13359W        W29620   3.691  10.280   5.536  0.0534 -0.2993 -0.0206
13360W        W29621  13.437   1.060  15.209 -0.3951 -0.1789  0.0950
13361W        W29622   7.943   5.314  11.411 -0.3199 -0.0898  0.0076
13362W        W29623   0.808   3.298  13.775  0.3329 -0.1059  0.0686
13363W        W29624  17.182   0.258  13.218 -0.0853  0.1554 -0.1384
13364W        W29625   6.561   9.669   2.335 -0.1333  0.1483 -0.0876
13365W        W29626  15.688   6.302  11.403  0.0430 -0.0536 -0.1339
13366W        W29627  13.144  13.176   0.592  0.1845 -0.1993 -0.0884
13367W        W29628  11.690   1.892   5.691 -0.0601  0.0309  0.1276
13368W        W29629  12.591  17.935  15.960 -0.1099 -0.0164 -0.3158
13369W        W29630   6.491  12.291  13.041  0.3663  0.2192 -0.2194
13370W        W29631  17.735  17.827   5.424 -0.1594 -0.1350 -0.0729
13371W        W29632  14.142   4.145  15.897  0.1514  0.5544 -0.0285
13372W        W29633  10.606  16.577  14.278  0.1045  0.1742 -0.2286
13373W        W29634   0.069  14.791   0.624 -0.1307  0.1639 -0.2205
13374W        W29635   4.421  16.188   1.196 -0.1230  0.0966  0.1180
13375W        W29636  15.683  17.977  12.606 -0.3865 -0.2530 -0.0267
13376W        W29637  14.922  10.883   4.706  0.2070  0.2742 -0.1432
13377W        W29638   2.368  15.806  13.505  0.1064 -0.0502 -0.0499
13378W        W29639  13.991   0.306   2.759 -0.1387  0.1114 -0.0012
13379W        W29640   1.394   0.332  12.635 -0.1973  0.1547 -0.2023
13380W        W29641   1.694  11.094   5.060 -0.3024  0.0152 -0.2008
13381W        W29642   0.080  12.666   3.735 -0.2057  0.5582 -0.0988
13382W        W29643   5.694   7.571  13.041 -0.0445  0.1905  0.0569
13383W        W29644   0.154   6.803  16.021 -0.0933  0.3224  0.0541
13384W        W29645  10.134   5.196  15.511  0.2680  0.0314 -0.5058
13385W        W29646   4.082  10.145   0.562  0.2424  0.1819 -0.0274
13386W        W29647   5.093   6.989  13.320 -0.0635  0.2841 -0.1394
13387W        W29648  11.874   4.718  16.311 -0.1507  0.2160  0.0059
13388W        W29649   0.092   3.394  11.088 -0.0186  0.1879  0.3095
13389W        W29650  12.352   5.069  13.653  0.2094 -0.2516  0.1429
13390W        W29651  10.939   8.732  11.459  0.0899 -0.0134  0.1270
13391W        W29652  17.582   1.155   5.637 -0.1376 -0.1377  0.1087
13392W        W29653   0.185  14.840   2.440  0.1459  0.4803  0.1282
13393W        W29654  15.348   7.962  11.534 -0.0770 -0.2812  0.5696
13394W        W29655  17.631  13.276   3.396  0.0215  0.2197  0.0967
13395W        W29656  15.480  11.839  13.576  0.0613  0.0280 -0.0434
13396W        W29657  16.135   4.232  15.984  0.0909  0.0153 -0.1987
13397W        W29658  13.348   8.259  13.774  0.2184  0.3013 -0.2539
13398W        W29659  11.309   5.782   3.005 -0.0718  0.3086  0.1230
13399W        W29660   2.388  10.703   4.595 -0.0930 -0.3489  0.0134
13400W        W29661  15.037  11.411   0.047  0.0667  0.1448 -0.1113
13401W        W29662  11.567   0.409  16.388 -0.1667 -0.2472  0.1939
13402W        W29663   4.788   2.473   5.172 -0.2778  0.1306  0.1191
13403W        W29664  16.411   4.115   5.368  0.0819  0.1274  0.0948
13404W        W29665  18.109  15.503  12.527 -0.0144  0.4039  0.2301
13405W        W29666  14.482   3.014   2.798  0.1029 -0.1547 -0.0067
13406W        W29667  10.693   6.030  15.415  0.1759  0.4818  0.0219
13407W        W29668   7.505   1.543   4.583 -0.0818  0.0690  0.1547
13408W        W29669  14.593  11.228   4.512 -0.0290  0.3930 -0.1421
13409W        W29670  17.587   5.591  15.938 -0.0465 -0.1695 -0.0804
13410W        W29671   2.516  13.816  12.326  0.2101  0.1038 -0.0522
13411W        W29672  10.917   5.518  11.414 -0.0513 -0.1857 -0.1393
13412W        W29673  17.910   4.331   3.532 -0.0447  0.1050 -0.4237
13413W        W29674  16.838  10.358  13.906 -0.1862  0.3236 -0.3492
13414W        W29675  14.848  12.113   2.145  0.2204  0.2090 -0.3293
13415W        W29676   0.670   9.417  14.746  0.3098 -0.2276 -0.2811
13416W        W29677   1.959  10.973  15.073  0.0150 -0.0530 -0.0597
13417W        W29678   1.887   0.466   2.365 -0.1997  0.1682  0.2496
13418W        W29679   1.284   2.229  16.176  0.0235  0.0171  0.0646
13419W        W29680  14.622  17.349   4.455  0.3777 -0.1183 -0.0914
13420W        W29681   7.140  15.636   0.645  0.1706 -0.2235  0.1860
13421W        W29682   6.625  13.311   4.750  0.2167 -0.0323  0.1222
13422W        W29683   7.285  10.404  15.241 -0.1642  0.1074 -0.2292
13423W        W29684   0.339  17.660   0.142 -0.0427  0.0117  0.0346
13424W        W29685   8.283  10.379   5.560 -0.0600  0.1344 -0.1080
13425W        W29686  14.088   6.856  16.171  0.2361  0.0411 -0.1194
13426W        W29687   2.890   5.735   2.276  0.1523  0.0162 -0.1755
13427W        W29688  13.462   5.374   3.209  0.0989 -0.1553  0.4596
13428W        W29689  11.323   6.448   1.942  0.2805  0.0157 -0.1139
13429W        W29690   8.639  15.774   5.715 -0.3161 -0.3400 -0.0202
13430W        W29691   0.025  10.881   4.813  0.0045 -0.0703  0.0208
13431W        W29692  15.174   4.328  15.993 -0.1971 -0.2288 -0.3343
13432W        W29693   6.506   3.411  12.790 -0.0526  0.0454  0.1492
13433W        W29694  15.329  13.569   6.019 -0.0216 -0.0318  0.1180
13434W        W29695   1.515  12.095   4.217 -0.2438  0.1855 -0.0725
13435W        W29696   8.846  14.458  13.981  0.3146 -0.1424  0.0913
13436W        W29697   9.611  11.197  15.713  0.1386 -0.2299  0.0911
13437W        W29698  15.089  11.865   0.359  0.1451 -0.2246  0.2720
13438W        W29699  12.218   2.328   3.930 -0.0545  0.2294  0.1726
13439W        W29700  10.418   3.373  12.165 -0.0994  0.1654  0.0645
13440W        W29701   6.328   2.526  15.254 -0.0477 -0.2828  0.2119
13441W        W29702   3.321  10.112   5.241 -0.2710 -0.1276 -0.0201
13442W        W29703   2.719  11.373  11.667  0.1618 -0.1050 -0.0234
13443W        W29704  17.175  17.693  10.983  0.0244 -0.0009  0.1628
13444W        W29705   9.853   8.160  12.327 -0.0253  0.2070 -0.3355
13445W        W29706  13.240   9.690   5.491  0.0883  0.1133  0.2745
13446W        W29707   6.231   7.759  14.820  0.1574  0.0072 -0.0572
13447W        W29708  12.615   6.105   2.778  0.2230  0.0404 -0.0757
13448W        W29709   4.602   5.598   5.792 -0.5526  0.1682 -0.0325
13449W        W29710  10.203   6.211  13.020 -0.0205  0.2362 -0.1535
13450W        W29711  17.916   4.088  14.071  0.1661 -0.1603 -0.1409
13451W        W29712  17.278   8.224  12.335  0.1493  0.1315  0.1160
13452W        W29713  13.669   5.686   0.775  0.2247 -0.0772 -0.1897
13453W        W29714   2.671  16.521   5.196 -0.2947 -0.0886  0.0591
13454W        W29715   3.030  15.632   1.245  0.3025 -0.1474 -0.0697
13455W        W29716   5.177  13.680  13.679 -0.0452 -0.0487  0.0232
13456W        W29717   3.765   0.623   4.777 -0.3125 -0.4716 -0.2311
13457W        W29718  12.843  11.080  16.378  0.0049  0.0325 -0.0348
13458W        W29719  17.153  15.333   3.530 -0.3788  0.1464  0.3037
13459W        W29720   7.222   0.805   3.905 -0.3231  0.0500  0.1720
13460W        W29721  10.449   8.416   3.212 -0.0180  0.1280  0.3192
13461W        W29722   1.842   3.992   0.712 -0.2118  0.1483  0.0809
13462W        W29723  12.718  12.792  11.970  0.2930 -0.0423  0.0730
13463W        W29724   4.279   7.959  15.743  0.2133 -0.1163 -0.0877
13464W        W29725   1.688   3.414  14.138  0.0785  0.0285  0.7336
13465W        W29726  10.181  12.370   3.347 -0.2551 -0.2638  0.1640
13466W        W29727  11.806  11.399  11.864  0.0087  0.1504  0.0667
13467W        W29728  13.760   1.633  10.946  0.1402  0.2675 -0.0369
13468W        W29729   9.216  14.343  11.684 -0.5313  0.2006  0.2564
13469W        W29730   7.457   9.204   3.165  0.0945  0.2245  0.3219
13470W        W29731   9.254   7.564   0.063 -0.1522  0.2849  0.1906
13471W        W29732  16.045   1.719  11.535  0.0663  0.3975 -0.0202
13472W        W29733   3.134  14.757   0.057  0.1313  0.2981 -0.1202
13473W        W29734   0.107  12.667  12.289  0.4026 -0.0070  0.0264
13474W        W29735   2.557  17.895  13.945  0.2215 -0.0142 -0.0677
13475W        W29736  11.465  10.338   3.075 -0.0485 -0.2538 -0.4689
13476W        W29737   5.041   1.730  14.029 -0.0512 -0.1083 -0.1389
13477W        W29738  14.908  17.040  15.138 -0.1056  0.0140  0.1886
13478W        W29739  12.306  15.829   0.641  0.0048 -0.1893 -0.0573
13479W        W29740   3.581  14.696   1.496 -0.0650 -0.1154  0.0814
13480W        W29741   3.972   7.864  15.262  0.3601 -0.0024 -0.1182
13481W        W29742   0.954   7.759   3.456  0.1155  0.1837 -0.0923
13482W        W29743  13.980  11.968   3.481  0.0236 -0.0117 -0.3640
13483W        W29744   5.705   0.376   3.837  0.0480  0.1825  0.1145
13484W        W29745   7.532   8.200  15.406 -0.1579 -0.0614 -0.0333
13485W        W29746  17.319   8.000   4.249 -0.2294  0.3100  0.0887
13486W        W29747  18.046  15.762   0.245 -0.0481 -0.1063  0.0818
13487W        W29748   3.147   5.140  12.708 -0.1779  0.1192  0.2456
13488W        W29749   4.168   2.349  12.028  0.1524  0.1287  0.2541
13489W        W29750   9.327  14.787   4.995 -0.1513  0.0158  0.0292
13490W        W29751   5.371  14.783  13.035  0.2838  0.0517 -0.0067
13491W        W29752   5.765  14.168  13.944 -0.2825  0.1130 -0.1149
13492W        W29753  16.908  17.182  15.235 -0.0063  0.0065  0.2442
13493W        W29754   1.079   1.220  11.706 -0.2590  0.0089  0.0509
13494W        W29755  10.811  16.861  14.622 -0.0393 -0.2261 -0.3028
13495W        W29756   7.047   8.420  14.136 -0.1466  0.1769  0.0527
13496W        W29757  17.104  14.981  16.564 -0.0532 -0.1875 -0.2421
13497W        W29758   5.794   7.851  14.519 -0.0216  0.1397  0.0861
13498W        W29759  11.367   8.962   1.128  0.2103  0.2110  0.0121
13499W        W29760  12.952   9.147  16.376  0.3049  0.2607  0.3033
13500W        W29761   2.024  10.918   3.272  0.0890  0.1533  0.0900
13501W        W29762  12.669   6.696   3.638  0.1836  0.0563 -0.0199
13502W        W29763   5.906   9.705  11.748 -0.0174  0.0767 -0.2387
13503W        W29764   0.438  17.740   6.527 -0.2708 -0.0713  0.0184
13504W        W29765  10.787   5.258  14.897 -0.1682  0.0720  0.2691
13505W        W29766   4.708   3.501   4.474  0.1443  0.0355  0.3866
13506W        W29767  11.065   8.784  14.407  0.1812  0.1592 -0.0205
13507W        W29768  12.976   3.819   3.840 -0.1285  0.1647  0.2549
13508W        W29769  11.484   1.153  15.327 -0.0977 -0.0097 -0.3934
13509W        W29770   2.001  14.053  16.091  0.1701  0.2641  0.1001
13510W        W29771  17.052   9.281   2.791 -0.0822  0.0367 -0.1013
13511W        W29772   6.492   0.641   2.367  0.1676  0.0194  0.0404
13512W        W29773   3.228  13.201  14.948 -0.0007 -0.1276  0.0472
13513W        W29774  14.263   0.814   4.892  0.1009 -0.1139 -0.0476
13514W        W29775   2.577   7.067   5.122 -0.4126 -0.1597 -0.0673
13515W        W29776  10.469   1.954  14.103  0.2839  0.0382  0.0878
13516W        W29777  18.015  15.928   1.799 -0.1360  0.0260  0.1939
13517W        W29778   6.607   7.154   3.490  0.0647  0.2713  0.0057
13518W        W29779   9.750  14.785  13.955 -0.0773  0.3408 -0.0417
13519W        W29780   1.967  15.091   0.759  0.1918 -0.0176  0.1483
13520W        W29781   5.306   2.589   4.533 -0.2739 -0.2489 -0.1975
13521W        W29782  17.218   5.003  12.440  0.0725  0.0163 -0.2879
13522W        W29783   9.967   3.439  13.946  0.2143  0.0304 -0.0149
13523W        W29784  12.264   0.737   2.086  0.0815 -0.0360 -0.1221
13524W        W29785   1.252  11.075   2.541 -0.2125  0.1033 -0.2103
13525W        W29786   3.099   9.531   3.110 -0.0196  0.0199  0.0684
13526W        W29787   4.952   3.481   0.661 -0.3434 -0.0321  0.0304
13527W        W29788   5.020  12.940  16.114  0.2446  0.0488  0.1359
13528W        W29789  15.600   4.890   3.696 -0.0891 -0.0060  0.1067
13529W        W29790   2.033  17.324  14.246  0.0692 -0.1185  0.0813
13530W        W29791   5.918  10.718  13.162  0.1082 -0.3837 -0.1127
13531W        W29792   3.123   4.758  14.109 -0.0055 -0.2596  0.0896
13532W        W29793   8.538   4.350  11.229 -0.1764  0.0317 -0.1533
13533W        W29794   8.158  11.295  12.198  0.2028 -0.2130 -0.4109
13534W        W29795  14.131   5.862  11.437 -0.2750 -0.1590  0.1739
13535W        W29796   5.889  17.088   2.867  0.1059  0.0525  0.1993
13536W        W29797  15.836   1.345  11.260  0.2146 -0.1042 -0.2958
13537W        W29798   2.372   2.011  12.066 -0.1692  0.1625  0.0705
13538W        W29799  15.376   7.602   1.144 -0.1935  0.1783  0.2707
13539W        W29800  13.604   8.420   4.237  0.0457  0.1517  0.0402
13540W        W29801  14.166   4.987  12.723 -0.1268  0.2348 -0.2542
13541W        W29802   1.501   0.740   2.568  0.0233  0.0510 -0.0377
13542W        W29803  13.516  17.065   0.494  0.2221 -0.2000  0.3533
13543W        W29804  15.771   5.493  15.174  0.0814  0.0235 -0.1897
13544W        W29805  16.720   1.250  16.549 -0.1403 -0.3996  0.1361
13545W        W29806   4.592  10.434  16.380  0.0289 -0.2853  0.1273
13546W        W29807  13.220  11.213  14.923  0.2253 -0.0109 -0.1524
13547W        W29808   9.414   6.269  14.848  0.0592  0.0870 -0.1965
13548W        W29809  16.733   0.880   2.075 -0.0710 -0.0135 -0.2846
13549W        W29810   7.622   9.301  16.091 -0.1618 -0.1492 -0.1337
13550W        W29811   3.762   6.937  15.627 -0.1330  0.0246  0.3239
13551W        W29812   1.961  15.092   2.574 -0.2270 -0.1022  0.0002
13552W        W29813  16.017   1.675   5.564  0.1145 -0.0748 -0.2491
13553W        W29814   4.884  12.623  15.266  0.0691  0.0622 -0.0462
13554W        W29815   2.856  13.080  15.848 -0.1041 -0.2911  0.2124
13555W        W29816   4.920  14.022   5.364  0.2091  0.0715 -0.2245
13556W        W29817   6.910  10.732  12.098 -0.0293  0.1059  0.0088
13557W        W29818  10.432   1.575   4.444 -0.0539 -0.2045 -0.2351
13558W        W29819   3.366  10.633  12.705 -0.1005  0.1916 -0.5541
13559W        W29820  16.510  13.481  14.686  0.1920  0.0450  0.2428
13560W        W29821  13.267   2.318  14.797  0.0619  0.1511  0.1044
13561W        W29822  10.974   8.681  13.323 -0.1036  0.2148  0.1723
13562W        W29823  16.935   8.502  15.709  0.0273 -0.0305  0.1725
13563W        W29824  10.848  10.417   0.152  0.1559  0.0924 -0.0890
13564W        W29825   0.398   6.707   2.462 -0.1173  0.4890 -0.0253
13565W        W29826   3.324   9.562   0.797 -0.0550 -0.1939  0.1761
13566W        W29827   4.055   0.254  14.885  0.0161 -0.1019 -0.3586
13567W        W29828  16.764   1.024  13.146 -0.1402 -0.2964 -0.3990
13568W        W29829   4.806   1.894   0.076  0.2611 -0.2472 -0.0660
13569W        W29830   8.208  10.360  12.872  0.2126  0.2099 -0.4102
13570W        W29831  16.671   4.941   5.188  0.1799 -0.0942 -0.0832
13571W        W29832   5.414   5.494   2.449 -0.0240 -0.1714  0.0665
13572W        W29833   0.092   4.230  11.925 -0.0611  0.0688 -0.0131
13573W        W29834   4.819  15.218  14.886 -0.1188 -0.2490 -0.0678
13574W        W29835   1.658   7.366   5.058  0.0227  0.0686  0.3249
13575W        W29836  13.894   0.050   1.564  0.0118  0.1335 -0.0019
13576W        W29837   7.825  14.407   4.325 -0.4245  0.1526  0.0791
13577W        W29838   2.012  12.639   1.540 -0.0153 -0.6049  0.0207
13578W        W29839  17.121   1.931  15.286  0.1947 -0.0315 -0.0234
13579W        W29840   1.972   9.045  16.218  0.2613  0.0908 -0.0217
13580W        W29841   8.646   0.951  13.647 -0.5423 -0.1257  0.1675
13581W        W29842   6.521   9.275  13.544  0.0241 -0.0584 -0.2189
13582W        W29843  15.737   7.985   1.367  0.4245 -0.0924  0.3791
13583W        W29844   6.648   8.611  12.931 -0.1237 -0.3645  0.0937
13584W        W29845   8.348  14.343   2.763  0.0264 -0.0154 -0.2973
13585W        W29846   0.360  13.815   1.484 -0.2529 -0.0283 -0.2179
13586W        W29847   8.663  14.697   4.858 -0.1498 -0.0364  0.0696
13587W        W29848   2.257   3.713  13.596  0.1009  0.0076 -0.0133
13588W        W29849  12.522   9.848   2.438 -0.0260 -0.2318 -0.0383
13589W        W29850  15.334   6.941  14.072 -0.1864 -0.0459 -0.0150
13590W        W29851  13.177   2.903  14.896  0.0085  0.3659  0.3917
13591W        W29852   7.133   2.538  11.773  0.1512 -0.0393 -0.0488
13592W        W29853   4.880  13.778   4.415  0.1051 -0.0064 -0.1696
13593W        W29854   4.644   0.414  12.120 -0.1019 -0.1178 -0.0019
13594W        W29855   9.633  11.386   5.223  0.0028  0.2032 -0.2025
13595W        W29856  10.138  15.330  15.932 -0.0318 -0.1727 -0.1396
13596W        W29857  17.148  11.910   4.926  0.2783 -0.0755  0.3940
13597W        W29858  13.957   9.435   3.940 -0.0225 -0.0872 -0.0788
13598W        W29859   3.102  18.067   6.461  0.0084  0.1882  0.0966
13599W        W29860   7.320  12.196  12.862 -0.0216  0.1874  0.1850
13600W        W29861   7.774   6.947  11.633  0.0450 -0.1941  0.3038
13601W        W29862  11.847   7.255   2.066 -0.2330  0.3419 -0.4058
13602W        W29863  14.947  16.136   3.699 -0.0593 -0.0543  0.0224
13603W        W29864   5.703   7.784  11.981  0.2223 -0.0410  0.0623
13604W        W29865  10.120  16.697  16.290 -0.0312 -0.1061  0.0249
13605W        W29866  12.483  17.182   3.553 -0.1626 -0.3530  0.1905
13606W        W29867   4.344   1.883  12.066 -0.4470  0.1116  0.4994
13607W        W29868   4.780  14.719   3.548 -0.0992 -0.0717 -0.0092
13608W        W29869   0.693   2.524   0.542 -0.2341  0.0353 -0.2458
13609W        W29870  17.764  14.566   5.197  0.1280  0.0114 -0.3711
13610W        W29871  10.588   6.671   4.639  0.0784  0.4217  0.1845
13611W        W29872   5.933   6.640   5.431  0.0247  0.0317  0.2313
13612W        W29873  16.607   8.025   1.593 -0.1485 -0.0948 -0.1918
13613W        W29874  12.986  11.468  15.897 -0.0774 -0.1628  0.0784
13614W        W29875  15.001   9.670  15.800  0.1356 -0.4008 -0.3119
13615W        W29876   6.224   2.400  11.807  0.2321  0.0109 -0.2311
13616W        W29877  10.221  16.928   2.591 -0.0122 -0.0005  0.2012
13617W        W29878  18.194   4.483  15.545 -0.1227 -0.3489 -0.0687
13618W        W29879   8.635  12.215   1.335 -0.3950 -0.0578 -0.0546
13619W        W29880  15.910   8.553  15.749  0.0722 -0.2070 -0.4668
13620W        W29881  10.852  16.886   0.108  0.1942 -0.1606 -0.1476
13621W        W29882   4.435   6.094  13.833 -0.1800 -0.0899 -0.0441
13622W        W29883  15.531  10.934   6.002 -0.0340 -0.0834 -0.0141
13623W        W29884  12.281   9.844   5.151 -0.0450 -0.0907  0.1484
13624W        W29885  12.327   8.411   2.515  0.2873  0.0906  0.0611
13625W        W29886   4.269   1.939   1.901 -0.0090 -0.0538 -0.2983
13626W        W29887   1.869  16.928  15.441  0.3025  0.1293  0.0198
13627W        W29888  15.425   9.116  13.600 -0.1419  0.0678  0.0737
13628W        W29889   7.368   8.991  15.230 -0.0353  0.3129  0.3084
13629W        W29890   6.736  17.926   1.993  0.0470  0.0448 -0.0955
13630W        W29891   8.050   6.734   3.707  0.4371  0.0927 -0.2609
13631W        W29892  15.558   4.734  14.660  0.0280 -0.1885  0.2490
13632W        W29893   0.589   8.855   3.285  0.0615  0.2745  0.1242
13633W        W29894   0.207  16.983  11.152 -0.1126  0.0404 -0.1437
13634W        W29895   7.848   9.721   2.322 -0.1654  0.1112  0.3122
13635W        W29896   2.240   3.646  12.545  0.1931  0.0679 -0.0857
13636W        W29897   2.558   6.143   1.265 -0.1209  0.2471  0.1952
13637W        W29898   2.600  10.772  16.345 -0.0256  0.0143 -0.0163
13638W        W29899   4.988  11.762   0.853 -0.1380 -0.3371 -0.1077
13639W        W29900  12.567   3.929   3.283  0.2344  0.2909 -0.0467
13640W        W29901  11.585  10.341   0.192 -0.1072 -0.2053 -0.1863
13641W        W29902  15.221  14.458  16.524 -0.0190  0.3212  0.1356
13642W        W29903  17.304   6.163   2.284  0.0401 -0.0535 -0.2538
13643W        W29904   5.547  10.189  13.903  0.0927 -0.1394 -0.3736
13644W        W29905  15.231   2.312  13.253 -0.0893 -0.0979 -0.0443
13645W        W29906  17.480  15.483   5.145  0.3069 -0.1046  0.0707
13646W        W29907   6.466  13.704  12.151 -0.3305 -0.0291 -0.1465
13647W        W29908   8.272  12.902  15.034 -0.2080  0.1717 -0.0354
13648W        W29909   8.046   7.301   1.723  0.1756  0.3160 -0.0035
13649W        W29910   6.502  15.625   1.357 -0.1504 -0.6265 -0.2861
13650W        W29911  17.542   6.893   2.211  0.0650 -0.2746  0.0952
13651W        W29912   4.334  12.015   4.679  0.2882 -0.3667  0.2436
13652W        W29913   6.802  12.285   5.551  0.0943  0.0336 -0.0021
13653W        W29914  15.143  10.338   0.839  0.0109 -0.3838  0.0186
13654W        W29915   9.615   0.321   2.288  0.2972  0.2017 -0.3966
13655W        W29916  17.755  12.939   4.673 -0.1390  0.1632 -0.2125
13656W        W29917  15.538   7.214   1.804 -0.0232 -0.2592 -0.0160
13657W        W29918   9.462   0.510   4.569 -0.1813 -0.0638  0.1125
13658W        W29919   5.359  18.016   3.806  0.1537 -0.2310  0.1714
13659W        W29920  13.857  18.117   2.480  0.1119  0.1083 -0.2641
13660W        W29921   1.223   1.694  14.359  0.0428 -0.1637  0.1517
13661W        W29922   6.019   4.098   0.487 -0.3176 -0.0561  0.0483
13662W        W29923   0.405   8.409   3.695  0.0637 -0.2447 -0.1368
13663W        W29924  11.125  10.640  14.587  0.2743  0.0653  0.3003
13664W        W29925  11.305   8.943   4.487  0.0133 -0.2496  0.0864
13665W        W29926  14.121  11.842   5.146 -0.0278 -0.0830 -0.0989
13666W        W29927   8.936   2.346  15.926 -0.1503 -0.0827 -0.2303
13667W        W29928  10.341  18.135   2.025 -0.1107  0.1301 -0.4393
13668W        W29929   2.808   4.279  13.135  0.0537 -0.0043 -0.0879
13669W        W29930   8.406   8.593   3.795 -0.1287 -0.1723 -0.0153
13670W        W29931  10.302  12.156   4.568 -0.0598  0.1637  0.0856
13671W        W29932   3.153   8.083   2.630  0.2645  0.0079  0.0530
13672W        W29933   9.991  14.079   0.199  0.4214  0.0539 -0.0709
13673W        W29934  18.133  15.527  11.740  0.0292 -0.2142 -0.1599
13674W        W29935   3.655   8.981  13.729  0.2188  0.1480  0.0854
13675W        W29936   5.353  10.428  15.291  0.2793 -0.0970 -0.0293
13676W        W29937  17.223   1.448  14.765 -0.2379 -0.1065  0.1463
13677W        W29938  12.222  15.382   5.138 -0.4879 -0.1186  0.1184
13678W        W29939   8.634   6.171  14.572  0.1459 -0.0533 -0.0681
13679W        W29940   0.637  15.075  15.168 -0.0438  0.1611  0.2851
13680W        W29941   4.773   7.817  15.546  0.1002  0.0479 -0.0495
13681W        W29942   4.669  14.706  11.945 -0.1248  0.0676 -0.1977
13682W        W29943  16.965   7.370   5.005 -0.0408  0.2119 -0.1161
13683W        W29944  13.579  10.690  16.254 -0.1598  0.1863 -0.0921
13684W        W29945   3.977  11.687  13.102  0.0830  0.1238 -0.2514
13685W        W29946  17.276  17.664   5.663  0.4183 -0.1084 -0.0574
13686W        W29947  10.867  10.866  13.618 -0.0608  0.0398 -0.0307
13687W        W29948  10.495  15.090  16.151  0.0046  0.2139 -0.1942
13688W        W29949   6.962   0.630  16.383  0.1459  0.1486 -0.0268
13689W        W29950   8.046  13.429  11.687 -0.1659 -0.0319 -0.1011
13690W        W29951   8.381  11.928   3.737  0.0970 -0.0561  0.0560
13691W        W29952   1.491   4.289  14.744 -0.1090  0.0418  0.0978
13692W        W29953  15.544   3.099   2.499 -0.1730 -0.1072  0.2022
13693W        W29954   3.015  17.668  12.017  0.1334  0.1331  0.1818
13694W        W29955  13.363   0.961   3.528  0.0403 -0.0395  0.1865
13695W        W29956   8.549   2.401  15.598 -0.0773  0.0966 -0.0717
13696W        W29957   7.866  15.292   1.749  0.2110 -0.1393 -0.0493
13697W        W29958   6.565   1.212   6.111 -0.1246  0.2096  0.1347
13698W        W29959   9.159   1.939  15.394 -0.0017  0.1712 -0.0789
13699W        W29960   2.878  14.737  11.722 -0.0152  0.1593 -0.1047
13700W        W29961   9.978   0.839   1.611 -0.1384 -0.0869  0.1524
13701W        W29962   8.789  11.776   1.075 -0.1606 -0.1014  0.1586
13702W        W29963   4.928   9.348  12.879  0.0120 -0.1392 -0.0873
13703W        W29964  10.295   3.778  14.583 -0.3481 -0.2270 -0.1159
13704W        W29965  10.348  16.262   5.608 -0.1165  0.0208 -0.1820
13705W        W29966   7.963   2.280   4.961 -0.2369 -0.3737 -0.0280
13706W        W29967  10.580   1.607   2.991  0.0846  0.2490  0.0514
13707W        W29968  14.092  17.640  14.690 -0.1047  0.3420 -0.0597
13708W        W29969   6.201   0.639   1.502 -0.0910 -0.0919 -0.0538
13709W        W29970   7.053   2.156   2.552 -0.2454  0.0157  0.2143
13710W        W29971   5.563  15.310  14.783 -0.0826 -0.1538  0.0006
13711W        W29972   0.168   5.430  14.617 -0.5323 -0.0798 -0.1327
13712W        W29973  10.023  10.388   6.018 -0.0669  0.0987 -0.0386
13713W        W29974  13.672  10.192  15.664 -0.0251  0.3273  0.2961
13714W        W29975  12.972  14.196   5.554 -0.3197  0.0889  0.0466
13715W        W29976  13.046   6.383   2.257 -0.2272  0.1795  0.3791
13716W        W29977   1.249  14.699   1.944 -0.1206  0.3000 -0.0563
13717W        W29978   5.680   1.608   4.621  0.1000  0.1189  0.3485
13718W        W29979  14.365  15.653  13.917 -0.0525 -0.1127 -0.1305
13719W        W29980   9.902  17.943  11.320  0.1681 -0.0929 -0.0206
13720W        W29981   6.075  15.688  12.709 -0.4089  0.4210  0.0601
13721W        W29982  10.001  10.542   4.654 -0.1511  0.1278 -0.0789
13722W        W29983   7.360   1.024  12.893  0.1892  0.0929 -0.1957
13723W        W29984  12.069  10.346   1.519 -0.2688  0.1436 -0.2799
13724W        W29985  18.041   6.635   0.097 -0.1225 -0.0270 -0.0391
13725W        W29986   1.889   9.778   0.010 -0.0550 -0.1685  0.0352
13726W        W29987   9.809  16.033   4.694  0.0474 -0.2383  0.0612
13727W        W29988   6.335   1.453   1.650 -0.0892  0.1325  0.0721
13728W        W29989  15.698  10.753  14.192  0.0662  0.1121 -0.2182
13729W        W29990  17.080   5.130   2.091 -0.0509 -0.0108 -0.1524
13730W        W29991  13.995   5.452  16.333 -0.1714  0.2620 -0.1870
13731W        W29992   4.151   4.051   0.525 -0.1455  0.0679 -0.0525
13732W        W29993   1.765  10.757   0.240  0.0387 -0.1715  0.0362
13733W        W29994   7.607   5.152   1.558  0.0411 -0.0739 -0.0074
13734W        W29995   6.850  12.145   1.199  0.1598  0.0825 -0.1118
13735W        W29996  13.223  11.798  12.679 -0.1723 -0.0508  0.0046
13736W        W29997   0.692  16.601   0.562 -0.0845  0.2200 -0.2410
13737W        W29998   2.048   0.149   5.157 -0.2404  0.0538  0.1189
13738W        W29999   7.113   6.289   5.917  0.1212  0.2844 -0.2052
13739W        W30000  11.877  10.239   2.576  0.0128 -0.0510 -0.3002
13740W        W30001  11.334   7.979  11.142  0.0967 -0.0154  0.0742
13741W        W30002  16.051  12.226   4.732  0.3520 -0.0396 -0.2457
13742W        W30003   7.868   5.821  16.323  0.0408  0.0294 -0.0714
13743W        W30004   2.663   4.130  12.710  0.1576  0.1663  0.0834
13744W        W30005   6.534  15.590  11.007 -0.2883  0.0907 -0.0387
13745W        W30006  10.346   6.776   3.490 -0.1138  0.3003  0.0358
13746W        W30007   9.934  13.538  14.102  0.1251 -0.1168  0.2582
13747W        W30008   9.028   8.627   1.491  0.0829  0.4429 -0.0915
13748W        W30009  14.911   4.472  11.131  0.0960 -0.2200 -0.1930
13749W        W30010   5.544   6.664  16.322 -0.0771  0.0117  0.0449
13750W        W30011   2.291  14.217   0.744  0.1002 -0.1191  0.2581
13751W        W30012  11.283  13.031   1.675  0.1031 -0.2374 -0.3584
13752W        W30013  10.939   1.126  11.585  0.0391 -0.0832 -0.1620
13753W        W30014  13.346   3.559  16.537  0.0797  0.0418  0.0694
13754W        W30015   9.622  11.181  14.992 -0.2104 -0.0073  0.2298
13755W        W30016   0.077   9.545  11.510 -0.0373 -0.0615 -0.0449
13756W        W30017   2.820   2.982  14.153 -0.1612  0.0949 -0.1359
13757W        W30018  13.300   7.280  16.589  0.2778  0.1706 -0.1778
13758W        W30019  15.435  18.094   4.480  0.0040  0.1760  0.0409
13759W        W30020  12.345   1.488  14.996 -0.0163 -0.1689  0.0850
13760W        W30021   3.542   4.575  14.418 -0.1470  0.0428 -0.0647
13761W        W30022   1.214   0.962  13.480  0.0093 -0.2029  0.1693
13762W        W30023   4.736  15.250   0.554  0.2227  0.0680  0.1072
13763W        W30024   0.259   5.971   4.472  0.5284 -0.1757  0.1681
13764W        W30025  10.079   6.423   0.351  0.4106  0.0788 -0.4128
13765W        W30026   6.452  12.585  13.989 -0.1898 -0.1446  0.1470
13766W        W30027  14.292   2.871   3.983 -0.0471  0.2287  0.2471
13767W        W30028   6.846  15.576   3.099 -0.3654  0.0879  0.1896
13768W        W30029   5.234  12.471  12.362 -0.0926  0.0931 -0.0194
13769W        W30030  13.074  13.874  15.501  0.1220  0.1991  0.1311
13770W        W30031  17.784   2.616  14.259  0.2154 -0.0192  0.0912
13771W        W30032  11.248  15.025  14.837  0.0174 -0.1025 -0.0394
13772W        W30033  15.396  16.087   2.455  0.0353 -0.1732 -0.0007
13773W        W30034  16.572   9.364  14.168 -0.1231 -0.0183  0.0516
13774W        W30035   7.584   7.486   1.850 -0.1083  0.0403 -0.0651
13775W        W30036   9.606  15.097   2.564 -0.1265  0.1184 -0.0832
13776W        W30037   4.732   4.078   1.427  0.1004 -0.0725 -0.1761
13777W        W30038   3.128   2.124  15.928 -0.1952 -0.2010 -0.0257
13778W        W30039  14.165  16.142   4.186 -0.2286 -0.2455 -0.0224
13779W        W30040   3.931   5.800   1.220 -0.2533  0.1949  0.2177
13780W        W30041   1.817   2.591   4.865  0.0198 -0.0675  0.0096
13781W        W30042  13.509  13.807  16.206 -0.2922  0.0295  0.2414
13782W        W30043   8.721  13.739   2.252  0.2117  0.3268  0.0793
13783W        W30044   5.964   4.428   4.707 -0.1204 -0.1606 -0.1319
13784W        W30045   2.498   7.802   3.891  0.3248 -0.0756  0.0006
13785W        W30046  11.310   0.746  16.621  0.1777 -0.2772 -0.3651
13786W        W30047  14.192  15.613  15.034 -0.1355 -0.2654 -0.1454
13787W        W30048   9.112   1.359   4.010 -0.0149  0.0295 -0.1104
13788W        W30049  15.503  14.804  15.518  0.3070  0.2119 -0.1061
13789W        W30050   1.689   0.711   3.278  0.4446 -0.1293 -0.3927
13790W        W30051   0.610  15.270   3.601 -0.0282  0.1861  0.1301
13791W        W30052   0.920   5.285  16.033  0.2249 -0.0428  0.3114
13792W        W30053  17.949  12.147   5.364 -0.0276 -0.0526  0.1994
13793W        W30054  13.783   4.823   0.091  0.2526  0.3422  0.2916
13794W        W30055   1.691   5.426  13.020  0.3405 -0.0042 -0.3315
13795W        W30056   3.482  17.355  16.290 -0.2405  0.1859  0.1097
13796W        W30057   1.928   6.355   6.593  0.0556  0.1897  0.0182
13797W        W30058   6.711   8.402   2.569 -0.1597  0.3594 -0.0441
13798W        W30059   1.330  14.067   3.795 -0.0443  0.2724  0.5093
13799W        W30060  15.074  10.041   2.652  0.1083  0.4604 -0.0257
13800W        W30061  15.773  10.693  11.411  0.1226  0.1005 -0.1396
13801W        W30062  10.491  14.438   4.494  0.0716 -0.0770  0.1799
13802W        W30063   9.310   4.339  15.581  0.0404  0.0050  0.0364
13803W        W30064   8.650  18.172   5.361  0.1987  0.3811 -0.0034
13804W        W30065   8.084  10.676   6.141  0.0442 -0.3799 -0.1603
13805W        W30066  13.736  17.590  10.280  0.0398  0.1878  0.2794
13806W        W30067   2.326  11.730  11.743 -0.0755  0.1837 -0.5504
13807W        W30068   0.549   1.576  13.635 -0.0433 -0.1532  0.2978
13808W        W30069  14.252   5.019   0.724  0.0991 -0.3405  0.0969
13809W        W30070   1.913   9.012  12.434 -0.0116 -0.0179 -0.0442
13810W        W30071   4.688  11.656  14.809 -0.2549  0.1883  0.1575
13811W        W30072   2.178   8.425   4.052 -0.0480  0.1230  0.0284
13812W        W30073  12.458   7.324  16.283  0.1943 -0.1336  0.0373
13813W        W30074   2.290   1.240   1.149 -0.0157  0.2861 -0.3519
13814W        W30075   5.739  16.055   4.905 -0.0640 -0.0866 -0.0959
13815W        W30076   8.825   9.729  14.335  0.0531 -0.0895  0.0620
13816W        W30077   4.057   8.270  13.095  0.2679  0.0871  0.0127
13817W        W30078   0.756  12.711   0.778 -0.0603 -0.1117  0.1017
13818W        W30079  11.611   6.795   3.678 -0.1752 -0.1458 -0.0920
13819W        W30080   8.626   3.009   3.260  0.0310  0.4425 -0.1674
13820W        W30081  11.021  12.484  15.584 -0.0370  0.1641  0.0594
13821W        W30082   2.286  14.904   6.619 -0.0790 -0.1481 -0.0692
13822W        W30083  17.363   6.506  12.448  0.1802  0.0574 -0.1142
13823W        W30084   9.147   8.549   2.805 -0.0701  0.3850  0.1307
13824W        W30085  18.026   4.676  13.254 -0.1288 -0.2238 -0.3197
13825W        W30086  17.089  10.209  15.158  0.1020 -0.2362 -0.0069
13826W        W30087  17.199  16.193   0.978  0.1235 -0.2524  0.2115
13827W        W30088   7.208   0.118  16.386  0.1595  0.1239  0.4245
13828W        W30089   5.611  12.627   0.903 -0.1088 -0.2914  0.3422
13829W        W30090   8.356  17.664  14.419  0.1425 -0.1815 -0.2400
13830W        W30091   6.121  12.160   0.817  0.1180  0.0065 -0.0435
13831W        W30092   1.308  16.492   4.314  0.1628 -0.2230  0.3469
13832W        W30093  10.626  12.038  14.309 -0.1053  0.2484 -0.0575
13833W        W30094   9.491  10.655  14.844  0.2467  0.0944  0.1179
13834W        W30095  16.335  11.975  16.384 -0.0381  0.0036  0.3305
13835W        W30096  10.781  15.802  16.522 -0.1695 -0.1603  0.0760
13836W        W30097  16.483   0.725  12.198 -0.1694  0.0671  0.0255
13837W        W30098  16.423  13.579   1.863 -0.3993 -0.3276 -0.1938
13838W        W30099   9.007   8.491  14.581  0.0511  0.0547  0.1040
13839W        W30100  12.213  15.005   2.409  0.0115 -0.0998  0.0451
13840W        W30101   7.790  10.335  13.987 -0.1045  0.0263 -0.0962
13841W        W30102  11.054  10.698  15.627 -0.0827  0.0138  0.0610
13842W        W30103   8.767   9.444   0.576 -0.1264 -0.1187  0.0096
13843W        W30104  14.273   5.120   3.622 -0.0970 -0.1124  0.1910
13844W        W30105   7.288   6.734  15.389 -0.0981  0.2560  0.0503
13845W        W30106   7.703   1.647   5.388 -0.2740 -0.0851 -0.0034
13846W        W30107   2.643   0.427  15.713 -0.4385  0.1004  0.0470
13847W        W30108   6.356   3.405   4.769  0.1763  0.0910 -0.1864
13848W        W30109  14.294   3.564  11.670  0.0593  0.1633 -0.2479
13849W        W30110   1.031  17.483   2.510  0.3301  0.3347 -0.2133
13850W        W30111  17.245  16.542   4.212 -0.4403 -0.2414  0.2567
13851W        W30112  15.737   2.800  11.395  0.1749  0.2374  0.2564
13852W        W30113  13.038   1.272   0.116  0.0944  0.0968 -0.3115
13853W        W30114   8.107  17.589   1.181 -0.0499 -0.0525 -0.0668
13854W        W30115   2.977   3.801   4.913 -0.0105 -0.0335 -0.1966
13855W        W30116  13.822  18.054   0.644 -0.2163 -0.1858 -0.1415
13856W        W30117   9.767  10.868   1.808  0.0323 -0.0246  0.2953
13857W        W30118  18.139   6.861   4.239 -0.2381 -0.0421 -0.0336
13858W        W30119  17.333  18.041   1.183  0.1030 -0.1367  0.2441
13859W        W30120  15.249   1.961  10.893 -0.0066 -0.3222  0.1507
13860W        W30121   8.166  15.622   3.400 -0.0760 -0.1219  0.2733
13861W        W30122   0.986   7.229   4.251  0.5032  0.0277  0.1015
13862W        W30123   0.194  11.037   4.194 -0.2590  0.0273 -0.4233
13863W        W30124   9.498  14.770  12.852  0.1882 -0.2632 -0.1279
13864W        W30125   8.488  14.836  13.891 -0.0660 -0.1767 -0.1827
13865W        W30126  16.788  15.254  15.131  0.0293  0.2976  0.0533
13866W        W30127   8.793  11.669  11.580  0.2771  0.0884 -0.3182
13867W        W30128  13.470   5.251   0.095  0.3117  0.0350  0.0997
13868W        W30129   4.874   6.958  12.589 -0.0304 -0.1533 -0.0688
13869W        W30130  15.977  11.691  11.104  0.1572 -0.2862  0.3036
13870W        W30131   8.292  18.035   2.503 -0.0209  0.0555 -0.2393
13871W        W30132   0.776  13.082   5.038 -0.0146  0.2944  0.1048
13872W        W30133   4.439   9.642   1.286  0.4697 -0.0065 -0.2368
13873W        W30134   8.707   9.415  15.698  0.0294 -0.0105 -0.0704
13874W        W30135   0.173   1.038   4.191 -0.0664 -0.4513 -0.0107
13875W        W30136   3.691  15.993  16.008 -0.1415 -0.0775  0.1876
13876W        W30137   7.126   1.920  14.329  0.2267 -0.0474  0.0245
13877W        W30138   0.109  10.092   4.660  0.0544 -0.0035  0.2350
13878W        W30139  12.604  12.882   1.401 -0.0035 -0.1124 -0.0584
13879W        W30140  14.640   8.550   3.700  0.0982  0.1506 -0.1382
13880W        W30141   9.648  15.913   5.239  0.2603  0.0143 -0.0284
13881W        W30142  15.669  12.388  15.851 -0.3083  0.1366  0.0965
13882W        W30143  11.783   4.975  12.505  0.0481  0.0981 -0.1816
13883W        W30144   7.501   0.819   0.086  0.1598 -0.3612 -0.2439
13884W        W30145  15.602   9.216   1.622 -0.0336 -0.1263 -0.0862
13885W        W30146  15.227   3.986   2.620  0.2221  0.0193 -0.0537
13886W        W30147   9.155  13.754   0.647 -0.0746  0.1754 -0.0933
13887W        W30148  14.729  12.967  13.741  0.2227  0.1241 -0.0214
13888W        W30149  16.037  15.376   4.074 -0.1559  0.4403  0.2149
13889W        W30150  12.911  12.002   3.243 -0.3309  0.0965 -0.4278
13890W        W30151  10.287   6.814   2.981 -0.2543 -0.4034 -0.0058
13891W        W30152   0.991  11.642  12.953 -0.4015  0.1284  0.0511
13892W        W30153  11.722   4.371   1.374 -0.0713 -0.0798 -0.1350
13893W        W30154   6.589   6.668   5.242 -0.1285 -0.3567 -0.4963
13894W        W30155  17.063  16.114  15.704  0.2300 -0.0719 -0.2217
13895W        W30156   2.459   4.023   3.963 -0.1601  0.0563 -0.1802
13896W        W30157   1.937  17.935   4.863 -0.1052 -0.1963 -0.0288
13897W        W30158  13.563   9.295   3.712 -0.1264 -0.1457 -0.1137
13898W        W30159  16.161  13.073  13.447 -0.0937  0.2049 -0.1344
13899W        W30160   1.051   3.890   3.093  0.0631  0.5064  0.3251
13900W        W30161   8.429  10.396   2.269 -0.1501  0.1442 -0.1957
13901W        W30162   1.459   2.174  12.175 -0.2048 -0.0950  0.0684
13902W        W30163   3.903   6.215   5.664 -0.0855  0.1306 -0.0604
13903W        W30164  18.173   3.692   0.739 -0.0892  0.0201  0.0648
13904W        W30165   5.830  14.613   0.348  0.0738  0.1924  0.0711
13905W        W30166   1.256  16.876  13.530 -0.3484 -0.4119  0.0603
13906W        W30167   0.695   5.947  12.292 -0.3285 -0.0506 -0.0229
13907W        W30168   1.932   2.202  14.196 -0.2162  0.1060  0.3494
13908W        W30169   6.629  10.322  12.010 -0.2024  0.0747 -0.0901
13909W        W30170   4.636  12.273   3.496  0.3062  0.2680  0.0794
13910W        W30171  17.123  12.857  15.711  0.1327  0.2086 -0.2183
13911W        W30172   4.965   7.834   4.374 -0.1958 -0.1618  0.2019
13912W        W30173  14.433  11.074  13.325 -0.2086  0.2439  0.3582
13913W        W30174   9.691  17.947  12.602  0.0006  0.0473  0.0727
13914W        W30175  17.093   2.788  15.207 -0.1395 -0.1469  0.0143
13915W        W30176   1.159   3.814   5.075 -0.1729 -0.0911  0.0871
13916W        W30177  13.822  12.326   1.353  0.0010 -0.4268  0.4166
13917W        W30178   7.804   6.359   1.282  0.1683 -0.0157  0.0220
13918W        W30179  14.314  10.510   0.869 -0.2237 -0.0749  0.1113
13919W        W30180  10.345   7.752   4.623 -0.0527  0.4277 -0.1540
13920W        W30181   0.025  17.182   4.864 -0.1818  0.0675  0.1508
13921W        W30182   3.142  14.412   6.113  0.2846  0.1074 -0.1488
13922W        W30183  15.629   3.485  13.910 -0.1262  0.0134  0.1745
13923W        W30184  11.663   7.365   0.120 -0.0623  0.2017  0.1815
13924W        W30185  16.768   4.753  11.669 -0.1188 -0.1581  0.1578
13925W        W30186   7.853   5.402   1.220 -0.3178  0.0823 -0.0909
13926W        W30187   3.519  16.267  15.196 -0.1946 -0.0914 -0.1365
13927W        W30188   3.666  15.499   0.629  0.1547 -0.3205  0.1885
13928W        W30189   1.283  13.469   0.177 -0.0095  0.1500 -0.0631
13929W        W30190   8.891   2.552   3.420  0.0309  0.2027 -0.1393
13930W        W30191  16.656   0.457   0.018 -0.0787 -0.1058  0.1732
13931W        W30192  13.850   7.397   0.168 -0.1842  0.0941 -0.1066
13932W        W30193   3.742  11.097   0.228  0.1341 -0.1415  0.2454
13933W        W30194  10.108   9.288  16.235  0.0740  0.3409  0.6852
13934W        W30195   4.861   9.832   5.425  0.4546 -0.0678  0.1487
13935W        W30196   3.670   3.899  15.282  0.0451 -0.1477 -0.0242
13936W        W30197   1.616   5.744   5.825  0.1294  0.0977  0.1052
13937W        W30198  11.055  12.531   0.384 -0.0566 -0.2525 -0.2347
13938W        W30199  18.027   1.676   0.262 -0.1020 -0.2145 -0.2121
13939W        W30200   4.897  12.915   3.860  0.3155 -0.2664 -0.0242
13940W        W30201   3.640   3.985  14.307 -0.0651  0.2140 -0.2447
13941W        W30202  14.265   0.789  13.068  0.0957  0.1059 -0.1217
13942W        W30203   8.352  17.518  15.701  0.0348 -0.2978 -0.1139
13943W        W30204   5.135  13.413  11.970  0.2619  0.2353 -0.0790
13944W        W30205  14.519   6.248   4.990  0.0331  0.0995 -0.0151
13945W        W30206   3.245   5.716  14.466  0.3441  0.0935 -0.0314
13946W        W30207   1.025   4.098  14.419  0.2034 -0.1447  0.0623
13947W        W30208  17.856   5.007  11.704 -0.1350 -0.0864  0.1692
13948W        W30209   2.038  13.564  11.524 -0.2014 -0.0092 -0.0661
13949W        W30210  14.414   1.774  13.382  0.3297 -0.0239  0.1719
13950W        W30211   3.856   0.128   5.811 -0.3161 -0.0150  0.0732
13951W        W30212  12.334   0.496  11.450 -0.0296 -0.1790  0.1489
13952W        W30213  13.284  15.382  14.720  0.0278 -0.2140 -0.1675
13953W        W30214  13.901  12.579  11.751  0.2005 -0.0105 -0.1989
13954W        W30215   2.667   2.087  14.403 -0.0833 -0.1094  0.0771
13955W        W30216  14.887  10.244  14.101  0.0955  0.2516  0.1772
13956W        W30217   2.484   2.696  15.821  0.0656 -0.0015  0.2643
13957W        W30218   8.671   6.625   1.182  0.6967 -0.1764  0.2831
13958W        W30219   3.843   6.337   2.289 -0.4584  0.2817 -0.3833
13959W        W30220   9.158  16.669   0.898 -0.2140 -0.2344 -0.0900
13960W        W30221   6.877   6.772  16.005 -0.1156  0.2830  0.2060
13961W        W30222  15.653   2.409   3.031 -0.1428 -0.0241  0.3445
13962W        W30223   1.239   6.485  14.115 -0.0438  0.1914 -0.1461
13963W        W30224  12.127  10.239   5.542  0.2312 -0.0364 -0.3585
13964W        W30225   0.874  10.903   5.237  0.2837  0.1745 -0.3436
13965W        W30226   6.485  12.996  14.308  0.1398 -0.0129 -0.2198
13966W        W30227  12.398   8.900   2.598 -0.2604  0.2604  0.0617
13967W        W30228  11.661   5.882   4.019 -0.0181  0.1140  0.1611
13968W        W30229   5.687  16.758  14.690  0.0629  0.4137  0.3085
13969W        W30230  12.497  13.495   3.388  0.0036 -0.0156 -0.0237
13970W        W30231  13.328  11.608   2.438  0.1110  0.0602 -0.0999
13971W        W30232   2.508   1.597   4.212  0.1329  0.1856 -0.1202
13972W        W30233  11.496  11.681  11.554 -0.0517 -0.0603 -0.3323
13973W        W30234  17.660   1.358  12.876  0.2645  0.0272 -0.0346
13974W        W30235  12.401   7.353  13.967  0.1573 -0.0586 -0.1855
13975W        W30236   8.990  11.636  13.298 -0.0915 -0.2255  0.2785
13976W        W30237   5.923   1.094   1.691  0.1887 -0.1389 -0.0321
13977W        W30238  16.356   3.616   5.025  0.0620 -0.2784  0.2446
13978W        W30239   0.015   1.755   3.520 -0.4866  0.0304  0.0757
13979W        W30240   0.648   1.154  15.976 -0.0191 -0.0790  0.0184
13980W        W30241  10.850   7.434  12.394  0.0429 -0.2605  0.0512
13981W        W30242  10.731  14.106   4.196 -0.0354  0.3639 -0.0904
13982W        W30243   6.227  17.870  16.360  0.1066  0.2717 -0.1727
13983W        W30244  16.692   8.805  12.741  0.1693 -0.1339  0.2456
13984W        W30245   6.198  12.227   4.125 -0.2051 -0.1869 -0.1105
13985W        W30246  15.190   7.990  11.992  0.1249 -0.3282  0.1465
13986W        W30247   3.328  11.458   0.179  0.1693  0.2585 -0.2588
13987W        W30248   4.682   0.228  15.476 -0.4978 -0.1979 -0.0514
13988W        W30249   2.264  12.531  11.685 -0.0301  0.0812  0.2619
13989W        W30250   8.217  12.440  11.690 -0.0007 -0.1848  0.0215
13990W        W30251   0.552  12.650  14.447 -0.2570 -0.0829  0.0841
13991W        W30252   9.237  15.429   5.836 -0.1027  0.0578  0.1767
13992W        W30253   7.171   3.724  14.591 -0.0076  0.0082 -0.0407
13993W        W30254   7.284   6.364   4.994  0.0712  0.1492  0.0540
13994W        W30255  10.771   9.281  12.251  0.0506  0.0215 -0.2574
13995W        W30256  14.099  11.105   4.324  0.0682 -0.1484 -0.0732
13996W        W30257  11.145  17.286   3.482  0.0174 -0.0367 -0.0573
13997W        W30258  15.392   1.806  16.122  0.2425 -0.1402  0.1735
13998W        W30259  10.244   2.374  13.216 -0.2053 -0.0465  0.2995
13999W        W30260   7.475  17.518  14.694  0.1488 -0.1777  0.3327
14000W        W30261   5.621  15.030   2.935 -0.2200 -0.0977 -0.1644
14001W        W30262   0.359  11.488  13.101 -0.0785 -0.3804  0.1147
14002W        W30263   1.263  11.837   5.087 -0.1736 -0.5121 -0.1131
14003W        W30264  16.330   0.574  16.096 -0.0390  0.2881  0.0165
14004W        W30265  17.919  17.944  13.241 -0.1334  0.0001 -0.2262
14005W        W30266  16.344  13.462  12.218  0.0205 -0.0424  0.1015
14006W        W30267  17.302  16.397   5.621  0.3800  0.2866 -0.3661
14007W        W30268  13.413  17.950  11.776  0.1972 -0.1003 -0.2180
14008W        W30269  10.448   6.987  11.839 -0.0984 -0.1394  0.0887
14009W        W30270   0.386   9.013   4.841 -0.0060 -0.3042 -0.0533
14010W        W30271  17.077  16.810   4.607  0.1271  0.0549  0.2536
14011W        W30272   4.127   6.831  11.930 -0.1691 -0.0347 -0.0260
14012W        W30273   3.879  14.608  14.214  0.4095 -0.0637  0.1085
14013W        W30274   1.656   6.115  13.200 -0.0111  0.1281  0.0322
14014W        W30275   1.997  16.788  15.923  0.0121  0.1791  0.0491
14015W        W30276   1.544   8.353  16.056  0.3935  0.3145  0.1352
14016W        W30277  16.622   4.519  15.843 -0.0798  0.2620 -0.1307
14017W        W30278  12.718   3.294  12.340  0.0652 -0.0279  0.1491
14018W        W30279  11.323  16.515  12.927 -0.1312  0.1022 -0.0663
14019W        W30280  14.755  10.171  12.062  0.0359  0.0084 -0.1626
14020W        W30281   5.735   7.030  15.978 -0.1191 -0.0264  0.3640
14021W        W30282   6.688   6.948  13.224 -0.1203  0.0137  0.1148
14022W        W30283   6.712   3.880  16.430  0.0882  0.4405  0.0304
14023W        W30284  12.722  13.513  13.732  0.0198 -0.0736  0.0515
14024W        W30285   8.915  10.894   5.927 -0.0664 -0.2180  0.3772
14025W        W30286  17.667   2.423   2.510 -0.1168  0.0646 -0.2505
14026W        W30287  15.387  11.139   4.862  0.2293  0.0619  0.0440
14027W        W30288   7.327   4.564  14.944 -0.1295 -0.1799  0.3314
14028W        W30289  12.120  12.223   4.507 -0.0294 -0.1642 -0.1766
14029W        W30290   4.293   2.873   5.098 -0.3228  0.0995  0.0780
14030W        W30291   1.782  14.555  14.247 -0.1570 -0.2297 -0.1448
14031W        W30292  13.388  10.020  12.507 -0.5261 -0.5529 -0.0321
14032W        W30293   6.830  13.671  12.500  0.0273  0.4220 -0.1253
14033W        W30294  15.047  11.024   1.970  0.1034 -0.1469  0.2995
14034W        W30295  10.002   8.799   3.646 -0.2330 -0.1759 -0.3316
14035W        W30296   5.698  10.983  11.821  0.1970  0.0674  0.3418
14036W        W30297   2.862   3.756  14.863  0.1023 -0.0263 -0.1452
14037W        W30298  14.359  13.589   4.410 -0.0038  0.1430 -0.0530
14038W        W30299  12.353  12.582   0.601 -0.3855 -0.0543  0.1249
14039W        W30300  14.370   1.550  15.312  0.2209 -0.0064  0.0010
14040W        W30301  12.828   7.318   4.544  0.1927 -0.2356 -0.2396
14041W        W30302  13.672   0.288   0.429 -0.3319 -0.1477  0.0115
14042W        W30303   3.914  10.778  13.573 -0.2133  0.0390  0.0963
14043W        W30304  11.078  14.274   2.154 -0.0428  0.0921  0.0865
14044W        W30305  15.203   0.515  15.287  0.2372  0.0717  0.1734
14045W        W30306   7.888   6.207   2.330  0.0707  0.1651  0.1226
14046W        W30307  14.194  13.191  15.884 -0.1520 -0.1205  0.1091
14047W        W30308   4.801  13.408  14.559  0.2165  0.0157  0.1656
14048W        W30309  10.861   0.682   0.919  0.1351  0.1060 -0.0808
14049W        W30310  17.492  12.342   5.134 -0.3983  0.2573 -0.0730
14050W        W30311   8.488   4.799  16.273  0.1851  0.1206 -0.1559
14051W        W30312  17.589   2.730   0.181 -0.1674  0.1312 -0.0725
14052W        W30313  11.946   7.316  14.331  0.0651  0.0988 -0.3384
14053W        W30314  14.047   3.944  14.163 -0.0031  0.2121  0.1871
14054W        W30315  11.945   0.551  14.847  0.1113 -0.3233 -0.1511
14055W        W30316  12.300  13.615   5.041 -0.1485  0.0500 -0.1495
14056W        W30317   9.287  15.666  13.082 -0.2723  0.1522  0.2225
14057W        W30318  15.099   6.220  14.731 -0.1804 -0.1588  0.0712
14058W        W30319   7.955   0.584   5.733  0.1086  0.0037  0.2674
14059W        W30320   0.842   4.153   2.723  0.0266  0.2400 -0.3081
14060W        W30321   3.740  15.613   5.655 -0.0962 -0.0606  0.1897
14061W        W30322  10.799  11.875   4.600  0.3902  0.2851 -0.0326
14062W        W30323   1.938   0.368   4.688  0.3650  0.1926 -0.0682
14063W        W30324  14.802   3.601   5.384  0.0429  0.1160 -0.0949
14064W        W30325   4.538   4.058  11.709  0.0454  0.1796 -0.1868
14065W        W30326  12.329  14.238   1.971  0.1408  0.2312  0.1766
14066W        W30327   8.288   2.816  11.091  0.3108  0.0393 -0.2842
14067W        W30328   0.482  17.060   1.237  0.3026 -0.0230 -0.3705
14068W        W30329  16.681  10.456  14.653  0.1391  0.1409 -0.1803
14069W        W30330   8.376  15.718  15.292  0.5375 -0.0125 -0.0223
14070W        W30331   2.956   8.697   5.474 -0.0515  0.2693  0.0060
14071W        W30332   6.369   9.003  12.153 -0.0479 -0.2555  0.1407
14072W        W30333  14.392   6.071   4.488 -0.2302  0.2595  0.0610
14073W        W30334  12.020   6.104  16.172 -0.0301  0.1653 -0.3407
14074W        W30335  10.999   2.950   2.961 -0.4114  0.1587 -0.0577
14075W        W30336  10.129  11.390   2.072 -0.1097  0.3243 -0.0726
14076W        W30337   7.147   9.128   1.821  0.0014  0.0298 -0.0495
14077W        W30338  12.997   8.835  12.607 -0.0788 -0.2182  0.0009
14078W        W30339   5.025   4.416  12.579  0.4704 -0.0200  0.0241
14079W        W30340   0.971  11.240  11.804  0.1570  0.0249 -0.1060
14080W        W30341  15.542   9.236   5.003  0.1527 -0.0970  0.3443
14081W        W30342   8.012   7.759  11.811  0.3714 -0.4046 -0.3132
14082W        W30343   4.249   1.434   5.436 -0.1349  0.2294 -0.0227
14083W        W30344   3.038  16.516  13.222  0.1716  0.1762 -0.0781
14084W        W30345  13.723   2.675   0.921 -0.1549  0.2330 -0.0332
14085W        W30346  11.725  18.150   0.615 -0.0440 -0.0580 -0.0768
14086W        W30347  10.595   8.566   4.178 -0.0392  0.0886  0.1405
14087W        W30348  13.272  15.188  12.068  0.1419  0.1032  0.3134
14088W        W30349   3.743   0.283   0.932 -0.1849  0.1649  0.1179
14089W        W30350   5.399  11.558  12.642 -0.0767 -0.3363  0.1199
14090W        W30351  10.454  12.031   1.632  0.0193 -0.3016  0.0264
14091W        W30352  16.753  14.527   1.302  0.2262  0.0887  0.3747
14092W        W30353   1.644   2.825   4.202  0.0874 -0.1204  0.2191
14093W        W30354  12.733  18.067  12.787  0.0069  0.0087 -0.0416
14094W        W30355   3.252  12.645  14.120 -0.1716  0.2560 -0.2884
14095W        W30356  12.907   2.172   5.090 -0.3220 -0.3424 -0.1684
14096W        W30357   5.643   6.901  14.226 -0.1241 -0.0429 -0.0232
14097W        W30358   9.782   2.973   2.251 -0.0703 -0.4282  0.1021
14098W        W30359  16.945   5.179   4.263 -0.1207  0.4426 -0.1748
14099W        W30360   3.767   7.545   2.140  0.1789 -0.1342  0.0454
14100W        W30361   3.862   0.974   1.095  0.0574 -0.0846  0.1272
14101W        W30362   2.100  11.713  13.952 -0.1084  0.0497  0.0108
14102W        W30363   8.992   6.833   4.209 -0.2229 -0.2222  0.0180
14103W        W30364   4.989   2.885  15.376  0.1133  0.0555 -0.1682
14104W        W30365   1.218  15.060   3.759 -0.5418 -0.1128 -0.2451
14105W        W30366   8.012  12.816  12.616 -0.1273  0.2963 -0.1755
14106W        W30367   6.675   1.484  16.187 -0.0039 -0.1903  0.2102
14107W        W30368  11.787   3.987   0.787  0.4455  0.0516  0.2883
14108W        W30369   6.903  12.504   0.400 -0.2991  0.3380 -0.1014
14109W        W30370  17.767   2.973   3.900 -0.2959 -0.0274  0.0329
14110W        W30371  14.339  15.321   0.674 -0.0594  0.0354 -0.3664
14111W        W30372  12.297   2.884  14.638  0.2639  0.0646 -0.1778
14112W        W30373   6.789   8.708  13.811  0.0353  0.1480 -0.0231
14113W        W30374   3.013  11.949  14.340 -0.1400 -0.2429 -0.1345
14114W        W30375  16.122   7.305   1.739  0.0625 -0.0357  0.2534
14115W        W30376  13.318   0.505  15.988 -0.1727 -0.0691  0.3095
14116W        W30377   2.081   2.729  14.108 -0.0213  0.0678 -0.3183
14117W        W30378   6.592   7.322   0.838  0.4638  0.1076 -0.1652
14118W        W30379   1.542  11.870  16.061 -0.2759  0.2298 -0.1100
14119W        W30380  14.698  15.310  12.632 -0.0816 -0.1817 -0.0149
14120W        W30381  14.682   2.525  14.485  0.2758  0.2313  0.1892
14121W        W30382  14.124  14.895  16.499  0.0010 -0.1095  0.0374
14122W        W30383   9.292  15.299   0.993  0.3522 -0.1754 -0.3753
14123W        W30384  10.929   8.640   3.725 -0.1300  0.1885 -0.0447
14124W        W30385  13.025   5.521  12.163  0.2173  0.1538  0.1675
14125W        W30386   6.674   5.430  13.987 -0.1744  0.0701 -0.1702
14126W        W30387   0.124  12.105  11.345 -0.2813  0.1305 -0.0632
14127W        W30388  13.298  14.962  15.008 -0.3082 -0.1134  0.1573
14128W        W30389  12.887  13.632   0.751  0.3357 -0.2509  0.0701
14129W        W30390  12.917  12.545  13.941  0.0429 -0.1766 -0.3205
14130W        W30391   4.933   4.601   4.074 -0.0270  0.2024 -0.0762
14131W        W30392   3.420   2.019   0.647 -0.0862  0.2712 -0.3030
14132W        W30393   7.957  13.799  13.472 -0.0243 -0.0273 -0.1854
14133W        W30394  11.695   7.691  14.085  0.4287 -0.2437 -0.0624
14134W        W30395  16.478  12.927   1.269 -0.1271  0.2280 -0.0670
14135W        W30396   9.402   0.776   2.343 -0.1596 -0.4044  0.1541
14136W        W30397  10.571   8.764  12.072  0.0638 -0.2324  0.0567
14137W        W30398  13.300   3.234  13.284  0.1960  0.3320 -0.1149
14138W        W30399  17.574  10.685   4.122  0.0857 -0.1622 -0.1119
14139W        W30400  12.709  15.974  15.582 -0.0122  0.1346 -0.3282
14140W        W30401  16.576  13.114  16.578  0.1197 -0.4489 -0.2397
14141W        W30402   1.340   8.833   3.160  0.1352  0.1082  0.0889
14142W        W30403  10.731  15.513  16.101 -0.3479 -0.2211  0.1626
14143W        W30404  11.393   9.583   1.676  0.0218  0.1454 -0.0632
14144W        W30405  14.704   1.834  12.365  0.1567 -0.0009  0.1372
14145W        W30406  11.843  11.726   3.460  0.1778 -0.1158  0.1214
14146W        W30407   7.470  13.779  13.729 -0.0670  0.1421  0.4800
14147W        W30408   8.146   7.022   2.978 -0.1505  0.1947 -0.1292
14148W        W30409   7.381   4.855   4.812 -0.0846  0.0807  0.0677
14149W        W30410  15.831  11.245   0.087  0.0073  0.2576  0.0581
14150W        W30411   0.157   0.639   1.615 -0.0496 -0.2297  0.1287
14151W        W30412   2.914   7.942   1.668 -0.1275  0.0592 -0.0197
14152W        W30413  10.686  14.596   0.756  0.0157  0.0685 -0.5297
14153W        W30414   7.505  16.652   3.242  0.4119  0.2461  0.1083
14154W        W30415   4.321  14.536  13.347 -0.0618 -0.1996  0.3507
14155W        W30416  11.852  10.556   2.140 -0.1556  0.3994 -0.2363
14156W        W30417  17.000   3.743   2.749  0.3546  0.0019  0.1868
14157W        W30418  12.095  13.998   0.191 -0.0830  0.0963 -0.1428
14158W        W30419  12.357   1.316  11.969 -0.0570 -0.0410 -0.2644
14159W        W30420  10.469   6.268  12.004  0.0548  0.0249 -0.3622
14160W        W30421   5.950   9.847   5.459  0.2099 -0.1003 -0.0353
14161W        W30422  11.913   6.169   1.038  0.2061 -0.4600 -0.0661
14162W        W30423  10.262   5.464   1.179  0.0491  0.0443 -0.2105
14163W        W30424  15.956   1.263  15.684  0.2923  0.2989 -0.3328
14164W        W30425   8.457  12.558  16.530  0.1432 -0.0782  0.1814
14165W        W30426   0.624   2.762  13.156 -0.3193  0.0586 -0.0984
14166W        W30427   8.147  12.374  14.963  0.2581 -0.0355 -0.0207
14167W        W30428  13.510   2.172  11.768  0.0657  0.1528  0.1629
14168W        W30429  11.723  11.527  12.744  0.1729 -0.0701 -0.4310
14169W        W30430   1.530  17.648  13.520 -0.1028  0.2140  0.2279
14170W        W30431  10.615   7.909  12.317  0.0696 -0.0919 -0.0005
14171W        W30432  12.774  16.568  13.320  0.0887  0.1675 -0.0614
14172W        W30433  16.193  13.265   3.556  0.0015  0.1658  0.2586
14173W        W30434  11.200  10.247  12.301 -0.0087  0.0469 -0.1843
14174W        W30435   4.390   6.319   5.551 -0.0040  0.1170  0.1599
14175W        W30436  17.334   1.976  12.216  0.0757 -0.0203  0.1121
14176W        W30437   6.514  13.577   2.826 -0.2949 -0.2286  0.1852
14177W        W30438   0.605  10.899   1.143  0.1142  0.2458 -0.2900
14178W        W30439   3.154  10.048  11.634  0.1549  0.1526 -0.3849
14179W        W30440   5.869   9.839  16.376 -0.2345  0.1256  0.2302
14180W        W30441   1.630  16.202   2.388 -0.0040  0.0821  0.1494
14181W        W30442   0.104  17.088   0.874  0.1692  0.3129  0.1762
14182W        W30443   7.658   3.769   5.508  0.1044  0.4460 -0.1969
14183W        W30444   8.158  11.398  13.154 -0.2592  0.0254 -0.1319
14184W        W30445  11.417   4.658  14.231  0.2871  0.0252  0.0580
14185W        W30446  15.865   7.375   5.034  0.0641  0.0886  0.3455
14186W        W30447   3.680   5.599   1.748 -0.1322  0.0531  0.0220
14187W        W30448  15.145   2.587  15.864 -0.0988 -0.3094  0.1741
14188W        W30449   0.451   9.661   3.888  0.0489 -0.1426  0.1067
14189W        W30450   7.773  12.270   1.644  0.0572  0.1303 -0.0776
14190W        W30451   3.946   6.835   2.617  0.2065 -0.1988  0.1880
14191W        W30452   7.741   2.186  12.639 -0.3805 -0.0896 -0.1146
14192W        W30453   8.678  15.685  13.844 -0.2110  0.0801 -0.1636
14193W        W30454   7.606   8.569   5.567  0.1412  0.1757  0.1642
14194W        W30455   6.944  10.494   4.742  0.0430 -0.1046  0.0080
14195W        W30456   3.493   7.890   3.774  0.2643  0.1908  0.1893
14196W        W30457   8.202  15.692  14.301  0.0723 -0.1535  0.1363
14197W        W30458   5.189   5.099   5.052  0.3291 -0.0601 -0.3668
14198W        W30459   2.419   2.112   0.957 -0.2112 -0.0011 -0.0148
14199W        W30460  11.901   2.740   1.070  0.1573  0.0761 -0.4003
14200W        W30461  12.833   1.364   5.383  0.1809 -0.2554 -0.2310
14201W        W30462   7.138   7.645  13.725 -0.1711 -0.1207  0.3495
14202W        W30463   4.009  11.819   3.780  0.0040  0.0502  0.1595
14203W        W30464  11.587   4.556   4.232  0.0973 -0.0070 -0.0046
14204W        W30465  16.146   5.270   0.113 -0.0669  0.3363  0.2776
14205W        W30466   6.581  14.077   1.006 -0.0698  0.0240  0.0109
14206W        W30467   2.771  15.066  15.572 -0.1482 -0.1265 -0.0587
14207W        W30468  17.110   7.680   1.997  0.0536 -0.2155  0.0138
14208W        W30469   5.738  10.186   2.838 -0.1888  0.0274  0.0214
14209W        W30470   8.724   3.927   2.281 -0.2505 -0.0709 -0.1112
14210W        W30471   4.363   6.275  15.677 -0.0961  0.3566  0.0644
14211W        W30472  15.962   8.074   4.323 -0.1813 -0.1922 -0.0638
14212W        W30473  10.893   7.163   2.272  0.0959  0.2181 -0.3272
14213W        W30474  14.453   4.459   2.480  0.2425 -0.0224 -0.2048
14214W        W30475  10.973  16.456  11.572 -0.1414 -0.0912  0.0076
14215W        W30476   0.255  10.232   1.750  0.0233  0.4211  0.0880
14216W        W30477   7.781  14.323  12.167  0.2010  0.2596  0.0751
14217W        W30478  13.950   0.411  15.088  0.1834 -0.1079  0.3649
14218W        W30479   3.524   3.141  13.427  0.1726 -0.0524 -0.1525
14219W        W30480  13.045   1.832  16.437  0.0855  0.0356  0.0123
14220W        W30481   4.458  10.378  13.019 -0.1405  0.1283 -0.1035
14221W        W30482   5.703   9.840  13.500 -0.1502 -0.1201 -0.3500
14222W        W30483  12.064  10.594  12.708  0.2033 -0.1906 -0.1278
14223W        W30484   2.707   8.978  15.736  0.1501 -0.4836 -0.1854
14224W        W30485  15.056  12.365  11.765  0.2669 -0.0073  0.3188
14225W        W30486   3.696  11.272  13.577  0.3812  0.1719 -0.1535
14226W        W30487   6.543  17.595   3.449  0.1888 -0.2421 -0.0628
14227W        W30488  15.401   3.640  14.967  0.0571  0.1048 -0.2255
14228W        W30489   2.406   2.027   4.437 -0.2770  0.0336 -0.0797
14229W        W30490  10.350  16.183   3.267 -0.3607  0.0152  0.0776
14230W        W30491  11.084  10.018   3.199 -0.0485 -0.1291  0.1887
14231W        W30492   6.828   2.806   1.849 -0.3809 -0.1403  0.2174
14232W        W30493  13.071   9.360   2.852  0.1636  0.2922 -0.0731
14233W        W30494  15.732  16.876  13.280  0.1206  0.2596 -0.0042
14234W        W30495  17.348  13.146   0.355 -0.0691 -0.0253  0.2355
14235W        W30496  10.008   8.134   3.037  0.0598  0.1295  0.2494
14236W        W30497   6.106   8.049   5.751  0.0426 -0.2162 -0.1459
14237W        W30498  12.872  15.061  14.685 -0.1157 -0.0131  0.0009
14238W        W30499  10.477  16.612   4.704  0.1333  0.1963  0.0527
14239W        W30500   6.575   2.700  14.149 -0.0112  0.0357  0.2880
14240W        W30501   5.445   4.159  11.186  0.1830  0.1657  0.3278
14241W        W30502  11.269  11.483   5.366 -0.0977  0.3637 -0.0200
14242W        W30503  12.342   6.512  13.776 -0.1608 -0.0650  0.1707
14243W        W30504  10.069  11.602   5.104 -0.2056  0.2442  0.2834
14244W        W30505   7.924  16.485  15.403 -0.0763 -0.4582  0.0521
14245W        W30506   6.895   8.441  15.147 -0.0304  0.0330  0.1229
14246W        W30507   9.698  13.831  16.425 -0.1139 -0.1295  0.0232
14247W        W30508  11.405   5.750  12.223  0.2097  0.0249 -0.2066
14248W        W30509  18.093  15.216   0.972 -0.3993 -0.0969  0.1793
14249W        W30510  11.819   4.793   1.074  0.0510  0.1258  0.2994
14250W        W30511   2.462  15.423   4.327 -0.0185 -0.1194  0.2017
14251W        W30512  10.768   3.979  15.377 -0.1303 -0.2888 -0.2429
14252W        W30513  11.834  10.943   4.368  0.2502 -0.3008  0.2010
14253W        W30514   3.303  14.939  15.379  0.1113 -0.3011 -0.1845
14254W        W30515  17.951  16.518  12.540  0.3919  0.1092 -0.0467
14255W        W30516  14.229  14.007  14.817  0.0168  0.0985 -0.0908
14256W        W30517  17.649  11.588   1.050  0.0805  0.0731 -0.0056
14257W        W30518  11.680   9.746   2.180  0.1380  0.1207  0.2233
14258W        W30519   9.744   6.219   5.147  0.0605  0.0490 -0.0578
14259W        W30520  11.603  13.944   5.111 -0.0408  0.0619 -0.1107
14260W        W30521   3.659   5.828   0.287  0.1557 -0.2691 -0.0254
14261W        W30522   2.499  12.125  12.533  0.3473  0.0410 -0.0334
14262W        W30523  13.473   3.967   0.481  0.0375  0.1547  0.0419
14263W        W30524   6.501  15.173   1.181  0.1182 -0.0700  0.0030
14264W        W30525   0.372   1.438   5.911 -0.0240 -0.1208 -0.1699
14265W        W30526   4.013   8.844  16.222  0.0033  0.0850 -0.2102
14266W        W30527   3.218  10.343  13.208  0.1422 -0.1921  0.0437
14267W        W30528  15.390  12.255  15.307 -0.1075 -0.0699 -0.3226
14268W        W30529  15.468  14.404   0.900  0.0762  0.2092 -0.4681
14269W        W30530  15.868   0.025   3.412  0.2187  0.3169 -0.0698
14270W        W30531   9.921  16.183  16.196 -0.1541 -0.0411 -0.2554
14271W        W30532   1.942  14.787   1.280  0.0140 -0.0846  0.0230
14272W        W30533  17.186  10.552  16.128  0.2032 -0.0145 -0.0287
14273W        W30534   7.915  10.472   1.029 -0.1006 -0.0945  0.2063
14274W        W30535   3.198   5.858   5.276  0.0719 -0.0393  0.3048
14275W        W30536  16.334  17.090   5.984  0.0058 -0.0441 -0.1313
14276W        W30537  13.319  17.186  15.602 -0.1269 -0.0815 -0.0446
14277W        W30538  17.606   5.317  13.695  0.0294  0.0965  0.3101
14278W        W30539   1.446  11.187  10.887 -0.3356 -0.3294 -0.3123
14279W        W30540  15.092   8.529   2.733 -0.0589  0.1179  0.1310
14280W        W30541   4.126   8.327   4.833  0.1006 -0.0140  0.3287
14281W        W30542   0.217  18.086  12.195  0.2974 -0.0786 -0.1745
14282W        W30543  17.125   1.247   3.363  0.2656  0.0804  0.1450
14283W        W30544  14.387  15.070   3.960 -0.3272 -0.1813  0.4248
14284W        W30545   5.659  17.011   1.235 -0.0842  0.0219 -0.0575
14285W        W30546   0.257   1.921   5.901  0.0884 -0.1366  0.1386
14286W        W30547  12.596   4.588  15.038  0.0184  0.2791  0.0509
14287W        W30548   0.504   3.581  12.900 -0.0581  0.0554 -0.1959
14288W        W30549   0.372   2.957   2.647  0.0192  0.1724 -0.0692
14289W        W30550   5.373  11.342  15.952 -0.1519  0.1480  0.1518
14290W        W30551  17.639  10.795   2.437 -0.1961  0.2118 -0.0327
14291W        W30552   4.526   1.499   4.193  0.0564  0.0404 -0.0449
14292W        W30553   3.998  13.562   3.772 -0.1469 -0.2390 -0.1805
14293W        W30554  11.830   6.692  11.762 -0.1826 -0.0080  0.5393
14294W        W30555   6.503   3.964   3.496 -0.2521 -0.0511  0.1957
14295W        W30556  17.082  14.903   4.557  0.1754 -0.1878 -0.2035
14296W        W30557   4.793   8.027   3.375 -0.0608 -0.0345 -0.0436
14297W        W30558   3.735  17.476   5.464 -0.1772  0.1379  0.1043
14298W        W30559   0.761  14.775   3.784  0.3623 -0.1729 -0.1020
14299W        W30560   8.645  16.837   2.340 -0.1874  0.2403 -0.0434
14300W        W30561   1.984  11.089  14.460 -0.2175 -0.0744 -0.4070
14301W        W30562  11.886   1.910   2.845  0.0837  0.1451  0.0502
14302W        W30563  17.564  17.000  14.346 -0.2348 -0.0017  0.2432
14303W        W30564  17.705   8.651   3.976 -0.1719 -0.2722 -0.0181
14304W        W30565   9.544  13.617   2.562 -0.0425 -0.3489  0.1001
14305W        W30566  12.943   0.908  13.826 -0.1245 -0.2116 -0.0074
14306W        W30567   8.347   2.728   0.291 -0.1078  0.3340  0.2133
14307W        W30568   0.366   4.040  13.340  0.1760 -0.3313 -0.0947
14308W        W30569   9.894   4.556   1.144  0.0201  0.1862 -0.3131
14309W        W30570   5.958   2.731  16.565  0.1864 -0.2373 -0.2076
14310W        W30571  12.003  17.268  15.306  0.1844 -0.2360 -0.0216
14311W        W30572  16.686   8.288   5.401  0.2023  0.1404 -0.2258
14312W        W30573   6.392   7.726   4.935 -0.1552  0.3140  0.1958
14313W        W30574  17.949   0.253   0.420  0.0250  0.3467 -0.1728
14314W        W30575   8.850  12.417  12.365  0.0737 -0.0829  0.3391
14315W        W30576  10.709   1.821   2.070 -0.0335  0.0379  0.1220
14316W        W30577   7.435  10.495   2.721  0.0986  0.1382 -0.1055
14317W        W30578  18.025   7.858  13.383 -0.0479 -0.2708  0.1930
14318W        W30579   2.945  13.920   3.059  0.1181 -0.0879 -0.1934
14319W        W30580  17.489   7.070  12.356 -0.0172 -0.0143 -0.0401
14320W        W30581   5.290  16.705   5.829  0.1416  0.0216  0.1657
14321W        W30582   9.068   3.870   1.910  0.0584  0.0134  0.0534
14322W        W30583  10.051   8.422   4.034  0.1039 -0.3002  0.2357
14323W        W30584   3.006  13.820  13.465  0.1251  0.5045 -0.0592
14324W        W30585   3.880   9.777   0.259  0.2164  0.1050 -0.0633
14325W        W30586  12.347   3.116   3.688 -0.0095  0.2045  0.4257
14326W        W30587  15.860  13.966   1.719  0.1749 -0.1149  0.2279
14327W        W30588   9.535  11.459   3.454 -0.1990  0.0090 -0.1129
14328W        W30589  14.973   5.964  12.755  0.2163 -0.0980  0.0949
14329W        W30590  14.153   8.674  13.427 -0.2223  0.0884 -0.1980
14330W        W30591  17.938   0.486   5.155 -0.0652  0.3046  0.0347
14331W        W30592  10.068   8.108   0.120 -0.1452  0.1172  0.1422
14332W        W30593   1.465   4.631  15.264 -0.3585 -0.2264  0.2039
14333W        W30594   2.292   7.214  16.537  0.5817 -0.1724 -0.0211
14334W        W30595  16.462   7.680  13.751  0.0390 -0.0592 -0.2578
14335W        W30596   6.876  14.289   3.555 -0.2857 -0.0770  0.1077
14336W        W30597   9.228   7.509   3.666 -0.1530 -0.0139 -0.0281
14337W        W30598   6.194   0.227  11.980  0.2058 -0.0617 -0.2226
14338W        W30599   9.111   6.044  16.388 -0.0374 -0.1378  0.0243
14339W        W30600   3.690  13.863  15.726 -0.1366  0.2803 -0.1487
14340W        W30601   5.292   1.588   5.477 -0.1946  0.0794  0.1012
14341W        W30602   5.296  17.049   4.978 -0.3085 -0.0627 -0.0591
14342W        W30603  16.194   4.476   4.493  0.2071  0.1957 -0.0036
14343W        W30604   3.736   7.019   2.056 -0.0724  0.1762 -0.0044
14344W        W30605   4.029   7.395   4.087  0.1627 -0.0172  0.0433
14345W        W30606   5.595   6.949   4.530 -0.0749 -0.0565 -0.2347
14346W        W30607   0.257   0.955  11.662  0.0516  0.0923 -0.0970
14347W        W30608   4.735   4.192  16.567  0.1204  0.2346 -0.0039
14348W        W30609   3.165   6.670   5.694  0.0042 -0.3064 -0.1248
14349W        W30610  15.608  13.962   1.271 -0.1544  0.1678 -0.1461
14350W        W30611  14.187  14.464   1.576 -0.1033 -0.0180  0.0663
14351W        W30612   1.633   4.470  15.851 -0.2532  0.0816 -0.0928
14352W        W30613   7.013  16.699   5.445  0.0519  0.0066 -0.1748
14353W        W30614  15.819   2.185   1.342 -0.1011 -0.0637  0.0698
14354W        W30615  14.576  14.835  14.947  0.1197 -0.1050  0.2834
14355W        W30616   2.420  16.353   3.792 -0.0831 -0.0029  0.0719
14356W        W30617  12.009  13.906   4.200  0.2568 -0.2230  0.2043
14357W        W30618  14.628   1.656   0.728  0.1508  0.1545 -0.1482
14358W        W30619  14.223  17.408  16.512 -0.2713 -0.1356  0.2590
14359W        W30620   3.309  10.999  14.036 -0.2072 -0.0409  0.1357
14360W        W30621   1.335   0.812  12.947 -0.1327 -0.0692 -0.2252
14361W        W30622   5.605   7.101  13.246 -0.0145  0.2159  0.0280
14362W        W30623  16.817   2.707   2.542 -0.0768 -0.2517 -0.2193
14363W        W30624  11.260   4.198   2.667 -0.0317 -0.0507 -0.2871
14364W        W30625   5.579   7.579  14.915 -0.1676 -0.0130  0.3874
14365W        W30626   0.613   4.361  14.213  0.2342  0.1125 -0.0937
14366W        W30627   2.393  16.846   1.631 -0.0009 -0.0600  0.0484
14367W        W30628  16.189   6.877  11.775 -0.1667  0.3001 -0.1745
14368W        W30629  15.149   8.117   1.270 -0.0419  0.0493  0.2144
14369W        W30630   7.934   9.395   2.723 -0.0608  0.1562 -0.0820
14370W        W30631   0.138   2.104   2.423 -0.0773  0.1045 -0.2761
14371W        W30632  18.093  14.436   0.332 -0.2637 -0.1664 -0.2504
14372W        W30633  14.018  11.525  12.931  0.0320 -0.0347 -0.1675
14373W        W30634   8.806   7.071   1.084 -0.1310 -0.3328 -0.0656
14374W        W30635   9.224  10.181   2.116  0.0668 -0.1692 -0.2159
14375W        W30636  13.842   0.022   5.073  0.4231 -0.0173  0.0803
14376W        W30637   2.903   0.858  14.374  0.2146 -0.0179 -0.0730
14377W        W30638   4.951   0.211  14.568  0.1679  0.2368 -0.4048
14378W        W30639  12.951  10.578  12.016 -0.0928  0.0858  0.1849
14379W        W30640  13.147   9.719   0.674 -0.2540 -0.0407  0.1733
14380W        W30641   0.534   7.400   3.904 -0.3748 -0.0860 -0.0174
14381W        W30642   6.216   4.249   1.655 -0.1150  0.0258 -0.1083
14382W        W30643  17.775   2.388   5.097 -0.0481  0.0376 -0.0243
14383W        W30644   2.787   8.100   2.264 -0.0405 -0.0178  0.3239
14384W        W30645   1.197  10.021   1.797  0.1623  0.1272 -0.0986
14385W        W30646   5.926  11.154  12.251  0.0332  0.2177 -0.2597
14386W        W30647   2.761   9.485   4.359 -0.0267 -0.2128  0.1157
14387W        W30648  14.609   6.731  15.360  0.1138  0.1657  0.1158
14388W        W30649   3.904   9.273  16.518  0.4419  0.0571 -0.1768
14389W        W30650   4.715   5.366  14.990  0.1764 -0.0624 -0.1599
14390W        W30651   7.981   8.363   1.892 -0.0091  0.0923  0.1528
14391W        W30652  17.628   8.547  11.334 -0.2629 -0.0798  0.0795
14392W        W30653   1.360   8.136  13.944  0.0616  0.0851  0.0450
14393W        W30654   3.707   0.021  16.049  0.0495  0.2960  0.1234
14394W        W30655   5.212  17.781  14.295  0.0835  0.0752 -0.2364
14395W        W30656   0.458   0.062  12.981  0.0740 -0.0098 -0.3439
14396W        W30657   3.736   3.752   1.864 -0.0553 -0.0068 -0.2072
14397W        W30658   6.814  13.651   2.310  0.0132  0.4310  0.1637
14398W        W30659   3.309  15.146   0.389  0.1735 -0.3214 -0.1598
14399W        W30660   4.014  12.944   1.925  0.1813 -0.0450  0.0206
14400W        W30661   0.632   1.383  15.139  0.0602 -0.1808 -0.3028
14401W        W30662   4.613   1.410  13.206 -0.3733 -0.0319 -0.0014
14402W        W30663   7.438  17.944  14.161 -0.0620 -0.0276 -0.2096
14403W        W30664   5.823   8.945   3.637  0.3842 -0.0753 -0.1708
14404W        W30665   2.985  15.780  14.363  0.1180  0.0240  0.2735
14405W        W30666   3.696   6.832  14.564  0.1164 -0.0995 -0.2190
14406W        W30667  12.505  16.822   0.825 -0.1936 -0.3018  0.2484
14407W        W30668  13.487  16.672   0.087 -0.3022 -0.0212 -0.0504
14408W        W30669   9.104   7.178  14.907 -0.0318 -0.0900 -0.1704
14409W        W30670  11.456  17.506  14.681  0.4235 -0.1249  0.0069
14410W        W30671  12.697  11.015  14.911 -0.0683  0.1937 -0.1220
14411W        W30672  16.132   8.261   5.321  0.0839 -0.1952  0.0748
14412W        W30673   7.371   1.120   0.526  0.2310 -0.2858 -0.0250
14413W        W30674   4.003   4.715   0.346 -0.1847  0.0801 -0.0407
14414W        W30675   9.280  14.627  13.641  0.1966 -0.0478  0.2396
14415W        W30676  12.034   5.406  13.391  0.3351 -0.2134 -0.0282
14416W        W30677  12.909   3.098   1.299 -0.0343 -0.0359  0.0584
14417W        W30678   3.844   7.796  11.928  0.1411 -0.2092  0.1962
14418W        W30679   9.670  11.563  15.383  0.0626 -0.2636  0.2566
14419W        W30680  14.679  13.837   0.893 -0.0080 -0.1857 -0.3224
14420W        W30681   9.208  10.611   3.036  0.2061 -0.1455 -0.0483
14421W        W30682   4.103   3.137   5.541 -0.0415 -0.1795  0.0768
14422W        W30683   0.240   1.843   1.307 -0.0758  0.3793  0.0578
14423W        W30684  18.184   3.384  15.332 -0.0795 -0.0400  0.1841
14424W        W30685  16.207  17.467  13.126 -0.2728  0.3236 -0.0735
14425W        W30686  10.768  17.034   2.617 -0.1109 -0.0009 -0.0968
14426W        W30687  14.619  14.713   1.458  0.1899  0.0740 -0.0646
14427W        W30688   6.934   7.350   2.706  0.0663 -0.1503  0.0584
14428W        W30689   5.348   3.795  10.864 -0.1865  0.1863 -0.1787
14429W        W30690  16.466   8.895  15.674 -0.1653  0.0678 -0.1018
14430W        W30691  15.587   1.242   2.525 -0.0178 -0.0968  0.2030
14431W        W30692   8.349  14.672  13.436 -0.4853  0.3658 -0.1742
14432W        W30693   3.255  15.284   6.412  0.1508  0.1010 -0.3226
14433W        W30694   6.346  13.223   0.242  0.0106  0.1490  0.1728
14434W        W30695   3.397   3.167   3.312 -0.0157 -0.1737 -0.2030
14435W        W30696  15.639  16.860  12.751 -0.0914  0.0438 -0.0065
14436W        W30697   0.006  11.791  14.029  0.2595  0.1194  0.3007
14437W        W30698   4.155   8.226   2.720 -0.5797  0.2625  0.2362
14438W        W30699   5.322   4.850   1.808 -0.1167  0.0144  0.0586
14439W        W30700   3.282   0.538   0.625  0.1279 -0.0930  0.1444
14440W        W30701   8.774   2.584   2.248 -0.2536  0.1877  0.1638
14441W        W30702   8.662  12.550   1.806  0.0204  0.1561  0.0034
14442W        W30703   3.429  12.999   2.624  0.0613  0.0859 -0.1249
14443W        W30704   7.595   0.130   3.670 -0.0765  0.0210  0.1336
14444W        W30705  11.197   7.264   3.741  0.3415  0.3716  0.1568
14445W        W30706  15.860   8.094  12.781 -0.1296 -0.0465 -0.2068
14446W        W30707   1.629   3.056   2.589  0.2119  0.0150  0.2833
14447W        W30708  11.474   1.962   4.038 -0.0225  0.0704 -0.0249
14448W        W30709   3.507  10.427   2.507 -0.1570 -0.1177 -0.2308
14449W        W30710   9.751   4.084  15.836 -0.2169  0.1600  0.2541
14450W        W30711   9.846  11.948  16.196 -0.2299  0.1420 -0.2300
14451W        W30712  15.477  15.781   0.875 -0.2449  0.1376 -0.1018
14452W        W30713   1.360  10.847   0.554  0.0946 -0.3536 -0.0343
14453W        W30714  13.136   3.016  14.223 -0.0163 -0.2093 -0.3728
14454W        W30715   6.558  17.980  13.080 -0.0254  0.0144  0.1502
14455W        W30716  13.513   4.063  11.252 -0.1747 -0.0053  0.0458
14456W        W30717   1.826  15.922  14.227 -0.4742  0.0799 -0.1818
14457W        W30718   7.368   5.746  13.070  0.1832  0.1751 -0.2746
14458W        W30719  10.517  14.225  16.036 -0.0046  0.0163 -0.0292
14459W        W30720   5.262  15.598  15.132  0.2602  0.0489  0.1260
14460W        W30721   3.976   2.992  15.109  0.0401  0.2762 -0.2615
14461W        W30722  11.741   9.428  16.506 -0.1286  0.3536  0.1526
14462W        W30723   6.183  14.512   4.970 -0.2398 -0.3458  0.3823
14463W        W30724   8.186  10.771   3.434  0.0631  0.0805 -0.0053
14464W        W30725  11.525  13.062  13.811 -0.0189  0.1280 -0.1104
14465W        W30726   9.481  10.658   2.198 -0.3673  0.1158 -0.0832
14466W        W30727   9.099  11.989   1.394 -0.2132 -0.0300  0.3397
14467W        W30728   4.976   0.398  14.013 -0.2350  0.1784 -0.1643
14468W        W30729  17.829   4.331  12.324 -0.1125 -0.0872  0.6441
14469W        W30730   3.955  15.327   3.253  0.0716 -0.0169 -0.0945
14470W        W30731   2.194   5.826   6.513  0.2547  0.1084 -0.0896
14471W        W30732   8.840   7.966  13.325 -0.0842 -0.0836  0.3406
14472W        W30733  17.690   8.784  11.782  0.0732  0.4534 -0.0298
14473W        W30734   9.889  13.951  15.973  0.0183  0.0767 -0.2164
14474W        W30735   7.542  16.289   1.650  0.1475 -0.0251 -0.1768
14475W        W30736   0.730  15.021  15.980 -0.0433 -0.1803  0.2122
14476W        W30737   5.608   3.227   3.944 -0.3536  0.1339 -0.0443
14477W        W30738   3.123  15.987  13.957  0.0010  0.0389 -0.0770
14478W        W30739  17.337  10.285   4.025  0.1296  0.0407  0.0512
14479W        W30740   1.609  17.651   1.356  0.0140  0.1156 -0.1415
14480W        W30741  17.625   9.177  14.445  0.0251  0.0936  0.3062
14481W        W30742   7.840   9.531   5.239  0.1762 -0.4248 -0.0158
14482W        W30743  16.322  10.633   0.450  0.1523  0.0786 -0.1692
14483W        W30744   5.071  11.195  13.589  0.0692 -0.1430  0.0117
14484W        W30745   2.038  17.153   2.646 -0.1250  0.0282  0.1295
14485W        W30746   0.481  16.849   5.033 -0.1165 -0.0452  0.0217
14486W        W30747   1.079   8.607  14.097  0.0034 -0.1065 -0.1286
14487W        W30748   3.824  14.154   4.760 -0.2665  0.2379 -0.3079
14488W        W30749   2.272   5.376  14.494  0.2904  0.0601  0.0555
14489W        W30750  13.234  12.184  14.201 -0.3361  0.0262  0.0543
14490W        W30751   6.881  11.643   4.405  0.3328  0.0861  0.0353
14491W        W30752   0.176  10.345  11.241 -0.2900 -0.1201 -0.0245
14492W        W30753   8.561   4.589  14.318 -0.1231 -0.2376 -0.0311
14493W        W30754  16.077   6.397   1.461  0.0704  0.1676  0.2385
14494W        W30755  13.378   0.244  13.231 -0.0327  0.1013  0.3821
14495W        W30756  11.590  12.972   4.243 -0.2268 -0.0105  0.1643
14496W        W30757   2.023   4.924  14.490 -0.0489  0.0390  0.0547
14497W        W30758   1.353  13.954   1.000 -0.2363 -0.0280 -0.1615
14498W        W30759   3.117  17.442   2.017  0.3218 -0.2641 -0.3146
14499W        W30760  10.773   8.717   1.156  0.3852  0.4961 -0.0367
14500W        W30761   7.413   4.446  12.976  0.1837  0.0718  0.2483
14501W        W30762  15.072  11.829  13.840  0.2055  0.5075  0.3924
14502W        W30763   6.352  15.144  12.511  0.0753  0.1577 -0.0034
14503W        W30764  12.947  13.964  12.414 -0.0845 -0.0963  0.4318
14504W        W30765  11.027   5.598  11.939  0.0966  0.2104 -0.1202
14505W        W30766   3.701   3.693   1.334  0.0316  0.0046  0.1120
14506W        W30767   6.802  14.253  14.518  0.2547 -0.1269 -0.1086
14507W        W30768  14.779   7.725   1.658  0.2145  0.2269 -0.0217
14508W        W30769   2.886   5.304   0.457  0.0863  0.2540 -0.3550
14509W        W30770  14.708   8.738  14.759  0.1868  0.0668 -0.1290
14510W        W30771   9.325   1.270   4.485  0.1055  0.1679  0.0638
14511W        W30772   9.377   7.181   3.982  0.1229 -0.0171 -0.2770
14512W        W30773  17.219   6.326   4.087 -0.4667 -0.1680 -0.1268
14513W        W30774   9.998   0.630   5.298  0.1349 -0.2836 -0.1557
14514W        W30775   3.893   3.987   5.987 -0.1180 -0.0686 -0.1114
14515W        W30776  17.113  16.313  12.093 -0.0262  0.0772  0.0701
14516W        W30777   3.481   9.862   3.126 -0.3839  0.2892 -0.3334
14517W        W30778  17.854  10.359  15.008  0.0008  0.2547  0.0022
14518W        W30779   6.639   2.493  11.613 -0.1840  0.0297  0.4742
14519W        W30780  10.273  14.514  14.823 -0.1037  0.0786 -0.2048
14520W        W30781  10.796  13.519  15.525  0.1809  0.1536  0.1143
14521W        W30782   7.427   8.789  16.043  0.2933  0.0176  0.3092
14522W        W30783   5.212  11.772   5.067  0.1260 -0.1300 -0.0479
14523W        W30784  12.433   9.807   3.020  0.0660 -0.2177 -0.1430
14524W        W30785  12.162  16.256  12.323  0.1153  0.1106 -0.2089
14525W        W30786   3.372  11.543   1.029  0.0904  0.1258 -0.3861
14526W        W30787   8.358   1.245   2.367  0.0803 -0.3533 -0.2983
14527W        W30788   9.885   6.496   2.975 -0.1495 -0.3995  0.2397
14528W        W30789  18.142  13.974  15.648 -0.2110 -0.0471 -0.0175
14529W        W30790  16.607   7.416  12.275  0.2724  0.0724 -0.1666
14530W        W30791  10.169  17.231   1.604 -0.0791 -0.0699 -0.0308
14531W        W30792   1.726   5.136  12.579  0.0407  0.1194  0.0958
14532W        W30793  15.566   4.751  15.965  0.2999  0.2760  0.2167
14533W        W30794  10.753  17.505  16.021  0.3420 -0.1596 -0.1048
14534W        W30795   0.783   1.119  16.485  0.2520  0.3039 -0.0169
14535W        W30796  12.342  15.548  13.105 -0.2151  0.1539  0.4009
14536W        W30797   1.572   8.487  14.236 -0.0755 -0.0381 -0.0797
14537W        W30798   6.452  15.215   3.593 -0.0668  0.2475  0.0055
14538W        W30799  16.373   1.320   4.878  0.2074 -0.1259 -0.2037
14539W        W30800  11.739  13.667   0.756 -0.0871 -0.0299 -0.2994
14540W        W30801  17.469  15.329   0.187 -0.1806 -0.1491 -0.3145
14541W        W30802   3.994  11.716   0.794  0.0971  0.0033 -0.1633
14542W        W30803  14.126   4.447   1.581 -0.0119 -0.1473  0.2631
14543W        W30804   2.810   4.497  15.268 -0.1893 -0.1497 -0.0613
14544W        W30805  11.941  10.855  12.268  0.0658 -0.1502  0.0151
14545W        W30806  17.501  11.358   5.138 -0.0583  0.1675 -0.1570
14546W        W30807   9.535  11.777  12.120 -0.0088 -0.3010  0.2231
14547W        W30808   5.765   1.159   3.784 -0.2022  0.0237 -0.0202
14548W        W30809   0.538   5.453  13.133  0.1105  0.1298 -0.1617
14549W        W30810  10.485   8.026   3.911  0.0170 -0.0629  0.1446
14550W        W30811   7.317  18.164   6.066 -0.1986  0.0040  0.0477
14551W        W30812  14.381  13.157   5.442 -0.1292  0.1363 -0.1663
14552W        W30813   9.688  13.214  13.334 -0.2301 -0.1557 -0.1818
14553W        W30814   1.950   3.762   2.172  0.1868  0.0706  0.0509
14554W        W30815  17.049   5.483   0.075 -0.0273 -0.2538  0.1841
14555W        W30816  16.841   4.931   0.815 -0.0220 -0.0291 -0.2569
14556W        W30817   4.353   1.913   5.335 -0.2048 -0.1938  0.1071
14557W        W30818  13.801  12.907  12.626 -0.2357 -0.4099 -0.0718
14558W        W30819  17.241  17.231   0.148 -0.1114 -0.0644 -0.1920
14559W        W30820   8.285  15.035   6.117  0.1576 -0.2752  0.3932
14560W        W30821  11.260   3.272   0.490 -0.0886 -0.1689  0.1788
14561W        W30822   8.014   2.032   5.409 -0.1501 -0.2348  0.1496
14562W        W30823  14.292  10.091  16.633 -0.3110  0.0437 -0.1515
14563W        W30824  17.679   6.318  16.613 -0.1741  0.0478  0.5019
14564W        W30825   5.049  14.044   4.836 -0.2851  0.0862  0.1554
14565W        W30826  15.569   9.537  15.595  0.1731  0.1890  0.0842
14566W        W30827  16.044  12.983   3.184 -0.0621 -0.0387  0.1865
14567W        W30828   0.461   2.007  11.999 -0.5715  0.0235 -0.2887
14568W        W30829   7.977   8.135  10.504  0.1401 -0.1660 -0.0036
14569W        W30830   5.564   5.837  12.971 -0.1584  0.1982  0.0844
14570W        W30831   9.124  12.500   5.899  0.0996 -0.0859  0.0314
14571W        W30832   7.300  14.522   2.309  0.2512 -0.0607 -0.0825
14572W        W30833   4.001  11.180  15.352  0.1212 -0.0400  0.0916
14573W        W30834  17.603   6.521  16.154  0.3119 -0.0503 -0.2619
14574W        W30835  11.281  16.319  11.082 -0.0513  0.0657 -0.0258
14575W        W30836  12.507  16.295   0.770 -0.5212  0.1546  0.2100
14576W        W30837   4.378  15.301  15.733  0.0277 -0.0584 -0.0364
14577W        W30838  17.762   4.124   0.617 -0.3898 -0.2311 -0.0889
14578W        W30839   1.154   7.721   1.507 -0.0815 -0.1857  0.0219
14579W        W30840   7.082  11.723  12.850 -0.0641 -0.2729 -0.1538
14580W        W30841   1.041  13.950  16.236 -0.0424 -0.1048  0.0217
14581W        W30842   6.235  10.078   1.853  0.3033 -0.1156  0.1059
14582W        W30843   6.155   7.272   4.768 -0.1067  0.0907  0.3522
14583W        W30844  15.283   6.648   0.859 -0.0967  0.0466 -0.2146
14584W        W30845   1.672  14.402  12.685  0.1248 -0.1263 -0.0068
14585W        W30846   9.134   4.489  14.040 -0.2501  0.1305 -0.1272
14586W        W30847   7.328  11.491  13.265 -0.1741  0.1499  0.0754
14587W        W30848   8.402  18.162  14.385  0.2635 -0.1336  0.1381
14588W        W30849  12.345   6.980  10.937 -0.1057 -0.3396  0.1817
14589W        W30850   6.202  14.273   1.695  0.0549 -0.2193  0.0357
14590W        W30851  10.271  16.071  12.134 -0.0723 -0.2305  0.1951
14591W        W30852   7.616   2.357  11.576 -0.3340 -0.2447  0.1793
14592W        W30853   0.864   9.673  11.649  0.2010 -0.1556 -0.3399
14593W        W30854   9.222   5.681   0.058  0.1501  0.1758 -0.2979
14594W        W30855   9.903  12.769  15.412 -0.1553 -0.1994 -0.1228
14595W        W30856   2.872  16.971  14.942  0.1262 -0.0860  0.1274
14596W        W30857   8.378   9.956  12.059  0.0582  0.2309 -0.1137
14597W        W30858   2.144  12.571   2.010 -0.4099 -0.0747  0.0489
14598W        W30859  16.728  14.318  14.430  0.0600  0.0777  0.1836
14599W        W30860   8.559  16.507  12.888  0.0429  0.0311  0.2118
14600W        W30861  14.566  13.134  16.299  0.0502  0.0776 -0.3816
14601W        W30862  16.456  11.024   1.806 -0.1658 -0.1517  0.0710
14602W        W30863  11.896  12.427   0.661 -0.0857 -0.1207  0.1441
14603W        W30864   6.687  10.905   4.931  0.1371  0.0847 -0.2084
14604W        W30865   7.062   8.240   1.621  0.1403 -0.1833 -0.1472
14605W        W30866   2.986   8.690  14.671 -0.3321 -0.2805  0.0983
14606W        W30867   0.566   8.189  11.955 -0.0007 -0.0524  0.1562
14607W        W30868  15.526   3.271   0.039 -0.0118  0.0751 -0.0363
14608W        W30869  12.070   3.736  14.934 -0.0545 -0.0589  0.1266
14609W        W30870   1.331   7.798   0.937 -0.2510  0.0497  0.2716
14610W        W30871   8.484   7.419   2.095  0.0953 -0.1188  0.2062
14611W        W30872   1.285   1.624   3.487 -0.0581  0.2074 -0.1937
14612W        W30873  17.799  14.555   3.611  0.2479  0.0098 -0.3257
14613W        W30874   8.596   0.796   1.692 -0.1025 -0.2623 -0.0088
14614W        W30875   4.296  13.602   2.830 -0.3160  0.2487 -0.0073
14615W        W30876  12.827  12.068   3.732 -0.0045 -0.3795 -0.3369
14616W        W30877   8.523   8.054   1.375 -0.0669 -0.0555 -0.2797
14617W        W30878   7.562  11.575   0.329 -0.2183 -0.0674  0.3609
14618W        W30879   1.552   0.990  12.091 -0.2134  0.2139  0.1307
14619W        W30880  17.528  15.910   2.801 -0.1016 -0.3515  0.0871
14620W        W30881   5.408   6.020  14.786 -0.1076 -0.1013 -0.0509
14621W        W30882   2.536   7.549   4.803 -0.1452 -0.0330 -0.2819
14622W        W30883   1.108  12.380   3.936 -0.0761 -0.1603  0.3864
14623W        W30884  13.891  14.208   5.362  0.1225 -0.0838  0.1254
14624W        W30885   1.375   9.991   0.885 -0.0457 -0.0616  0.3747
14625W        W30886  15.318   7.828   1.627  0.2586  0.0901  0.0438
14626W        W30887  14.280   1.341   1.088  0.2626 -0.1074 -0.4701
14627W        W30888  16.755   2.231   4.876  0.3107  0.0644  0.1185
14628W        W30889   2.869   8.633  13.802  0.0923 -0.1374 -0.5111
14629W        W30890   8.408   6.115  13.822  0.0304 -0.2634  0.0187
14630W        W30891   7.127  14.684  13.253  0.0555 -0.3938 -0.0815
14631W        W30892   4.426   2.620   4.141 -0.2490  0.3072 -0.2957
14632W        W30893  10.109   3.118   0.912 -0.1253  0.0037  0.0371
14633W        W30894   7.133  12.406  11.523  0.0087 -0.0376  0.1181
14634W        W30895   2.635  12.108  15.348 -0.1811 -0.2073  0.1665
14635W        W30896  16.540   5.317  16.457 -0.0162  0.2951 -0.2422
14636W        W30897   9.404  13.222   1.365  0.0257  0.1939 -0.1871
14637W        W30898   5.749   2.258  11.942 -0.3481  0.1425 -0.3299
14638W        W30899   3.498  16.126   2.256  0.2001  0.0391  0.2381
14639W        W30900  15.766   6.535   4.003  0.2042 -0.4576  0.1458
14640W        W30901   6.156   7.383  11.218 -0.0985  0.1514  0.1489
14641W        W30902  10.732  16.402   6.464 -0.0078 -0.0157 -0.3094
14642W        W30903   7.672  12.858   6.206  0.0446  0.0795 -0.1991
14643W        W30904   2.850   9.087   2.968 -0.2374  0.0582  0.0022
14644W        W30905   1.290   7.867   2.381 -0.2289  0.0496 -0.0563
14645W        W30906   7.907   8.898  16.206  0.2866  0.2045 -0.0903
14646W        W30907   0.674   7.876   1.302 -0.3523  0.2689 -0.2068
14647W        W30908   9.668   6.732   0.195  0.3226 -0.0962 -0.0414
14648W        W30909  10.652   4.983  12.592 -0.2362 -0.2670  0.3319
14649W        W30910   5.956   3.089   1.359 -0.2142 -0.2672 -0.1969
14650W        W30911   0.853  15.796  16.282 -0.0095  0.0463  0.2869
14651W        W30912   0.434   3.066  13.983  0.3880 -0.0588 -0.1976
14652W        W30913   2.375   7.218  13.045 -0.1873 -0.1322  0.0894
14653W        W30914  10.074  11.937  14.755 -0.0108  0.1329 -0.1329
14654W        W30915   5.336  15.967  12.140 -0.2054 -0.2310 -0.1650
14655W        W30916   8.224   1.531  15.219 -0.0684 -0.3116 -0.0027
14656W        W30917  13.887  17.316  11.343  0.0810  0.2842  0.1261
14657W        W30918  17.878   8.674   3.133 -0.2129 -0.0541  0.1263
14658W        W30919   8.906  17.216   4.152  0.2175 -0.1653 -0.0013
14659W        W30920  16.198   0.313   2.093  0.2302 -0.0987  0.0269
14660W        W30921   0.428   5.201  13.677  0.2492  0.2329  0.2577
14661W        W30922  16.001   2.347   1.814  0.0051  0.0611 -0.0242
14662W        W30923   4.377   0.403  15.858  0.2980  0.1496  0.0366
14663W        W30924  12.939   6.672  13.020  0.1328 -0.1488  0.1742
14664W        W30925   9.450  18.039   2.339  0.0021 -0.0668 -0.0043
14665W        W30926  18.134  13.144  13.045  0.1063 -0.0709  0.0566
14666W        W30927   6.122   5.743  13.248  0.1293 -0.1348  0.1486
14667W        W30928  15.552   0.427  15.585 -0.3172  0.0075 -0.0070
14668W        W30929  14.835   6.973   4.699  0.1174 -0.1425  0.0324
14669W        W30930   5.531   8.381  11.652 -0.3746 -0.0687 -0.1437
14670W        W30931   6.369   5.048  12.068  0.1054  0.1224  0.0602
14671W        W30932  10.022   1.732  15.748  0.0805 -0.2817 -0.0784
14672W        W30933   2.035   2.619  16.363 -0.0216 -0.2464 -0.2454
14673W        W30934  13.451  17.624  12.180 -0.0535  0.3113  0.0303
14674W        W30935   9.625   3.173  12.166  0.0406 -0.0994  0.5279
14675W        W30936  10.887  14.348   3.573  0.0744  0.2840 -0.1493
14676W        W30937   2.656   9.769   2.963  0.4243  0.0741 -0.0920
14677W        W30938  12.531   6.758  10.063 -0.1738  0.2152 -0.1156
14678W        W30939   6.023   4.542   6.023  0.0004  0.1232 -0.2602
14679W        W30940  12.348   5.577  16.605 -0.1656  0.1012  0.0105
14680W        W30941   0.109   2.966  15.634 -0.2406  0.0997 -0.1370
14681W        W30942   7.927   6.228  15.087 -0.1690  0.0965  0.0513
14682W        W30943  17.487   6.224   5.958 -0.1060  0.2652 -0.1704
14683W        W30944  13.889   0.770   2.612 -0.2746  0.0418  0.0751
14684W        W30945   5.809  14.028  14.462 -0.2096  0.0338 -0.0649
14685W        W30946   3.441   2.312   2.545  0.0733 -0.1445  0.0479
14686W        W30947  10.307   1.803  12.421  0.0814 -0.1876 -0.1910
14687W        W30948   8.164   2.769   5.879  0.0549  0.0125  0.3537
14688W        W30949   4.672  10.937  16.551  0.1351 -0.2512  0.0770
14689W        W30950   0.555   4.222   0.277 -0.0454  0.0281 -0.0758
14690W        W30951  13.105   8.396   5.655  0.1894 -0.0760  0.2436
14691W        W30952   4.940   5.223   3.216  0.3196  0.3074  0.1480
14692W        W30953  12.379   0.855   5.036  0.1640  0.0709 -0.3145
14693W        W30954  11.902  17.517  13.904  0.0543  0.2497 -0.1144
14694W        W30955   7.529  15.145   5.533 -0.0024  0.1484 -0.2784
14695W        W30956  13.005  14.016  13.827 -0.1384  0.1433 -0.0095
14696W        W30957   7.807  11.007   1.761 -0.1857 -0.0461  0.2076
14697W        W30958   3.494   1.635  13.990  0.0859 -0.0916 -0.0920
14698W        W30959  17.021   0.166   0.954 -0.2346  0.2036  0.2257
14699W        W30960  11.087   9.532  14.373 -0.0059  0.3239  0.0814
14700W        W30961   0.889   0.901   2.192 -0.1064  0.0060 -0.0202
14701W        W30962  17.969  13.546  11.545 -0.0326  0.1438 -0.0809
14702W        W30963  12.851  13.736   2.467 -0.0134 -0.1034 -0.1023
14703W        W30964   7.241  17.725  10.683 -0.1412  0.1401  0.1912
14704W        W30965   3.832  14.627   2.470  0.0144 -0.3787 -0.0535
14705W        W30966  17.453  11.178   3.789 -0.0886  0.3890  0.3987
14706W        W30967   1.004   7.198  11.880  0.0696 -0.1685 -0.0588
14707W        W30968  12.013  11.354  12.353 -0.5681  0.0997 -0.0688
14708W        W30969   8.093   5.763  11.561  0.2027  0.1319  0.2129
14709W        W30970  17.061   7.553   6.079  0.3863 -0.1825  0.0674
14710W        W30971   6.330   2.892   2.036  0.0486 -0.0707  0.3020
14711W        W30972   0.928   4.995   0.749 -0.0786 -0.1470  0.2130
14712W        W30973  17.847   3.966   2.085 -0.3109 -0.2024  0.1013
14713W        W30974   8.155   9.995  15.023 -0.0042  0.0846  0.0458
14714W        W30975   0.729   8.286  12.433 -0.1293 -0.0832 -0.0096
14715W        W30976  13.497   5.302  14.608 -0.0367  0.0087 -0.2070
14716W        W30977  13.012   0.867   2.673 -0.2581  0.0638 -0.3250
14717W        W30978   4.454   4.863  13.929  0.1204  0.3069  0.1988
14718W        W30979  18.046  15.237  13.949 -0.3693  0.2601  0.0060
14719W        W30980  14.716  14.263   0.387 -0.2841  0.0315 -0.0024
14720W        W30981  16.283   7.664   4.329 -0.3570  0.2300 -0.0809
14721W        W30982  11.826  16.907   3.071  0.0656  0.3599  0.0210
14722W        W30983  13.830  16.880   4.587  0.1328  0.4254  0.1601
14723W        W30984   1.549  11.654  16.625  0.1751  0.2218  0.1154
14724W        W30985   1.556   2.200   4.748 -0.4103  0.3632  0.0245
14725W        W30986   9.849   0.393  13.961 -0.1968 -0.0903  0.2855
14726W        W30987   0.638  15.508  15.558  0.1181  0.0257  0.0285
14727W        W30988   9.364   9.874  10.634  0.2001 -0.2626  0.1814
14728W        W30989   7.832  15.739   2.963 -0.0587  0.0614 -0.0858
14729W        W30990  17.027   1.962  16.525  0.2821  0.2458 -0.1956
14730W        W30991   6.509   4.817  15.518 -0.2164  0.0825 -0.1782
14731W        W30992   9.905   5.231   1.468 -0.2323 -0.0382 -0.0901
14732W        W30993   3.893   4.895  13.820  0.0782 -0.1118 -0.1460
14733W        W30994   5.038   3.856  11.260 -0.2093 -0.0588  0.0920
14734W        W30995   1.534   9.707   1.453  0.2504  0.1898  0.1060
14735W        W30996   5.006   5.575   0.250  0.2179  0.1108  0.0418
14736W        W30997   7.149   3.829   5.734  0.2830 -0.1124  0.3101
14737W        W30998   3.255  16.376   2.678 -0.1300 -0.0409  0.2401
14738W        W30999   7.530   8.736   4.272  0.0488  0.0263  0.0169
14739W        W31000   3.991  16.522  12.849 -0.0242 -0.2951 -0.3787
14740W        W31001   4.747   3.107   4.875  0.4429  0.2337  0.4884
14741W        W31002   8.933   8.574  15.691  0.0616 -0.0977 -0.1485
14742W        W31003   0.162   5.129   4.639  0.1064 -0.1015 -0.1384
14743W        W31004  16.067   9.088  16.506  0.0273 -0.0478 -0.0259
14744W        W31005   5.791   2.766  11.712  0.1299  0.0880  0.4126
14745W        W31006   5.331   0.134  16.052  0.2990  0.1804  0.3106
14746W        W31007   7.421   3.891   4.669  0.1299  0.0830  0.1486
14747W        W31008  10.520   2.995  16.521  0.1690 -0.0494 -0.1849
14748W        W31009   7.181  13.921   3.472  0.3501 -0.2321  0.2511
14749W        W31010   9.566   8.112   0.657 -0.0208 -0.0276  0.4129
14750W        W31011   2.708   1.987  13.217  0.2223  0.0067 -0.1891
14751W        W31012  16.559  15.690  13.723 -0.0569 -0.0094 -0.2119
14752W        W31013  13.720   6.039  12.172 -0.3069  0.1397 -0.0289
14753W        W31014   8.081  11.471   0.161 -0.0949 -0.1578 -0.0702
14754W        W31015   9.174   5.365   0.833 -0.2650  0.3173 -0.3049
14755W        W31016   7.588   7.355   3.766  0.2190 -0.3135  0.0677
14756W        W31017  14.227   1.738  11.167  0.0035 -0.3572 -0.2542
14757W        W31018  13.535   1.834  15.031 -0.1490  0.0808  0.0031
14758W        W31019  17.400   5.091   4.496  0.0039 -0.1399 -0.1507
14759W        W31020  13.033  16.893  13.007  0.0399  0.0453  0.1803
14760W        W31021  16.927   6.102   0.999  0.1652 -0.1458  0.2338
14761W        W31022  15.436  11.767   0.707  0.0693 -0.0366 -0.0432
14762W        W31023  14.384  15.919   2.525 -0.2341  0.1286 -0.0790
14763W        W31024  10.870  12.171   2.316  0.0311  0.0647 -0.1899
14764W        W31025   5.902   8.372  12.083 -0.1781  0.2440 -0.4654
14765W        W31026   9.147   5.161  11.328 -0.2571  0.3476  0.2159
14766W        W31027  11.207   1.557   4.224 -0.1361  0.2024 -0.0914
14767W        W31028   6.385   1.966   3.983  0.3183 -0.0058  0.0975
14768W        W31029   0.318  12.767   3.265  0.2723 -0.3616  0.1238
14769W        W31030  18.027  13.434  13.392  0.2979  0.0352 -0.3520
14770W        W31031  14.818  16.407  11.968  0.1035  0.0736  0.0579
14771W        W31032  10.462  16.695  13.275  0.2516  0.1575  0.1638
14772W        W31033   5.954  13.367  16.233  0.0918  0.2833 -0.0425
14773W        W31034   8.190   4.010  15.675  0.0809  0.0796  0.3053
14774W        W31035  10.092  13.389  11.769 -0.2461 -0.0726  0.0278
14775W        W31036  12.374   4.820  12.741  0.1426  0.1519 -0.2162
14776W        W31037   7.477   4.593   0.468 -0.2038 -0.3659  0.4129
14777W        W31038   8.689   1.031   0.755  0.0998  0.1800  0.2078
14778W        W31039   8.483   3.262   5.340 -0.3612  0.1011  0.1287
14779W        W31040   4.323   6.983  12.852  0.0278  0.3355  0.0333
14780W        W31041   1.789  18.034   1.627 -0.0577  0.4506 -0.1647
14781W        W31042  17.770  10.517  15.443 -0.2623  0.0851 -0.1637
14782W        W31043  17.319  10.261  14.261  0.0494 -0.0978  0.0021
14783W        W31044  14.769   5.173   3.019 -0.2220 -0.3109  0.2294
14784W        W31045  17.740   9.306  16.299  0.1278  0.3882  0.1792
14785W        W31046   8.926   7.137   4.787 -0.0644  0.1667 -0.0847
14786W        W31047   8.869   8.942   0.460  0.0320 -0.2762  0.1883
14787W        W31048   3.917   4.130   4.152 -0.0712  0.1366 -0.3606
14788W        W31049   6.829   5.912  12.977 -0.4597 -0.3782  0.0115
14789W        W31050  11.897   2.305  14.995 -0.0511 -0.4133 -0.2363
14790W        W31051  14.455   0.779  16.022  0.3879  0.1287  0.1041
14791W        W31052  17.973   0.401   2.598 -0.0761 -0.1329 -0.0361
14792W        W31053   5.741  18.056  14.059  0.0099  0.0255 -0.1994
14793W        W31054   4.847   4.930   4.459  0.0587 -0.0367  0.2340
14794W        W31055  12.590   9.091   1.093 -0.2340  0.2332 -0.1442
14795W        W31056  17.663   6.419  13.423  0.0036 -0.0387 -0.2780
14796W        W31057   7.440   7.983   0.606  0.1061  0.1020 -0.0771
14797W        W31058  11.152   6.886   5.328 -0.0763 -0.2755 -0.1467
14798W        W31059   6.753  15.003   2.532  0.2902 -0.4868 -0.1488
14799W        W31060  17.234  11.217   4.201 -0.2978  0.0731  0.0380
14800W        W31061   6.082  12.268   3.573 -0.1148 -0.1479 -0.2158
14801W        W31062   6.414   8.646  12.520  0.1652 -0.2307 -0.1699
14802W        W31063  12.934   9.872  12.814  0.0561 -0.0847  0.0185
14803W        W31064  11.731  14.132   2.201  0.4757  0.0342 -0.0606
14804W        W31065   6.085   2.156   1.038 -0.0134  0.2514 -0.2000
14805W        W31066  14.901  16.463  13.574 -0.1675  0.0982 -0.1169
14806W        W31067  10.853  14.444   4.916  0.0798  0.1150 -0.3443
14807W        W31068   1.736   9.004  14.640  0.1096  0.0294 -0.2883
14808W        W31069   0.704   0.143   1.080 -0.1596  0.1058  0.0290
14809W        W31070   6.540   0.253   5.164  0.0778 -0.1076  0.1620
14810W        W31071   0.944  12.788   4.225 -0.2456 -0.0598  0.0128
14811W        W31072  14.015  14.972   1.640  0.0489  0.1530  0.2783
14812W        W31073  13.694   2.367  14.278 -0.1196 -0.1084  0.1744
14813W        W31074   1.035   6.091   2.277  0.5937  0.0523  0.2357
14814W        W31075   0.139   3.908  15.523  0.1482 -0.0095  0.2111
14815W        W31076   9.903  15.641   0.288  0.1755 -0.0565  0.1085
14816W        W31077   2.610  12.636   5.578 -0.3488 -0.1456  0.0173
14817W        W31078   8.132   8.032  12.290 -0.1049 -0.3548 -0.2294
14818W        W31079  17.640  10.659  16.354  0.0048  0.0646 -0.1068
14819W        W31080   6.871  17.376   2.174  0.1609 -0.1977  0.0591
14820W        W31081  12.668  17.111  12.751 -0.3719  0.2213 -0.2442
14821W        W31082   4.996   4.318  15.273 -0.0657 -0.0769  0.2644
14822W        W31083   4.500  16.950   1.723 -0.4042 -0.1307  0.0089
14823W        W31084   9.505   3.075  16.155  0.4650  0.0857  0.4252
14824W        W31085  11.068  17.759   3.331 -0.0214 -0.0524 -0.2148
14825W        W31086   9.542   7.212  13.537  0.0300 -0.1030 -0.0213
14826W        W31087   7.649  15.847  12.970 -0.2576  0.0243  0.0193
14827W        W31088  15.749   7.807  14.211  0.0663  0.1501 -0.0281
14828W        W31089  10.091  13.385   6.096  0.1791 -0.0190  0.3512
14829W        W31090  12.380   1.186  13.203 -0.1031  0.2068  0.0191
14830W        W31091   1.175   5.240   3.010 -0.0640 -0.0877  0.1507
14831W        W31092   8.508   7.800  11.976 -0.0005 -0.1737 -0.0468
14832W        W31093   3.631   4.368  14.923 -0.1353 -0.1301  0.1197
14833W        W31094  14.075  12.158  13.979 -0.0157 -0.3319 -0.1036
14834W        W31095  12.999  16.483   5.527  0.0553 -0.2158  0.1085
14835W        W31096   2.097   5.150  13.207 -0.0720  0.1787 -0.1141
14836W        W31097   5.364   0.809   5.734 -0.1545 -0.1249 -0.1962
14837W        W31098   1.068   4.523   4.756 -0.2519 -0.0064 -0.2642
14838W        W31099   5.424   2.780  15.662 -0.2109 -0.0642  0.0941
14839W        W31100  11.173   1.057   4.002  0.0622  0.0539 -0.2259
14840W        W31101   3.283   8.548  11.943  0.0011  0.0499  0.0728
14841W        W31102   0.128  11.639  11.522  0.0349  0.1770 -0.2311
14842W        W31103   6.058  17.746   0.879  0.2420 -0.2147  0.1780
14843W        W31104   3.489  13.809  15.163 -0.0370  0.0180 -0.2586
14844W        W31105   1.166   3.449   0.158  0.2229 -0.0989  0.1935
14845W        W31106  18.094   1.266   5.739  0.2271 -0.0411 -0.1592
14846W        W31107   0.141  13.829  11.893 -0.0034  0.1576  0.0816
14847W        W31108   4.245   4.066  12.646 -0.3260  0.1908  0.0166
14848W        W31109  10.384   3.566  13.616  0.1192  0.1528  0.1714
14849W        W31110   8.340   7.312  16.230 -0.1967  0.1505 -0.1440
14850W        W31111  13.851   5.532   2.460  0.2271 -0.1498  0.0105
14851W        W31112   6.052   2.853  14.949 -0.5435 -0.0199  0.2102
14852W        W31113  16.735  17.315   3.884  0.0374  0.3280 -0.2521
14853W        W31114   4.630  12.726   0.612  0.0670  0.0247 -0.2542
14854W        W31115  12.626  14.289   4.454  0.0770  0.1357  0.1338
14855W        W31116   8.700   7.642  12.971 -0.1137 -0.0087 -0.1510
14856W        W31117   9.782  14.763   6.119  0.2136  0.0751 -0.2607
14857W        W31118   7.115  12.303  14.214  0.1222  0.0662  0.1382
14858W        W31119   4.398   3.926   4.659  0.1061 -0.0426 -0.1686
14859W        W31120   5.176  13.483  12.605  0.2202 -0.1425 -0.3106
14860W        W31121  11.662   0.390  11.878 -0.1747  0.1559 -0.0584
14861W        W31122   3.635   3.990   0.661 -0.0962  0.3150 -0.0585
14862W        W31123  13.047   3.782   2.503 -0.1004  0.1139 -0.2699
14863W        W31124   0.503   9.213  13.680  0.1849  0.0253 -0.0492
14864W        W31125   1.928  14.499   2.611  0.1494 -0.0442  0.1079
14865W        W31126   9.760   7.256   0.809  0.2798  0.3502 -0.0225
14866W        W31127   3.982   6.089  13.098  0.1884  0.4859  0.0889
14867W        W31128   4.670   2.744   1.652 -0.0378 -0.2800 -0.1864
14868W        W31129  17.014  10.255   0.475 -0.0757  0.2465  0.2411
14869W        W31130  14.120   3.665  16.098 -0.0696 -0.0475  0.1032
14870W        W31131   8.372  16.807   1.532 -0.1609  0.1766  0.1014
14871W        W31132  10.047  17.835  14.872  0.1990  0.0213 -0.1072
14872W        W31133   6.713   8.802   2.870 -0.0586  0.0660  0.3526
14873W        W31134   7.065   2.228   4.074 -0.1191 -0.0108  0.2172
14874W        W31135   9.918   3.948   5.152  0.3306 -0.0775 -0.1995
14875W        W31136  12.663   1.200  10.943 -0.1533  0.3034 -0.0095
14876W        W31137   2.200  13.194  13.303 -0.1032 -0.1172  0.0488
14877W        W31138   9.643   1.676  14.264  0.0487 -0.1188 -0.3095
14878W        W31139   0.615  12.944  16.317 -0.2273  0.2406  0.0222
14879W        W31140   4.998   5.364  13.430 -0.1151 -0.1881 -0.1901
14880W        W31141  15.509  13.638  14.967 -0.0349  0.1557 -0.0179
14881W        W31142   4.145  17.828   3.371 -0.0721  0.1029  0.0514
14882W        W31143   0.727   8.390   4.184 -0.0481  0.3460 -0.1012
14883W        W31144  17.562   6.499  15.652  0.2279 -0.0985 -0.1269
14884W        W31145   3.722  12.195  16.070 -0.0350 -0.2505 -0.0677
14885W        W31146  11.463  10.964   0.132  0.0430  0.0354 -0.2020
14886W        W31147  14.100   3.251  15.332  0.2161  0.0214 -0.3849
14887W        W31148   5.021  16.704  11.911 -0.1856 -0.4527 -0.2402
14888W        W31149   3.427   8.971   5.472 -0.0380 -0.0567  0.1396
14889W        W31150   5.464   1.883   6.486 -0.0183  0.2653  0.1017
14890W        W31151  15.439   4.032  15.286 -0.2353 -0.0023  0.0531
14891W        W31152   6.308   2.886   6.333  0.0315  0.2777 -0.2243
14892W        W31153  14.391  10.374  13.937  0.0763 -0.3036 -0.0948
14893W        W31154   3.130  16.451  11.546 -0.1201 -0.1641  0.0506
14894W        W31155   9.308  16.053   3.997  0.0767  0.3053 -0.2928
14895W        W31156  15.473  18.135  11.307  0.0054 -0.4780  0.1315
14896W        W31157   1.905  13.351   0.810  0.0965  0.0470  0.0925
14897W        W31158   4.265   7.871  10.932  0.2771  0.0099 -0.1995
14898W        W31159   7.972   8.679   1.173  0.2826  0.0200  0.1305
14899W        W31160   6.516  17.033  15.287  0.1725 -0.0562 -0.2593
14900W        W31161  17.357   7.587  14.101 -0.1222  0.1343 -0.1342
14901W        W31162   9.199   7.381  13.161  0.4128 -0.0462 -0.0570
14902W        W31163   5.424   8.633   4.588 -0.1905  0.1338 -0.0779
14903W        W31164   0.218   2.557   0.793  0.2866 -0.0248 -0.1328
14904W        W31165  17.494  11.578  15.362  0.1149 -0.1565 -0.1902
14905W        W31166  11.948   7.615  11.758  0.1862 -0.0836  0.2581
14906W        W31167  16.019   6.403  11.831  0.1678 -0.0193 -0.0052
14907W        W31168   5.138  17.828   3.327 -0.1714 -0.1470  0.2652
14908W        W31169  17.030   6.078  11.597  0.0554 -0.3653 -0.0480
14909W        W31170   5.628   2.385  14.328  0.1850  0.2345 -0.0097
14910W        W31171   6.518   1.111   0.881 -0.3664 -0.2708 -0.1557
14911W        W31172   8.489   0.432  14.228  0.1819  0.1143 -0.0922
14912W        W31173  10.996   8.906   4.888 -0.0152  0.0604 -0.0572
14913W        W31174   8.027   7.260   6.248 -0.0357  0.1667 -0.0936
14914W        W31175  11.108   2.200  13.061  0.2297 -0.3929  0.0607
14915W        W31176  10.535   0.284  15.732  0.1742 -0.1549  0.2515
14916W        W31177  15.936   1.028  13.288 -0.0854 -0.0013 -0.3727
14917W        W31178  14.342  10.233  11.811  0.0492  0.1569 -0.1540
14918W        W31179  16.931  11.590  11.851 -0.0761 -0.1806  0.3087
14919W        W31180  12.844  12.859  15.479 -0.2491 -0.1248  0.0191
14920W        W31181  17.678   5.748   1.381  0.4357  0.0044  0.0132
14921W        W31182   3.784  11.766   4.355  0.0571 -0.1502  0.1128
14922W        W31183   5.632   6.591   4.193  0.3196 -0.1789 -0.0447
14923W        W31184   9.786  10.676  12.956  0.0371 -0.0783  0.2597
14924W        W31185   8.805  16.076   4.035 -0.0138 -0.1861  0.1958
14925W        W31186   4.390   3.059   1.359  0.2579 -0.2101 -0.1822
14926W        W31187  10.975  16.843  11.225 -0.0452 -0.1733 -0.1110
14927W        W31188   8.655   2.871  14.083 -0.0866  0.2079 -0.2697
14928W        W31189   4.900   9.396   1.238  0.1074  0.3662  0.1553
14929W        W31190  12.059  10.680   1.148 -0.1870  0.1073  0.6682
14930W        W31191  10.206  15.858  11.269  0.0927  0.0790  0.0631
14931W        W31192  16.753   9.686  12.752  0.2310  0.0660 -0.2890
14932W        W31193   0.003  16.494  11.383  0.0621  0.4117 -0.0927
14933W        W31194  12.298   2.612   2.190  0.1830  0.0586  0.1418
14934W        W31195   8.654   4.343  13.912 -0.0017  0.3419 -0.2425
14935W        W31196   5.598  17.180  11.677 -0.0656 -0.1786  0.1847
14936W        W31197   0.359  10.840  14.125  0.0462 -0.0454  0.2001
14937W        W31198   7.081  12.733  16.403 -0.1930  0.1214 -0.0730
14938W        W31199   3.804  10.615  12.041 -0.0822 -0.0547  0.2950
14939W        W31200  17.887  12.772  15.405  0.1582 -0.1098 -0.0314
14940W        W31201   6.650   6.039   3.607  0.3423 -0.0738  0.2157
14941W        W31202  17.071   7.916  12.859 -0.4705  0.0428  0.2967
14942W        W31203   8.412   1.572  15.935  0.0810  0.0160 -0.0300
14943W        W31204   0.509  15.481  12.172  0.0215  0.1175 -0.0052
14944W        W31205   6.119   6.565   4.882  0.1740 -0.1853 -0.3121
14945W        W31206  15.600  15.971   0.245  0.1134 -0.0677  0.2985
14946W        W31207  15.940   5.259   2.843  0.1676  0.1268 -0.0904
14947W        W31208  14.305   8.302  13.970 -0.1532 -0.1657  0.0717
14948W        W31209   2.052   9.294   2.478  0.0506 -0.1736 -0.3739
14949W        W31210  17.479   1.503  15.194 -0.0126 -0.0206  0.2088
14950W        W31211  16.672   9.841  16.384  0.2068 -0.3176  0.0930
14951W        W31212   7.374   7.191   2.947 -0.0228 -0.2447  0.3767
14952W        W31213   6.028  16.621   5.695 -0.2424  0.2275  0.1615
14953W        W31214  11.636  10.384  13.332 -0.0993 -0.0121  0.0171
14954W        W31215   6.637  12.690  12.013  0.0586  0.0442  0.0881
14955W        W31216   7.504   5.556  11.104  0.1686 -0.0336 -0.1707
14956W        W31217  12.330  10.300   3.779 -0.1999 -0.1159  0.0654
14957W        W31218   0.970  10.814   5.731 -0.1871  0.2120  0.0828
14958W        W31219   2.578  16.465   0.251  0.2178 -0.1502  0.3460
14959W        W31220   8.354   9.549   5.039 -0.1863 -0.0269 -0.1715
14960W        W31221  18.172  10.176   1.304 -0.0558 -0.1982 -0.2984
14961W        W31222  12.167   4.116   1.271 -0.1960  0.0558  0.1987
14962W        W31223  14.156   4.620  15.619  0.0653  0.0843  0.1797
14963W        W31224   5.421  10.781  14.436  0.1869  0.1737  0.1069
14964W        W31225   3.327  16.185  15.737  0.0574 -0.2027 -0.2627
14965W        W31226   2.567   2.240   3.715 -0.3155  0.1075  0.0951
14966W        W31227   6.952   1.657  14.778  0.3059  0.0591  0.1241
14967W        W31228   1.346  12.750   1.877 -0.3903  0.1700 -0.1328
14968W        W31229   6.064   5.245  13.262 -0.4673  0.2517  0.0678
14969W        W31230   0.380  15.734  12.678 -0.0946 -0.0693 -0.1247
14970W        W31231  17.610   5.415   1.886  0.1042  0.0319  0.2639
14971W        W31232  15.865   2.842   1.685  0.0662 -0.1434 -0.1338
14972W        W31233   9.494  18.002  11.687  0.0859 -0.1001  0.2454
14973W        W31234  17.352   3.188   0.236 -0.1634 -0.2508 -0.2919
14974W        W31235   1.512   3.239   2.127 -0.0305  0.3115 -0.0353
14975W        W31236  15.487  12.772   1.516  0.1221  0.2279  0.1264
14976W        W31237   1.648  12.740  11.492 -0.2286  0.3252 -0.2173
14977W        W31238  12.070  15.045  15.725  0.1023 -0.0834  0.0434
14978W        W31239   0.481   0.970  14.198  0.0106  0.0875 -0.2751
14979W        W31240   4.556   1.131   5.163  0.0542  0.0035  0.0737
14980W        W31241   4.835   7.225  15.925  0.1883 -0.1548  0.1503
14981W        W31242   1.962   0.155  11.654  0.1026  0.0041 -0.0396
14982W        W31243  11.374   6.388   4.340 -0.0078 -0.1644 -0.3767
14983W        W31244  10.081   0.674  14.240  0.0682 -0.1289  0.2048
14984W        W31245  16.788   5.949   4.463  0.1549  0.2053 -0.1899
14985W        W31246   8.263   3.495   4.413 -0.0521  0.1137 -0.2943
14986W        W31247   2.663   2.418   5.592  0.0363  0.2954 -0.1232
14987W        W31248   3.830  14.847   1.093 -0.3362 -0.4080  0.3848
14988W        W31249   0.499   4.216   4.552  0.2255  0.2608  0.0504
14989W        W31250  17.734   5.858   5.625 -0.1329 -0.0001  0.0372
14990W        W31251  13.998   2.396  11.635 -0.0067  0.1427  0.0732
14991W        W31252  16.661   2.610   5.305  0.0541  0.0044  0.2436
14992W        W31253  11.221   4.371  15.621  0.4296  0.0089 -0.0298
14993W        W31254   9.439   9.059  11.225  0.0662 -0.1349 -0.1231
14994W        W31255  11.533   3.412  14.992  0.0557  0.0856 -0.1767
14995W        W31256   0.307  14.273  15.627  0.2295 -0.1268 -0.4149
14996W        W31257  11.490   8.413   5.610 -0.2382 -0.4485 -0.0697
14997W        W31258  11.079   9.426  15.129  0.2214  0.0632 -0.0931
14998W        W31259   6.189  10.328   0.255  0.0158  0.1143  0.0087
14999W        W31260  11.926  16.992  15.845 -0.1919 -0.0823  0.2056
15000W        W31261   8.969   0.711   5.736  0.1506 -0.0095 -0.3699
15001W        W31262   5.992  17.329   2.203  0.1504  0.0949  0.0752
15002W        W31263  13.683   4.868  14.366 -0.0818 -0.0907 -0.0347
15003W        W31264  17.317   7.619   3.891  0.0610 -0.0658  0.1624
15004W        W31265   5.244   2.366  16.612  0.0622 -0.0367  0.3167
15005W        W31266   7.097   6.996  14.099 -0.3350 -0.2754  0.0564
15006W        W31267   3.660   6.097   1.791 -0.3055  0.0821 -0.1515
15007W        W31268  18.188   7.103  11.629  0.0298  0.2823 -0.1134
15008W        W31269  17.896   6.472   5.629  0.1012 -0.2579  0.1619
15009W        W31270  16.386   1.605   3.835 -0.4342 -0.3323  0.0588
15010W        W31271  10.223   2.567  15.020  0.1365  0.0412  0.0683
15011W        W31272   4.458  11.356   3.232  0.1536  0.1745 -0.3190
15012W        W31273  12.014  12.180  15.645  0.2187  0.2886 -0.0730
15013W        W31274  14.430  18.048   1.623  0.1229 -0.4179  0.0715
15014W        W31275  15.520   7.787  15.125  0.0285  0.1758  0.1561
15015W        W31276   9.303   9.294   5.127  0.0135 -0.0074  0.1975
15016W        W31277   5.396  15.114  16.570  0.0380 -0.0450 -0.0783
15017W        W31278  17.071   6.428  15.397 -0.2752  0.0405  0.2153
15018W        W31279  14.334   3.835   2.219  0.1925  0.0785  0.2300
15019W        W31280   3.259   2.440  11.608  0.0798  0.0805 -0.1661
15020W        W31281   4.397  11.923   2.917  0.0088 -0.0389  0.0039
15021W        W31282  15.468  11.886  14.916  0.3572  0.0607  0.0599
15022W        W31283  15.115   2.724   0.125 -0.2431  0.1842  0.0569
15023W        W31284   8.686   5.865   2.623 -0.0307 -0.1567  0.0141
15024W        W31285  13.129   5.914   4.501 -0.1056 -0.1879  0.2840
15025W        W31286   8.636   6.584  13.698 -0.3941  0.0047 -0.0935
15026W        W31287   5.421  11.331   5.177 -0.0147  0.2434  0.0074
15027W        W31288  17.690  11.911  14.326  0.1121 -0.0935  0.2552
15028W        W31289  10.015   1.513  11.652 -0.1601 -0.3010 -0.0054
15029W        W31290  12.002  13.949  15.614  0.2044  0.2259 -0.3381
15030W        W31291  11.482  13.769   4.299 -0.1573  0.1381 -0.4896
15031W        W31292   1.157   7.298   0.590 -0.2337 -0.1185 -0.1823
15032W        W31293   1.191   1.991  14.779 -0.3560  0.1420 -0.0875
15033W        W31294   0.754   6.599   4.920 -0.0922 -0.3982 -0.1386
15034W        W31295  11.205   0.839  15.558  0.0396  0.1115 -0.0821
15035W        W31296   6.146   0.482   5.320  0.1567 -0.0194  0.0068
15036W        W31297   6.947   5.353  15.780 -0.2294 -0.1393  0.1204
15037W        W31298  14.996  12.722   1.462  0.0378 -0.2658  0.1540
15038W        W31299   4.911   5.951  14.977  0.4522 -0.1936  0.2238
15039W        W31300   8.730  11.494  14.801 -0.1455  0.5380 -0.4284
15040W        W31301   4.310   6.305  12.009 -0.0303 -0.0076 -0.1114
15041W        W31302   4.043  14.214  14.548  0.2008 -0.2019  0.1661
15042W        W31303  13.387   7.463  13.122  0.1041  0.0416  0.2184
15043W        W31304  17.185  10.535  16.636 -0.0943 -0.2709 -0.2277
15044W        W31305   9.300   3.667   3.656 -0.1444 -0.1238 -0.1684
15045W        W31306   8.071   3.391  12.556  0.3604  0.3172 -0.0602
15046W        W31307  13.729   6.986  16.438  0.1170  0.1567  0.1311
15047W        W31308   5.471   0.559   0.741 -0.5642 -0.1338  0.2637
15048W        W31309   9.658  10.176   3.454 -0.0685 -0.1126 -0.0404
15049W        W31310  12.087   7.080   4.218 -0.0984  0.0934 -0.1684
15050W        W31311  17.090  10.659   4.421 -0.0385 -0.0181 -0.3246
15051W        W31312   2.741  16.657  14.462  0.1525 -0.0836  0.0005
15052W        W31313   2.304   8.051  11.486 -0.0626  0.2358  0.1817
15053W        W31314   6.103  10.412  14.688  0.4112  0.1698 -0.1293
15054W        W31315   1.858  12.392   5.457  0.1712 -0.1497 -0.1854
15055W        W31316   7.918   3.285  13.452  0.1495  0.1125 -0.0120
15056W        W31317  10.507  11.899  15.662 -0.0326 -0.1111 -0.0644
15057W        W31318   2.724   0.915  15.564  0.0141 -0.3046 -0.3020
15058W        W31319   7.453  14.793   0.964  0.2035 -0.1409 -0.3664
15059W        W31320  10.479  12.824  12.993  0.1949  0.3691 -0.0903
15060W        W31321   2.790   3.721   2.384 -0.0029 -0.1772  0.1290
15061W        W31322  10.620  11.032  12.274 -0.1738  0.0826  0.1344
15062W        W31323   7.704   7.188  12.986  0.4730 -0.1224 -0.1103
15063W        W31324  14.338   3.813   0.300  0.2537  0.0766 -0.1452
15064W        W31325   0.764   5.308   3.326  0.3325  0.2203  0.0392
15065W        W31326  14.045  11.919   2.615 -0.1270 -0.0739 -0.1897
15066W        W31327   5.918  13.859  16.306  0.1733 -0.0301 -0.1845
15067W        W31328  10.828  15.283   5.134  0.0793 -0.0531  0.1394
15068W        W31329   0.181   0.739  12.192  0.1277  0.5144 -0.1862
15069W        W31330  14.637   1.691  16.042  0.1755  0.0269 -0.0646
15070W        W31331   4.936  16.152  14.925  0.0484 -0.3635 -0.0073
15071W        W31332  11.214  15.906  14.685 -0.1606 -0.0821 -0.0434
15072W        W31333  14.790   9.228   3.345 -0.1232 -0.0790 -0.1073
15073W        W31334  15.343   1.625   0.274  0.0061 -0.0916  0.2067
15074W        W31335  13.554   7.141  15.312 -0.2031  0.2669  0.0971
15075W        W31336   2.995  12.729   1.755 -0.1686 -0.0629  0.0852
15076W        W31337   0.568   8.592  15.048 -0.0262 -0.1014  0.3694
15077W        W31338  15.882   9.478   3.593  0.0722 -0.2574 -0.2338
15078W        W31339  17.711   5.792   2.181 -0.0840 -0.0399  0.2368
15079W        W31340  16.840   5.309   2.515 -0.2627 -0.3567  0.1562
15080W        W31341   6.532   5.766  15.555  0.0012 -0.0728 -0.1455
15081W        W31342  13.567   7.942  16.077 -0.2438 -0.0124  0.1384
15082W        W31343  17.713   0.671   0.074  0.5170 -0.1268 -0.1292
15083W        W31344  14.696  14.655   0.001  0.1639 -0.1529 -0.0432
15084W        W31345   2.750   0.223   3.739 -0.0157 -0.0671 -0.0538
15085W        W31346  14.353  11.648  11.445 -0.1398  0.3716  0.0093
15086W        W31347  15.592  13.045  13.530  0.1007  0.0588 -0.0793
15087W        W31348  13.909  14.740  12.559  0.0480  0.1473  0.1552
15088W        W31349   3.265   1.188  13.707 -0.0595  0.0426  0.0905
15089W        W31350   8.976  17.121   1.063  0.1333  0.3887 -0.0213
15090W        W31351  17.560   5.640  12.296 -0.1172  0.1139  0.2273
15091W        W31352  12.729  13.778   4.315  0.0721  0.0372  0.2194
15092W        W31353  10.425  10.709   1.297  0.1151  0.0990  0.2020
15093W        W31354   8.135  11.362  13.738 -0.1888  0.2485 -0.1653
15094W        W31355  15.811  17.312  12.903 -0.0146  0.4233 -0.1834
15095W        W31356   0.827  14.485  14.611  0.1314  0.1906 -0.0252
15096W        W31357  15.168   2.610  15.023 -0.1694 -0.2083 -0.4030
15097W        W31358   8.866   5.013  13.201 -0.0312  0.1075 -0.1928
15098W        W31359   8.460  12.604   0.409  0.0178 -0.0936  0.0833
15099W        W31360  14.368   6.368   1.940 -0.3559  0.1658  0.0329
15100W        W31361   7.604  10.087   0.846 -0.2706 -0.1383 -0.1433
15101W        W31362  13.621  17.461   2.638  0.1947 -0.0834 -0.0913
15102W        W31363   7.088   2.323   3.577  0.1034 -0.1513  0.1942
15103W        W31364   3.542   5.708  16.250  0.4430 -0.3191  0.1343
15104W        W31365   7.513  12.867  11.964 -0.0912  0.1071  0.1359
15105W        W31366  13.578   0.381   1.786  0.1950  0.0454 -0.0635
15106W        W31367   5.328  10.751   3.527  0.3059  0.0254 -0.1553
15107W        W31368  13.915   0.891   2.122  0.3538  0.2530 -0.0447
15108W        W31369   3.223   6.945   0.162  0.3699 -0.0430 -0.1390
15109W        W31370   4.980  10.142   4.517  0.0605  0.3603 -0.2980
15110W        W31371   3.485  16.982   3.245 -0.0903 -0.2114  0.1991
15111W        W31372   2.099  10.926   6.025 -0.1810  0.0604  0.2517
15112W        W31373   6.948   4.537   2.920 -0.2975 -0.2832  0.2294
15113W        W31374   0.090  14.391  13.134  0.0420 -0.0220  0.2734
15114W        W31375   6.523   0.037   2.289 -0.1234 -0.0061  0.3073
15115W        W31376  10.294  15.449   0.525  0.1722 -0.0346 -0.0275
15116W        W31377  17.386   1.520   0.437 -0.2865 -0.0107  0.0929
15117W        W31378  13.701  11.696   2.868  0.2608 -0.0954  0.1710
15118W        W31379  11.353  16.194  13.323  0.0852 -0.0830  0.1226
15119W        W31380   6.578   3.975   0.512 -0.2998 -0.1522  0.0185
15120W        W31381   3.153   3.591  13.546 -0.0866 -0.0086  0.1600
15121W        W31382   3.085  14.540   2.888  0.1525  0.0643 -0.0679
15122W        W31383  12.639   8.339   2.055 -0.1296  0.0818 -0.4361
15123W        W31384  10.120   4.203  12.683  0.0882 -0.0722 -0.0719
15124W        W31385  17.229  16.323   1.506  0.3053 -0.2894 -0.1556
15125W        W31386  13.844   7.592  12.826 -0.0813 -0.0684  0.1326
15126W        W31387   6.973   2.469  15.049  0.0485 -0.0378  0.2602
15127W        W31388  11.178  11.221   3.199  0.1425 -0.1101 -0.4249
15128W        W31389   9.078  16.507  11.748  0.0915  0.2268  0.3229
15129W        W31390   4.737   5.487   3.587 -0.4193  0.0459 -0.0162
15130W        W31391   6.043   8.121   1.169 -0.1327 -0.2146  0.1736
15131W        W31392  10.085   8.702  12.028  0.0720 -0.4055 -0.3200
15132W        W31393   5.023   2.230   4.807  0.0225  0.0440  0.1270
15133W        W31394   6.420   9.850  12.293 -0.0294  0.1007 -0.1427
15134W        W31395  16.724   6.959  14.127 -0.0137 -0.0634  0.2491
15135W        W31396   4.936   2.258  12.404  0.1372  0.0493 -0.0171
15136W        W31397   4.669  14.941   6.173  0.5677  0.5479  0.1341
15137W        W31398  13.026  11.148   3.299  0.0583  0.0259  0.1687
15138W        W31399   8.841  15.040   5.765 -0.0924 -0.1781 -0.2405
15139W        W31400   3.420   8.346  14.591  0.1001 -0.1281  0.0086
15140W        W31401  17.141  15.720   4.882 -0.1909  0.0951 -0.0780
15141W        W31402  11.335  11.120  15.310 -0.0383  0.0886  0.4973
15142W        W31403   7.143   7.158   3.610  0.0484 -0.1354  0.1481
15143W        W31404  12.926   5.766   2.503  0.1330 -0.0796  0.3385
15144W        W31405   9.309  16.905   4.062 -0.0204 -0.0551  0.3039
15145W        W31406  17.045   8.041  13.380  0.2820  0.0009  0.0237
15146W        W31407   0.783  11.672   2.032  0.2680 -0.1520 -0.2523
15147W        W31408   7.033   9.407  15.108 -0.0041 -0.0760  0.0096
15148W        W31409   2.490   9.322   3.156 -0.0608  0.0004 -0.0752
15149W        W31410   4.328  10.849  13.210 -0.1106 -0.1480  0.0541
15150W        W31411   5.212   2.377  11.969  0.3382 -0.0866  0.1913
15151W        W31412  15.111   7.348   1.503  0.0914  0.0156 -0.0774
15152W        W31413  16.403  11.599  13.947 -0.2625  0.0445 -0.2733
15153W        W31414   2.993   5.864  15.959 -0.4558 -0.1067  0.0062
15154W        W31415  11.703   2.487   1.970 -0.0445  0.2464 -0.0682
15155W        W31416   6.042  14.226   5.348  0.1606 -0.3758  0.0027
15156W        W31417   3.227  18.166   5.063  0.4362 -0.1192  0.3012
15157W        W31418  17.978   0.899  15.107 -0.2706  0.2814  0.1081
15158W        W31419  11.895  14.318  14.307  0.2382 -0.2313  0.1498
15159W        W31420  10.783   4.709  14.685 -0.0157 -0.4093  0.1210
15160W        W31421   2.755   3.992   0.941 -0.0137 -0.0141 -0.1108
15161W        W31422  11.525  12.446  15.641  0.0407  0.3092  0.0547
15162W        W31423   1.642   6.801   0.614 -0.0776 -0.1318 -0.0041
15163W        W31424  17.517   2.590   4.100  0.1292  0.1424  0.3894
15164W        W31425   9.596   5.934  15.625  0.0632 -0.0014 -0.0790
15165W        W31426  17.648   3.733   6.025 -0.2065 -0.1440 -0.0384
15166W        W31427  10.588  11.758   0.591  0.0265 -0.2300  0.3689
15167W        W31428  16.236   4.521  14.172  0.2101 -0.0269  0.2861
15168W        W31429  12.586  15.212  16.487  0.0878 -0.1053  0.0833
15169W        W31430   4.513  12.976   5.097 -0.1183 -0.2192 -0.0393
15170W        W31431  18.094  17.609  15.974 -0.1220  0.0182 -0.1030
15171W        W31432   7.827  11.276   4.825  0.2936  0.2441  0.2759
15172W        W31433  12.790   7.752   1.286 -0.0542  0.1383 -0.4512
15173W        W31434   8.792  17.481  11.577  0.0118  0.2959 -0.0717
15174W        W31435  15.612   5.594   2.880 -0.2724  0.1081 -0.2351
15175W        W31436   8.049  18.169  11.613 -0.1130 -0.1396 -0.0357
15176W        W31437   5.889   6.395  12.166  0.0065  0.3646  0.3433
15177W        W31438  14.045   6.359   4.733 -0.1347 -0.0717 -0.0222
15178W        W31439   2.897   4.302  12.197  0.1707 -0.0951 -0.3127
15179W        W31440  15.247  16.150  12.878  0.0547 -0.0711  0.0413
15180W        W31441  13.501   5.503  13.183 -0.2671  0.0473  0.1195
15181W        W31442  17.666   1.130  12.389  0.1594  0.1625  0.1192
15182W        W31443   3.651  13.412  15.509 -0.1426  0.1548 -0.1270
15183W        W31444   0.817  10.979  10.991 -0.2358 -0.0489 -0.0931
15184W        W31445   2.181   3.138  13.396 -0.0704 -0.1409 -0.0953
15185W        W31446   4.349  11.904  13.706  0.1516 -0.0071 -0.0362
15186W        W31447   1.143   3.046  12.942  0.1279 -0.0622 -0.0148
15187W        W31448  18.058   6.678   1.777  0.3256  0.1101  0.1696
15188W        W31449   0.556   3.968   2.350 -0.1366 -0.3670  0.2099
15189W        W31450  17.513  12.827  12.105 -0.4262 -0.2055  0.2761
15190W        W31451  15.453   6.669  11.893 -0.2809 -0.0145 -0.1185
15191W        W31452  13.242   1.529   0.920  0.1758  0.1979  0.2108
15192W        W31453   2.895   9.066   2.488 -0.1905  0.0726  0.1022
15193W        W31454  16.616   3.125   5.362 -0.0740  0.1418  0.0685
15194W        W31455  16.416   9.954   3.104 -0.3294 -0.0074 -0.0620
15195W        W31456  10.172  13.337   2.127  0.2178 -0.1145  0.0505
15196W        W31457  16.952   7.932  13.873  0.0044  0.0443 -0.4386
15197W        W31458   7.585  15.646   3.976 -0.0349  0.4344  0.1929
15198W        W31459   6.985   7.116  14.635 -0.0620  0.0041  0.3985
15199W        W31460   6.234  15.772   3.670 -0.1961  0.2223  0.0256
15200W        W31461   6.588   8.547   4.239  0.2589 -0.1342  0.1940
15201W        W31462   7.458   1.600  14.670  0.1957 -0.0812 -0.1338
15202W        W31463  12.288   2.139  13.578  0.3337  0.1177 -0.1179
15203W        W31464  16.062   7.171   0.388 -0.0176  0.0500 -0.1287
15204W        W31465  11.603   8.231  15.787  0.3524  0.1797 -0.1972
15205W        W31466  12.769  14.191  13.119 -0.1106  0.1560 -0.1060
15206W        W31467  14.977  16.403  14.116  0.2722  0.1366 -0.1301
15207W        W31468   1.354  12.798  14.939 -0.2159 -0.1438 -0.0518
15208W        W31469   3.371  15.759   4.805 -0.2364 -0.3268  0.1916
15209W        W31470   1.061  11.092  15.101 -0.4196 -0.0024  0.0416
15210W        W31471  14.265   3.737  13.173 -0.3042 -0.0253 -0.1580
15211W        W31472  14.598   8.491  13.497 -0.0927  0.0653  0.2074
15212W        W31473  10.865   2.680  13.645 -0.1147  0.2371  0.0612
15213W        W31474  17.362  17.118   0.963 -0.1074 -0.0686  0.1519
15214W        W31475  12.968   0.396  16.427 -0.1150  0.2042 -0.3603
15215W        W31476   6.593   5.644  15.091 -0.7149 -0.2645  0.1049
15216W        W31477   8.970  14.894  16.651  0.2750  0.2021  0.1677
15217W        W31478   6.538   3.055   3.405  0.1577  0.3340  0.2233
15218W        W31479  11.405   1.341  13.664 -0.1291 -0.1089 -0.1562
15219W        W31480   4.625  14.211  11.962  0.4151  0.5502 -0.2927
15220W        W31481   0.278  13.950   6.165 -0.3483 -0.0181 -0.0697
15221W        W31482  12.404   2.113   4.793 -0.2253  0.0089  0.1387
15222W        W31483  12.199  17.205  13.567  0.2772 -0.0233  0.2403
15223W        W31484   8.026   6.781   0.483 -0.0524 -0.4274  0.1575
15224W        W31485  15.650  17.165  15.679 -0.2297 -0.1307  0.0995
15225W        W31486   3.575   8.977  13.208 -0.0617  0.0374  0.0604
15226W        W31487  16.777   2.381  13.269  0.1741  0.2285  0.1794
15227W        W31488  11.227   3.943  13.499  0.3120  0.1792 -0.3783
15228W        W31489   5.828  18.096   3.911 -0.0673  0.0368  0.1875
15229W        W31490  15.344  12.528   1.112  0.0256 -0.0357  0.3415
15230W        W31491   4.153   1.473   2.846  0.1824  0.2760  0.2314
15231W        W31492   4.464  14.033   0.333 -0.0174 -0.1225  0.1992
15232W        W31493   2.834  17.831   2.196  0.2033 -0.0672  0.0351
15233W        W31494  16.028  17.975   0.054 -0.2073 -0.1673  0.0823
15234W        W31495   6.089   8.042   3.098  0.1691  0.1701  0.0027
15235W        W31496  18.025   5.610   2.637  0.1026  0.0049  0.2091
15236W        W31497  11.273   1.224  16.487  0.2001  0.0207  0.1572
15237W        W31498   2.746   9.187   3.601 -0.1795 -0.0464 -0.1984
15238W        W31499  17.510  12.807   3.669 -0.3435  0.1192  0.1166
15239W        W31500   7.069   7.615   2.320 -0.2069 -0.0171  0.0822
15240W        W31501  12.690   2.468  13.448  0.2557  0.0931 -0.1317
15241W        W31502   1.701   4.544   0.849 -0.1099  0.3294 -0.0319
15242W        W31503  16.261   9.763   5.069 -0.2163  0.0970 -0.0237
15243W        W31504   6.475   2.576  14.704 -0.1129  0.0181 -0.2987
15244W        W31505   3.422   9.486   5.297 -0.0958 -0.0795  0.1920
15245W        W31506  17.214  14.752   1.214 -0.3286 -0.2657 -0.3721
15246W        W31507   9.074   8.100  14.252 -0.1478  0.3124 -0.2026
15247W        W31508   6.668  17.244  15.750  0.0030  0.0098 -0.3045
15248W        W31509  11.522   3.768   3.797  0.0886 -0.2730 -0.2093
15249W        W31510  15.620  10.035  14.818  0.0723  0.0705 -0.1535
15250W        W31511  17.905  17.810  14.444  0.2145 -0.0919  0.2754
15251W        W31512  12.687   8.007  14.489  0.0671 -0.0062 -0.1249
15252W        W31513  10.434   4.464   1.027  0.4056 -0.1232  0.3403
15253W        W31514  14.641   3.717  16.521  0.1145 -0.1087  0.0945
15254W        W31515   7.591  14.849   6.411  0.1301 -0.0446 -0.1774
15255W        W31516   1.863   1.119  15.751 -0.1256  0.2197  0.2764
15256W        W31517   8.780   4.252   4.992  0.4321 -0.2226 -0.1711
15257W        W31518  17.416  13.227   3.909  0.0558 -0.0062  0.0492
15258W        W31519  12.984   6.628  14.369 -0.2090 -0.1637  0.0492
15259W        W31520  11.853  10.073  15.538 -0.0895 -0.2270  0.0197
15260W        W31521   1.961  14.075   3.389 -0.1324 -0.0429 -0.2478
15261W        W31522  15.644   6.609  12.679 -0.0982  0.2375 -0.2304
15262W        W31523   4.571  17.840   2.576  0.1323 -0.0181  0.1160
15263W        W31524  11.693  13.406   1.534 -0.0780 -0.1114 -0.3101
15264W        W31525  15.175  16.220   0.612  0.2149 -0.2648 -0.1655
15265W        W31526  14.331   0.495   4.524  0.1100 -0.2342 -0.2339
15266W        W31527  12.619   1.045   2.955 -0.0160 -0.1221 -0.0397
15267W        W31528  15.860  13.283  14.719 -0.2573 -0.1847 -0.1443
15268W        W31529   1.322   2.062   5.909 -0.2256 -0.1225  0.0407
15269W        W31530   0.134  12.480  11.866 -0.2629 -0.0870  0.3728
15270W        W31531  15.354   3.146  15.637 -0.1312 -0.0187 -0.0556
15271W        W31532   3.273   0.024   0.824  0.2693 -0.3161 -0.1090
15272W        W31533  10.369  11.895   1.133  0.1375  0.2694  0.1665
15273W        W31534   5.152  15.455  12.848 -0.2336 -0.1789 -0.1283
15274W        W31535   0.257  14.573   3.892  0.1700 -0.0169  0.1845
15275W        W31536  13.463   7.467   4.674 -0.0505 -0.2287  0.0161
15276W        W31537  15.446  13.430   2.961 -0.0455 -0.3389 -0.1614
15277W        W31538   8.866   0.089  12.316 -0.0042 -0.0941  0.1190
15278W        W31539  11.600  16.700   6.085  0.0570 -0.4290 -0.0294
15279W        W31540   2.247   4.781  16.598  0.1622  0.0985 -0.5404
15280W        W31541  17.401   5.965   0.140 -0.0563 -0.0387  0.1791
15281W        W31542   9.274   0.813  10.306  0.1788 -0.4914 -0.4369
15282W        W31543  14.928  18.130   2.502  0.1239 -0.0895 -0.1330
15283W        W31544  17.543   4.594   2.794 -0.2570  0.1110 -0.0918
15284W        W31545   9.238   1.809  10.917 -0.2536  0.1293  0.0914
15285W        W31546  16.821   7.906   5.045  0.2343 -0.1538 -0.1003
15286W        W31547  15.864  12.238  12.349  0.1509  0.1658  0.2223
15287W        W31548   1.701  17.539   2.798 -0.0402 -0.0254 -0.2370
15288W        W31549   8.965   2.877   5.642  0.0495  0.2435  0.1636
15289W        W31550   6.332   4.576   3.419 -0.0772 -0.0303 -0.1887
15290W        W31551  15.227  17.176  11.634  0.0242  0.2472 -0.0376
15291W        W31552   7.181   6.846   2.544  0.2660 -0.1083 -0.1083
15292W        W31553  14.300  16.979   1.074  0.3423 -0.0551 -0.1347
15293W        W31554   1.511  16.940   0.174 -0.0622 -0.0679 -0.0118
15294W        W31555   6.324   2.217  14.361  0.2127 -0.0547 -0.0535
15295W        W31556   5.263  17.283   2.120  0.4393 -0.2312 -0.1686
15296W        W31557   5.475   8.488  15.244 -0.0685  0.0004 -0.0567
15297W        W31558  11.786  16.144   0.617 -0.1930 -0.0291 -0.0526
15298W        W31559   0.057  17.943   4.679 -0.0905 -0.0435  0.0964
15299W        W31560  16.953  10.557   3.915  0.0134  0.0451  0.1651
15300W        W31561   3.286  10.548  15.089 -0.3097 -0.1144 -0.0120
15301W        W31562  10.422  14.974  13.194  0.0242  0.0553  0.0932
15302W        W31563  13.857   0.430  14.072  0.2019 -0.0543  0.1443
15303W        W31564   9.984   7.027   2.167  0.0691 -0.1391  0.3284
15304W        W31565  10.745   8.519  16.648 -0.0405 -0.0874  0.0694
15305W        W31566   8.689   2.055   2.161 -0.1992 -0.0475 -0.1898
15306W        W31567   7.787  17.122  13.614  0.4321 -0.2862 -0.0661
15307W        W31568   5.971  12.977   3.034  0.2360 -0.2013 -0.2777
15308W        W31569   2.134   1.343  13.053  0.0909  0.0010 -0.1938
15309W        W31570  11.487   3.099   1.325 -0.0805  0.1539 -0.3425
15310W        W31571  17.312  12.596   4.627  0.1546  0.2088  0.0933
15311W        W31572   5.750  12.685   3.437  0.1094 -0.0892  0.1876
15312W        W31573   9.156   5.747  15.634 -0.1603 -0.1356 -0.2275
15313W        W31574  13.973   0.956  15.374 -0.2643  0.0103 -0.1102
15314W        W31575  17.782   3.272   0.786  0.5162  0.2920 -0.0200
15315W        W31576  15.191   7.675   0.337  0.0121 -0.1107  0.0714
15316W        W31577   3.447   7.934  14.288  0.1671 -0.1739 -0.1071
15317W        W31578   9.778   9.922  15.744  0.2212  0.2132 -0.0453
15318W        W31579   1.145   4.222  16.302  0.1504  0.0098  0.1304
15319W        W31580   0.957   0.605   4.996  0.0334 -0.2474  0.1250
15320W        W31581  14.591  11.572   1.366 -0.1177 -0.2091  0.1814
15321W        W31582  12.166   4.093  13.652 -0.2848  0.0106  0.0081
15322W        W31583  14.458   5.571  14.338 -0.0043  0.2305 -0.1966
15323W        W31584  15.998   6.724   3.491 -0.1743 -0.3534  0.0750
15324W        W31585  11.165  10.579   4.451 -0.1422 -0.2172  0.2323
15325W        W31586   0.099   5.361  13.988 -0.1320 -0.0128  0.0673
15326W        W31587   0.740   0.387  14.725 -0.2556 -0.0971  0.2254
15327W        W31588   7.621  14.618   3.538  0.2023  0.0035  0.3380
15328W        W31589  14.606   5.382  15.705  0.1352  0.0076 -0.0258
15329W        W31590   9.441   2.255  11.907 -0.2073 -0.0674 -0.0429
15330W        W31591   1.297  17.739   3.065 -0.1738  0.1605 -0.2174
15331W        W31592   4.052   4.072   3.135 -0.1819 -0.0536 -0.2115
15332W        W31593   3.058  15.549  12.968  0.0103 -0.2523 -0.1076
15333W        W31594  11.601   5.020  11.429 -0.1859 -0.0383 -0.3479
15334W        W31595  16.690   4.563  13.399 -0.1131 -0.0768 -0.1284
15335W        W31596  12.931  11.701  14.110  0.0084 -0.2853  0.2319
15336W        W31597  16.815   9.719   4.486 -0.0579 -0.0156  0.0372
15337W        W31598   4.148   1.396  14.880 -0.1211  0.2675 -0.1466
15338W        W31599   9.754   3.656   1.749  0.0667 -0.0647 -0.4833
15339W        W31600   4.822   1.976  15.412  0.0923  0.0973 -0.0536
15340W        W31601  11.234   1.109  12.674  0.0879  0.1561 -0.0112
15341W        W31602  16.145   5.578  11.794 -0.2259  0.0956  0.3090
15342W        W31603   0.041   9.078  13.459 -0.2077  0.2579 -0.1009
15343W        W31604   9.435   5.120   2.205  0.2764  0.0672 -0.1404
15344W        W31605  11.239  15.935  16.395 -0.0151 -0.0243  0.1650
15345W        W31606   5.385  11.321  11.695 -0.0557  0.3464 -0.3926
15346W        W31607  10.076   1.247  14.062 -0.1995 -0.2986  0.2111
15347W        W31608  14.793  18.055  15.488  0.1190  0.0622  0.2580
15348W        W31609   9.915  10.743  15.795  0.3098 -0.1205  0.1606
15349W        W31610   3.699   5.864   2.639 -0.2873  0.1078 -0.0025
15350W        W31611   4.877  14.863   3.081  0.0967 -0.4561  0.1107
15351W        W31612   1.894   7.203   1.694  0.0292  0.4968 -0.0627
15352W        W31613  16.440  15.771  10.330 -0.0193 -0.1887 -0.0761
15353W        W31614   2.276   3.282   4.388  0.1241  0.0150 -0.2860
15354W        W31615   0.702  14.176  15.314  0.0805 -0.1161 -0.0424
15355W        W31616   7.850   8.927  11.717 -0.2338  0.0228  0.1294
15356W        W31617   0.926  15.442  16.648  0.1098 -0.0997  0.0851
15357W        W31618   2.022   3.429   3.001 -0.2447 -0.1064  0.1210
15358W        W31619   0.473   9.748  16.421  0.1493  0.1542 -0.0223
15359W        W31620   5.584   7.285   6.113  0.1201 -0.0025 -0.0912
15360W        W31621   9.855   0.812  14.792  0.3525  0.3761  0.0453
15361W        W31622  15.211  12.114  12.298 -0.2801  0.0749  0.1373
15362W        W31623  12.366  15.534   2.388  0.2493  0.1183  0.2442
15363W        W31624  16.809  14.771   5.313  0.1529 -0.1628 -0.4534
15364W        W31625   5.295   3.127  13.275  0.0235  0.0239 -0.0326
15365W        W31626  15.980  16.563   0.778  0.1189  0.3586 -0.0718
15366W        W31627   7.948  11.097  12.891 -0.0150 -0.0710 -0.0493
15367W        W31628  13.709   8.063   1.304  0.0606 -0.2197 -0.0467
15368W        W31629  14.916  16.046  16.037 -0.2797  0.2293 -0.2970
15369W        W31630  14.770   0.755   4.847  0.4374  0.0733  0.3083
15370W        W31631   7.572  17.729  15.180  0.4768 -0.1144  0.0178
15371W        W31632   6.483  12.578   2.320 -0.0170  0.0688 -0.4643
15372W        W31633  10.262   8.287   4.513  0.0881 -0.1636  0.1507
15373W        W31634   1.602  15.254  16.364  0.0980  0.2393  0.0991
15374W        W31635  13.900  11.050  12.738  0.0061 -0.1787  0.1603
15375W        W31636  16.232  16.490  14.600 -0.1072  0.3048  0.3132
15376W        W31637   4.944  14.964  15.639 -0.1319 -0.0218 -0.1178
15377W        W31638  12.499   0.484  16.322  0.0473  0.0582 -0.0224
15378W        W31639  15.369   4.201  14.768 -0.1464  0.3103 -0.1651
15379W        W31640   4.315   4.774   1.601 -0.3198  0.0255  0.0095
15380W        W31641   0.996  11.421  12.378  0.0137 -0.0089 -0.2464
15381W        W31642  10.659   9.502   3.703 -0.0015 -0.1329  0.0797
15382W        W31643  11.341  15.407   5.227  0.0187 -0.1662  0.1441
15383W        W31644  13.784  13.259   3.691 -0.1678  0.0344  0.1274
15384W        W31645  13.707   2.882   2.457 -0.1478  0.0332  0.3325
15385W        W31646  13.392  10.705   2.599 -0.0225 -0.0349 -0.0068
15386W        W31647   1.249   5.068  13.387  0.3062 -0.0388  0.1494
15387W        W31648  10.529  11.675   3.558 -0.0067 -0.1538 -0.0222
15388W        W31649   4.058  18.047  16.473  0.0525 -0.0370  0.0322
15389W        W31650  16.905  13.841   0.915 -0.0624 -0.0208  0.1217
15390W        W31651   0.361   7.149  12.977  0.2833 -0.6062  0.1205
15391W        W31652  14.431  11.039  15.035 -0.0817  0.2014 -0.0349
15392W        W31653   4.954   7.599  12.609  0.1091 -0.0750 -0.3355
15393W        W31654  15.803   4.474  13.863 -0.0927  0.2900 -0.0876
15394W        W31655   4.415  12.396   4.287 -0.0428 -0.2028 -0.2063
15395W        W31656  16.595   5.211   1.085 -0.0458 -0.3107 -0.0172
15396W        W31657   5.370   4.704   4.709 -0.0502  0.0009 -0.1148
15397W        W31658   7.843  12.960   5.276  0.0281 -0.0145  0.1032
15398W        W31659   7.860   8.894  13.152 -0.2303  0.0283 -0.1281
15399W        W31660  16.379   1.040  15.911 -0.0751 -0.1305  0.1582
15400W        W31661  15.813   4.820  13.458  0.1219  0.1962 -0.1786
15401W        W31662   5.047  16.895   1.278  0.0424  0.4206  0.0986
15402W        W31663  14.281   2.021  12.438  0.4970 -0.0676  0.0092
15403W        W31664   2.071  13.555  16.271 -0.0315 -0.2974 -0.2804
15404W        W31665   8.309   6.571  12.554  0.3292 -0.1910 -0.0260
15405W        W31666  14.720  14.314   1.744  0.1880 -0.1891  0.1630
15406W        W31667   3.784   1.412   1.957 -0.0110  0.3954  0.0106
15407W        W31668   1.866   1.874   2.146 -0.2753  0.0564  0.0794
15408W        W31669   2.896  17.889   0.979  0.2686  0.0440 -0.0929
15409W        W31670   3.814   0.795   2.632  0.0443 -0.1862 -0.0458
15410W        W31671  11.224  14.159  13.762  0.2725 -0.1657 -0.2413
15411W        W31672   2.435   8.167  14.560 -0.2011 -0.3033 -0.0301
15412W        W31673   5.767   7.663  11.285  0.1215 -0.2202 -0.0551
15413W        W31674   1.340   7.099   2.391 -0.5151 -0.0547  0.0960
15414W        W31675   3.219   6.577   4.063 -0.1804 -0.1980 -0.2308
15415W        W31676  15.648   2.624  14.949  0.0660  0.1788 -0.0550
15416W        W31677   0.568  16.636  14.963  0.0530  0.2516  0.1017
15417W        W31678   9.389  11.388   5.670 -0.1318  0.0110 -0.0702
15418W        W31679   6.949   3.807   3.727  0.1091  0.0891  0.1455
15419W        W31680  15.385  13.108  15.208 -0.2835 -0.0017 -0.2300
15420W        W31681  11.856   9.591   3.258 -0.0297  0.1567  0.4816
15421W        W31682  17.929  12.720  16.241  0.1997 -0.1457  0.2971
15422W        W31683  12.692   6.947   1.013  0.1629  0.2665  0.0152
15423W        W31684  10.855   9.586   3.106  0.4471  0.1103 -0.1619
15424W        W31685   0.222  15.785   0.803 -0.1577  0.0094 -0.0931
15425W        W31686  10.672   8.535  12.913  0.2427  0.1448 -0.0203
15426W        W31687  11.824  11.771  15.106 -0.2094  0.1738  0.1019
15427W        W31688  17.138  17.459  14.557 -0.2775 -0.2212 -0.0120
15428W        W31689   7.602  13.150   1.613  0.1515 -0.1610 -0.1347
15429W        W31690   4.082   0.188  12.123  0.2683  0.1942  0.0672
15430W        W31691   5.554  11.972   0.055 -0.2317 -0.2058  0.2731
15431W        W31692  17.112  11.517   4.571  0.0773  0.0319 -0.2418
15432W        W31693  12.435   4.342  13.048  0.3346  0.0238  0.0683
15433W        W31694   8.858  16.637   1.448 -0.3061 -0.0179  0.0487
15434W        W31695   0.961  10.224  15.749 -0.2594  0.0282 -0.2190
15435W        W31696   8.436   2.576  13.090 -0.0461  0.3088  0.0071
15436W        W31697   0.493  15.839  15.908 -0.0849  0.3704  0.0629
15437W        W31698   8.038   3.306   0.464  0.1050  0.1021  0.0579
15438W        W31699   1.734  16.217   4.626  0.1527  0.2880 -0.0980
15439W        W31700   0.279   0.266  13.420 -0.0431  0.2906 -0.0918
15440W        W31701   2.705   9.460  15.832 -0.2116  0.0290  0.0720
15441W        W31702  17.651   5.245   1.301 -0.2343 -0.3497 -0.4045
15442W        W31703  17.789  12.444   4.420 -0.0509 -0.1724 -0.2757
15443W        W31704   6.054   1.509  16.078 -0.0748 -0.1218  0.1738
15444W        W31705   2.273  14.742   2.820  0.0987  0.0332  0.0802
15445W        W31706  14.625  17.569   0.635 -0.4824  0.0876 -0.0327
15446W        W31707  15.748  16.644   3.767 -0.1035 -0.1531  0.1757
15447W        W31708  12.412  13.241  14.684  0.0029 -0.0814 -0.1737
15448W        W31709  15.330   7.712  11.119  0.0966 -0.1359 -0.1080
15449W        W31710  14.539   7.610   4.736 -0.1466 -0.0712  0.2271
15450W        W31711  12.617   0.822  12.945  0.0472 -0.0846  0.2596
15451W        W31712   7.597   8.900  13.588 -0.4749  0.1862  0.0761
15452W        W31713   5.456   1.501   4.039 -0.1338 -0.0064 -0.2882
15453W        W31714   7.400   7.187   2.162  0.0208  0.0837  0.1636
15454W        W31715  12.261   0.045  15.416 -0.2282 -0.1005  0.1809
15455W        W31716   2.268  13.172   5.234 -0.2114 -0.4409 -0.4241
15456W        W31717   0.493   1.593  16.301 -0.0822  0.0183 -0.0556
15457W        W31718   6.877  12.959   0.146  0.2091 -0.0527  0.3854
15458W        W31719   2.857   5.951  14.744 -0.3409  0.2363  0.0847
15459W        W31720  14.135  10.563   2.225  0.1464 -0.0035  0.2492
15460W        W31721  12.995   3.891   0.148  0.1832 -0.0053 -0.0282
15461W        W31722   3.092  14.571   1.421 -0.2655 -0.1277 -0.1874
15462W        W31723  15.317  13.258   3.849 -0.0460  0.1298  0.4143
15463W        W31724  11.738  15.534   3.143  0.2150 -0.1675  0.0686
15464W        W31725   8.557  15.131  13.066 -0.2058  0.1246 -0.2243
15465W        W31726  11.980  15.845  16.074  0.1835 -0.1245  0.1677
15466W        W31727   0.038  15.831  12.149  0.1495 -0.1318 -0.0164
15467W        W31728  16.829  10.033   3.765  0.0034  0.0551 -0.0106
15468W        W31729   2.372   6.002   4.005  0.2101 -0.1145 -0.2373
15469W        W31730   4.350  17.796   4.710  0.0290 -0.1703 -0.1892
15470W        W31731  18.106   2.553   1.540 -0.0602  0.1598  0.1697
15471W        W31732   6.231  14.190  13.602  0.1020 -0.2302  0.0756
15472W        W31733  14.972   8.049   4.753 -0.0450 -0.2478  0.2121
15473W        W31734  11.672   3.379   3.574 -0.5115 -0.1338 -0.2152
15474W        W31735   1.943  13.534   3.660  0.0889  0.2783 -0.4420
15475W        W31736  16.279  14.521   2.406 -0.0836  0.0251  0.1059
15476W        W31737  14.803   6.851   4.201 -0.2230  0.1104 -0.0207
15477W        W31738  14.843  14.118  11.864  0.0020 -0.2104 -0.1619
15478W        W31739   6.702   9.066  12.631 -0.0876  0.1100 -0.1530
15479W        W31740   1.073   4.327   1.316  0.0774 -0.2376 -0.1894
15480W        W31741   7.929   7.099  15.920 -0.3295 -0.0993 -0.0313
15481W        W31742  14.629   8.202   1.523 -0.1532 -0.1206  0.0745
15482W        W31743  13.274   1.224   3.048 -0.2200  0.0047  0.1467
15483W        W31744   9.676   1.302   4.088  0.2482 -0.0556 -0.1361
15484W        W31745   1.418   0.656  14.315  0.5279 -0.0536 -0.3327
15485W        W31746  10.805   2.461  12.342 -0.0124  0.0897 -0.0302
15486W        W31747   7.130   1.137  11.450 -0.0062  0.0320 -0.2353
15487W        W31748   5.718   3.394   2.762 -0.1097 -0.1422 -0.1288
15488W        W31749   6.543   6.850   4.759 -0.1316  0.0696 -0.0518
15489W        W31750  13.322  13.415  16.399  0.1335  0.0834  0.2438
15490W        W31751   8.598  15.931   0.153 -0.0236 -0.1737 -0.4559
15491W        W31752  16.708   1.108  14.003  0.2012 -0.0406 -0.2635
15492W        W31753   8.345   8.440   2.680  0.2231 -0.0145 -0.0806
15493W        W31754   8.535  10.054   1.564 -0.1022 -0.1411  0.1145
15494W        W31755  12.019   4.257   3.060  0.1794  0.1158 -0.2918
15495W        W31756   2.180  14.345  15.672  0.4547  0.1374 -0.0684
15496W        W31757  17.025  16.414  11.552 -0.2125  0.0660  0.0792
15497W        W31758  12.346  15.396  11.599  0.1257  0.0269  0.1068
15498W        W31759   7.225  16.286   2.540  0.0323 -0.1888 -0.0126
15499W        W31760   9.021   3.302  12.252  0.3048  0.0992  0.0049
15500W        W31761   6.978   3.992  11.324  0.2938 -0.0105  0.0131
15501W        W31762   0.513  16.236   3.200 -0.1217  0.1087  0.0887
15502W        W31763  12.985   2.700   2.802 -0.1562  0.4275 -0.1156
15503W        W31764  13.655  11.037   1.179 -0.5776  0.1307  0.0476
15504W        W31765   7.341   2.874  11.370 -0.2118 -0.1969  0.0051
15505W        W31766   5.366   2.883   5.532 -0.0027 -0.1928  0.0127
15506W        W31767   2.689   7.361  11.780 -0.0759  0.0806 -0.2453
15507W        W31768  16.182   9.922   1.339 -0.2618  0.0185 -0.2023
15508W        W31769   4.573   1.665   0.994 -0.1489 -0.2619 -0.1237
15509W        W31770   2.581   5.297   2.116 -0.2122 -0.0226  0.0699
15510W        W31771   3.517  10.469  15.542 -0.1540  0.0905  0.3153
15511W        W31772   3.718  11.239   4.493  0.3368 -0.1975 -0.3155
15512W        W31773  13.140  15.133   5.325  0.1428  0.0516  0.4156
15513W        W31774   0.178   8.004   0.364  0.2173 -0.2051 -0.0146
15514W        W31775   2.278   8.229   2.337 -0.0717 -0.3165  0.1502
15515W        W31776   6.726   9.465   1.843  0.5165  0.0066 -0.0398
15516W        W31777  15.116  17.016   1.043 -0.1264 -0.0275 -0.0427
15517W        W31778   4.691  11.251  16.131 -0.1372 -0.2647 -0.0713
15518W        W31779  12.462   1.589  15.893  0.4685  0.3271  0.2259
15519W        W31780   0.447   7.927   4.049 -0.0652 -0.2038 -0.1371
15520W        W31781   7.865  10.263  12.120  0.1969  0.0990 -0.1754
15521W        W31782   7.688   0.402   1.587  0.0118 -0.1618  0.2491
15522W        W31783  10.820   2.308   2.269  0.5777 -0.0963  0.0467
15523W        W31784   9.476   1.197  12.974 -0.3614 -0.1357 -0.0235
15524W        W31785  17.197  13.707   3.744 -0.1040  0.1645 -0.0971
15525W        W31786   7.521  10.905   0.772 -0.0867  0.1575  0.1237
15526W        W31787  12.509  14.679  13.092  0.0417 -0.1768 -0.0105
15527W        W31788   3.288   7.887   3.119  0.1862 -0.0405  0.2008
15528W        W31789  14.498  10.211  12.842 -0.2306 -0.1112 -0.1233
15529W        W31790  16.617  13.510   5.456 -0.1043 -0.0203 -0.3939
15530W        W31791  16.321  15.860   1.463 -0.1981  0.2259 -0.2509
15531W        W31792   6.304  14.759   2.302  0.2414 -0.1483 -0.0904
15532W        W31793   9.723   8.757   4.253 -0.2736 -0.0380 -0.0322
15533W        W31794   6.153   3.647  15.515 -0.1323 -0.1417 -0.1336
15534W        W31795   8.169   6.308  15.613 -0.1603  0.0065 -0.0107
15535W        W31796  11.655   1.495   0.754  0.1362  0.2878 -0.1461
15536W        W31797   4.053  11.197  15.844 -0.0515  0.0298 -0.2711
15537W        W31798   2.653   4.545   6.640  0.5438 -0.0530  0.1785
15538W        W31799  11.090  11.100  12.171 -0.1330 -0.1460 -0.3215
15539W        W31800  15.736  12.543   3.930  0.0241 -0.2018  0.0844
15540W        W31801   2.809   6.223   2.212 -0.1139  0.1607  0.0703
15541W        W31802   1.023  10.435  12.264 -0.2383 -0.2126 -0.2162
15542W        W31803  17.423  10.688  12.494 -0.0098 -0.0152  0.2021
15543W        W31804   7.019  11.508  15.809 -0.2279 -0.1256  0.0852
15544W        W31805  16.600   7.430   0.254  0.2934  0.1698 -0.1572
15545W        W31806   5.084   7.101  12.169 -0.1866 -0.2639 -0.1643
15546W        W31807   7.823   8.390   2.429  0.0001  0.1003  0.0947
15547W        W31808   4.804   4.734   1.793 -0.1365  0.0956 -0.0949
15548W        W31809   7.593   7.748  14.638 -0.2200  0.0857  0.1046
15549W        W31810  13.782  15.572  11.671  0.3844  0.0245  0.1090
15550W        W31811   3.422   1.321   3.211  0.0260 -0.1625 -0.1702
15551W        W31812   2.499   8.421   5.075 -0.0508  0.2462  0.0060
15552W        W31813   2.395  15.796  14.397 -0.0616  0.1136  0.3857
15553W        W31814  17.705   6.404  12.863  0.0227 -0.2271 -0.0118
15554W        W31815   6.912   5.709   3.858 -0.0701 -0.0647 -0.0833
15555W        W31816  12.060   4.844   1.963 -0.3432 -0.0843  0.1827
15556W        W31817   7.221   2.134  13.510 -0.0988  0.0629  0.1384
15557W        W31818  16.990  10.877  12.143 -0.1661 -0.1331 -0.4069
15558W        W31819  14.076  11.448  15.233  0.4050 -0.0410  0.1257
15559W        W31820   8.519  15.768  16.314  0.0582  0.3592  0.0671
15560W        W31821   3.147  17.635   3.490  0.5115 -0.3294  0.3076
15561W        W31822  13.065  14.100  16.391  0.3664  0.1171 -0.0077
15562W        W31823   2.274   1.827  14.154 -0.1294  0.0827  0.0918
15563W        W31824  12.179  10.565   0.329  0.2056  0.0910 -0.0258
15564W        W31825   1.905  14.458   5.522 -0.1175 -0.1311  0.1936
15565W        W31826   7.067  13.059  15.966 -0.0152  0.1152 -0.1554
15566W        W31827  10.544   7.399   5.157  0.0252 -0.0928  0.0081
15567W        W31828   1.714  11.925   5.703 -0.2041 -0.0347  0.0582
15568W        W31829  12.661  15.119   2.526 -0.1277 -0.0445 -0.0189
15569W        W31830  13.716  10.480   1.216  0.0901  0.1019 -0.1028
15570W        W31831  12.763   2.204  12.216 -0.2487  0.1379 -0.4237
15571W        W31832   2.980  17.532  16.199 -0.1734 -0.1919  0.0957
15572W        W31833  15.004   4.449   1.019  0.0353  0.1374 -0.0085
15573W        W31834   6.334   9.909   4.237  0.0150  0.2280 -0.0911
15574W        W31835  15.589   5.215   1.023  0.1463  0.4205 -0.1507
15575W        W31836   6.114  17.839  12.623  0.0186 -0.1324 -0.1452
15576W        W31837  16.248  16.831   3.084  0.0889 -0.3379 -0.5059
15577W        W31838  12.742  16.208  14.607  0.2228  0.1855  0.0983
15578W        W31839   1.178  17.701  14.742 -0.1183 -0.0398 -0.4274
15579W        W31840  15.032   9.787  13.466  0.0309 -0.3392  0.2257
15580W        W31841   1.257   9.988  11.741  0.0391  0.2872 -0.2298
15581W        W31842  17.524  13.733  11.606 -0.0704  0.1622  0.1204
15582W        W31843   0.883   3.401  13.168  0.4664 -0.0644  0.1495
15583W        W31844   5.111   1.118  15.309 -0.4320  0.3776 -0.0688
15584W        W31845  12.506  18.168   1.913  0.0602 -0.0951 -0.2867
15585W        W31846  10.812   0.874  14.744 -0.0855  0.1061  0.0724
15586W        W31847  12.996  12.672  13.454 -0.3644 -0.2149  0.0535
15587W        W31848   0.111   4.421  12.493 -0.0318 -0.1159  0.2845
15588W        W31849  15.501  11.728   5.128  0.1218 -0.0595 -0.2820
15589W        W31850  15.129  13.119   4.588 -0.1494 -0.0537 -0.0115
15590W        W31851  15.228  13.848  11.440  0.0838  0.0455  0.2472
15591W        W31852   3.562   2.762   3.604 -0.0918  0.0098 -0.2981
15592W        W31853  10.182   4.112   3.195  0.2322  0.0174  0.1014
15593W        W31854   1.118   9.514   2.919 -0.0346 -0.2903 -0.1278
15594W        W31855   0.718   0.012   3.894  0.1240  0.0495  0.2896
15595W        W31856   8.863   4.684  13.636 -0.1476  0.0269 -0.0373
15596W        W31857   3.865  17.729  15.956 -0.0649 -0.0817 -0.0868
15597W        W31858   3.096   0.181   2.150 -0.1961 -0.0614 -0.2132
15598W        W31859   3.973   2.570  13.081 -0.1673 -0.2335 -0.1285
15599W        W31860   0.769  15.352   3.042  0.0529  0.0220 -0.1641
15600W        W31861   2.096  13.618  13.078 -0.0159  0.0318  0.1891
15601W        W31862   0.250  12.664  16.119  0.1487  0.0290 -0.0101
15602W        W31863  12.918  10.754   0.697 -0.2826 -0.1441 -0.1292
15603W        W31864   0.977  17.179   4.226  0.1020 -0.0590  0.0545
15604W        W31865  11.119   9.707  15.739 -0.1306 -0.0819 -0.1692
15605W        W31866   2.377  14.989  16.041 -0.0373  0.1136  0.1087
15606W        W31867  11.701   1.110  14.208 -0.0340 -0.1055 -0.0238
15607W        W31868   5.883  13.427   2.169  0.2638  0.1263 -0.1830
15608W        W31869  12.176  17.362   4.999 -0.3135  0.0373 -0.1025
15609W        W31870   5.554   0.877  15.510 -0.0973 -0.1764 -0.1499
15610W        W31871   5.728  16.280   3.812 -0.3582 -0.0091  0.1630
15611W        W31872   1.069  10.089  15.188 -0.1125  0.4537  0.3386
15612W        W31873   7.993  15.765  13.856  0.0013 -0.3260  0.0989
15613W        W31874   3.860   4.511  15.931  0.4375  0.2120 -0.1205
15614W        W31875  15.880  10.981  15.037 -0.0662  0.0023  0.2771
15615W        W31876   8.861   2.844  11.151  0.0060  0.0105 -0.1684
15616W        W31877  12.557  13.291   0.534 -0.2366  0.1645 -0.2132
15617W        W31878   0.989   8.018   2.763  0.0066 -0.1223  0.0606
15618W        W31879   5.768   1.385  13.419 -0.0517  0.2431  0.0729
15619W        W31880  16.301  16.415  13.137  0.3266  0.2853  0.0227
15620W        W31881   0.326   5.060   3.175 -0.2190 -0.1887  0.0961
15621W        W31882  18.031  12.351   3.414  0.0051 -0.0403 -0.0602
15622W        W31883  17.085  16.768  11.922 -0.1484 -0.1985 -0.0597
15623W        W31884   4.052   8.058  13.555  0.1851 -0.1908 -0.0537
15624W        W31885   1.683  16.412  12.972  0.0339 -0.2755 -0.0644
15625W        W31886   6.256   2.804  15.682  0.0626  0.2059  0.2748
15626W        W31887  13.180   7.650   3.228  0.0409 -0.1530  0.0201
15627W        W31888   1.955   7.011  13.252  0.2650  0.0111  0.0899
15628W        W31889  17.151  12.433  14.240  0.1286  0.1794  0.3841
15629W        W31890   4.752   1.628   1.767 -0.0171  0.0798 -0.0828
15630W        W31891  17.641   0.684  15.701 -0.2439  0.4439 -0.0139
15631W        W31892   9.127   3.665  13.694 -0.1148 -0.1622  0.2410
15632W        W31893   1.623   6.997  13.685  0.1784  0.1380 -0.3124
15633W        W31894  13.005  16.302   4.268 -0.0061  0.0208  0.4987
15634W        W31895   8.085   3.281  11.296 -0.3643  0.3844  0.3386
15635W        W31896   9.259  11.640   3.975  0.0042 -0.1457 -0.2610
15636W        W31897   8.914   5.862   6.058  0.3296 -0.3116  0.2467
15637W        W31898   2.317   4.511  12.625 -0.2248  0.0611  0.1556
15638W        W31899   5.831  10.229  12.746  0.0902 -0.1722  0.1464
15639W        W31900   9.745   3.858  11.328  0.1231  0.1402  0.2161
15640W        W31901   4.653   4.963   3.541  0.2345  0.1731 -0.1464
15641W        W31902  16.005  12.151   0.396  0.2713  0.0132  0.3070
15642W        W31903   3.170   2.831   1.234  0.1439  0.0510  0.3924
15643W        W31904  14.063  15.711   0.642 -0.1448 -0.0280 -0.0700
15644W        W31905   8.502  12.983   4.103  0.0480 -0.4439  0.2622
15645W        W31906   6.815  11.275  14.939  0.0342  0.0071 -0.0084
15646W        W31907  14.806   6.823   2.203  0.0453 -0.1577 -0.0612
15647W        W31908  10.560   0.459  11.613 -0.0988  0.0857  0.3174
15648W        W31909   5.457  16.228  13.641  0.0260 -0.1008  0.0108
15649W        W31910  12.363   2.135  15.815 -0.1821  0.0471 -0.1694
15650W        W31911   9.229   4.621  15.156  0.2570  0.0569  0.0427
15651W        W31912  15.350  18.006  14.648 -0.2289  0.1442 -0.0297
15652W        W31913  10.114  15.018   0.166 -0.2395 -0.5054  0.0742
15653W        W31914  14.611  13.813   5.003  0.2665  0.4169  0.2953
15654W        W31915  10.046  13.596  13.074  0.0304 -0.3169  0.2368
15655W        W31916   3.246   6.491   1.600 -0.0507  0.1517  0.0093
15656W        W31917   8.572  16.035   0.735  0.1016  0.1558 -0.2869
15657W        W31918  14.910   0.028  12.131 -0.2729 -0.0831  0.0285
15658W        W31919  10.070  11.238  15.651 -0.0917  0.0195 -0.2322
15659W        W31920  11.963   5.297   4.425 -0.0976 -0.1876  0.1704
15660W        W31921   2.952  15.169   4.850 -0.0458  0.0244 -0.2743
15661W        W31922   0.979  17.884  13.661  0.0292 -0.1305 -0.1367
15662W        W31923  13.455   5.641   2.720  0.0620 -0.0576 -0.1117
15663W        W31924  12.057   6.591  12.668  0.3437 -0.2021  0.1526
15664W        W31925   5.733   0.908  14.440  0.0260 -0.2582  0.0805
15665W        W31926   3.533   9.613  12.973  0.1758  0.2483  0.2259
15666W        W31927  17.022  12.382  12.641 -0.1373  0.1603 -0.0252
15667W        W31928   6.571   4.019   5.148  0.1626  0.0289  0.0390
15668W        W31929  11.286   3.653   4.866  0.2545 -0.3678  0.3006
15669W        W31930   9.522   9.819  15.322  0.1516 -0.0317 -0.0424
15670W        W31931  13.298  11.044  16.002  0.0107  0.0166 -0.2798
15671W        W31932   7.217   4.524  11.135  0.1390 -0.4468  0.1935
15672W        W31933   7.950  13.958   3.932 -0.1454 -0.0512  0.3228
15673W        W31934   4.928   8.142  14.015 -0.1779  0.0596  0.3327
15674W        W31935   1.977  16.200   2.008  0.0809  0.0371 -0.0136
15675W        W31936  12.100  16.203   1.135 -0.0237 -0.1052  0.0663
15676W        W31937   6.259   8.375   4.782 -0.4040 -0.4204 -0.3322
15677W        W31938  10.330  16.197  10.747 -0.0592 -0.0526 -0.0241
15678W        W31939  13.967  13.268  11.933 -0.0097  0.0137  0.0537
15679W        W31940   2.905   8.345  15.522 -0.2923  0.1236  0.0920
15680W        W31941  10.529   5.440  15.269 -0.2294 -0.3735 -0.2530
15681W        W31942   6.713   0.150   4.061  0.2339  0.0385 -0.0279
15682W        W31943  17.731  12.931  13.214  0.0226  0.2599 -0.0247
15683W        W31944   5.401  16.939   0.815 -0.1094 -0.1741  0.4321
15684W        W31945  14.631  14.073  15.959 -0.2248 -0.2427  0.0234
15685W        W31946   9.150   1.433  14.101  0.2297 -0.3418 -0.3677
15686W        W31947  14.568   7.815   2.615  0.0810  0.0505 -0.0737
15687W        W31948   0.832   9.156  13.197  0.1845  0.2219 -0.1179
15688W        W31949  17.153  14.625  12.758 -0.1899 -0.0621 -0.0069
15689W        W31950  16.041   9.081   4.377 -0.0672 -0.2393 -0.0645
15690W        W31951  13.633   1.400   5.026 -0.0275  0.1722 -0.1850
15691W        W31952   6.073   8.331   1.743  0.0385  0.1635  0.0040
15692W        W31953  17.142  17.631  12.469 -0.2898 -0.2800 -0.1784
15693W        W31954  13.564   2.537   5.307 -0.0264 -0.1150 -0.0068
15694W        W31955  11.140   3.369  16.594  0.3268  0.0324  0.1609
15695W        W31956  17.415   6.230   5.459  0.2197 -0.4289 -0.3230
15696W        W31957  11.366   2.061  13.897  0.0484 -0.2630 -0.0354
15697W        W31958   9.483  14.549  12.010  0.1494  0.0835  0.0081
15698W        W31959   2.878   8.101   3.246  0.1811 -0.0800  0.2606
15699W        W31960   2.000  11.647  14.449 -0.2026  0.2234 -0.2877
15700W        W31961   9.945   6.973  16.150 -0.1125  0.0508  0.0773
15701W        W31962   4.297   5.781  16.222 -0.1455 -0.1329 -0.2619
15702W        W31963  11.185   4.681   0.627 -0.0720  0.0835  0.0539
15703W        W31964   5.949  10.886   2.260 -0.0315  0.3362 -0.0728
15704W        W31965  14.088   9.395   0.775  0.6201  0.2304 -0.0165
15705W        W31966  18.132   3.735   6.070 -0.0511  0.1086 -0.2238
15706W        W31967   8.716   3.918  14.800  0.0696  0.1152 -0.2572
15707W        W31968  17.028  15.561   5.335 -0.0308 -0.0987 -0.3522
15708W        W31969   5.329   6.455  14.313 -0.0814 -0.0011  0.2768
15709W        W31970  11.380   5.544   2.606  0.1528  0.2605 -0.0633
15710W        W31971   9.672   1.381   1.343 -0.1024  0.1634 -0.0497
15711W        W31972   3.120   6.705  11.518 -0.0888 -0.1108 -0.3239
15712W        W31973  17.483   3.507  15.888 -0.3393  0.0158  0.0386
15713W        W31974  13.310  17.192  13.874  0.0416 -0.0250 -0.3244
15714W        W31975  17.926  13.634  13.801  0.1325  0.2305 -0.1692
15715W        W31976   3.716  15.827  15.360 -0.0042 -0.1136  0.1284
15716W        W31977   8.064  10.959   0.327 -0.0280 -0.0394  0.0215
15717W        W31978   5.407   7.856  12.759  0.3967  0.0093  0.1450
15718W        W31979  13.971   2.545   3.688 -0.1483  0.3153 -0.0910
15719W        W31980  13.863   6.197   1.510  0.2802  0.1692 -0.1827
15720W        W31981  13.330  10.540  12.408 -0.2120  0.0641  0.0760
15721W        W31982  16.058   9.962  13.506 -0.1528 -0.1181  0.2103
15722W        W31983  13.377  16.110   1.614  0.1484  0.2043  0.0467
15723W        W31984  15.073   4.278   2.972  0.2725 -0.0199  0.3038
15724W        W31985   9.587   9.002  13.063 -0.0931  0.2536 -0.0178
15725W        W31986   8.839   8.351   3.553 -0.0816  0.0744 -0.0856
15726W        W31987  12.394  13.537   3.911  0.0331 -0.4181  0.0835
15727W        W31988  10.911  17.286   3.005  0.3273  0.0851 -0.0969
15728W        W31989  12.454   7.032  13.556  0.2322  0.0019 -0.0301
15729W        W31990  14.580  13.108   3.264 -0.0493  0.0845 -0.0191
15730W        W31991   4.200  15.922  11.756  0.2789  0.0784  0.2519
15731W        W31992  17.008  13.410   4.740  0.0793 -0.0048  0.1670
15732W        W31993   0.891  14.067   1.301  0.1630  0.0005  0.0270
15733W        W31994  14.464  15.773   0.963 -0.0360 -0.3532  0.2171
15734W        W31995  15.573   2.557  12.412  0.2396  0.3152  0.1236
15735W        W31996  10.597   3.849   5.347 -0.1696 -0.1425 -0.0604
15736W        W31997  13.252   8.353  15.998 -0.2306 -0.1297  0.0384
15737W        W31998   4.331  11.069   5.507  0.1121 -0.0466  0.0182
15738W        W31999  17.047   2.778  12.592  0.0236 -0.1081 -0.4086
15739W        W32000   7.259   5.288   3.916 -0.0743 -0.1166  0.3589
15740W        W32001   2.879  12.615  15.547 -0.1149 -0.1495 -0.0679
15741W        W32002  13.946  15.810   3.876  0.2688 -0.1826  0.0828
15742W        W32003   1.264  14.741   0.364  0.1200 -0.2928  0.1218
15743W        W32004  17.342   4.913  15.296  0.2127 -0.0619  0.2323
15744W        W32005  10.196  17.843  11.810  0.0326 -0.0309  0.0450
15745W        W32006  11.521   4.803  15.555  0.1219  0.0145  0.1696
15746W        W32007  12.510   1.845   5.222 -0.1888  0.4010  0.2395
15747W        W32008  13.615   2.128   4.387  0.2565  0.2237  0.0742
15748W        W32009  15.915   1.151   2.938 -0.0773 -0.0663 -0.0193
15749W        W32010  17.279  16.569   5.154 -0.1315  0.0488 -0.1709
15750W        W32011   0.380   8.958   1.893  0.2116 -0.2301  0.1125
15751W        W32012   2.881  11.763  12.540  0.2327 -0.0006  0.2894
15752W        W32013   8.083   7.514  15.497  0.0421  0.0053 -0.1882
15753W        W32014   9.828   5.415  13.881  0.0246 -0.4105 -0.3714
15754W        W32015   4.379  17.677  15.052  0.0785  0.0716  0.2982
15755W        W32016  13.996  16.832  15.029  0.2509 -0.2291  0.0056
15756W        W32017  13.707  17.987  16.184  0.1871 -0.0387 -0.1421
15757W        W32018  15.995   1.769  15.161  0.2294 -0.1181 -0.2250
15758W        W32019   2.163  14.952  13.626 -0.0925  0.1827 -0.1200
15759W        W32020   7.939  15.480   1.298 -0.2508 -0.4405 -0.1085
15760W        W32021   6.949   0.709  13.024  0.1143 -0.2390  0.3899
15761W        W32022   3.591  18.178  14.883 -0.0411  0.0832  0.2272
15762W        W32023   6.651  12.761  16.033 -0.0057 -0.3782  0.2426
15763W        W32024   2.254   5.225   5.980 -0.1811 -0.2623 -0.0099
15764W        W32025  11.052   0.623  12.332  0.2282  0.3200  0.1622
15765W        W32026   1.176  12.426  15.233  0.3156  0.0123 -0.3029
15766W        W32027  11.860   9.140   0.447 -0.3867  0.0498  0.0912
15767W        W32028  13.562  13.014   4.279  0.0820 -0.1945 -0.2331
15768W        W32029  14.671  16.782   2.574 -0.0312  0.6319 -0.0706
15769W        W32030  15.452   7.865  16.409 -0.0593  0.3446 -0.0759
15770W        W32031  15.851  15.785  12.429  0.1846  0.1979  0.3349
15771W        W32032  11.540  18.102  14.103 -0.2044  0.1833 -0.1492
15772W        W32033   2.475   1.796  13.662 -0.1521 -0.2015  0.0714
15773W        W32034   0.388   2.195  15.223  0.0816 -0.4071 -0.2566
15774W        W32035  12.554  12.965   3.490 -0.3475  0.0679 -0.1512
15775W        W32036   6.969   3.756   4.264  0.3945  0.1774 -0.0973
15776W        W32037   3.718   4.335   0.168 -0.2103  0.2004  0.1190
15777W        W32038   8.487   3.211  12.198 -0.2166  0.3994  0.0979
15778W        W32039  16.139  14.076  11.435  0.5299 -0.0245 -0.2016
15779W        W32040  17.433   8.316  14.481 -0.1650 -0.2330  0.0766
15780W        W32041  14.036   0.944   3.811  0.1400  0.0642 -0.2821
15781W        W32042   1.942  16.161   5.644 -0.0813 -0.0743 -0.0819
15782W        W32043  14.854  12.052  13.120  0.2316  0.0283  0.0391
15783W        W32044  12.346   0.251  15.845 -0.0254  0.0223  0.0108
15784W        W32045   8.379  14.347   1.278  0.2663 -0.1178 -0.2507
15785W        W32046  15.979  15.262  12.378 -0.0603  0.1997 -0.1001
15786W        W32047   5.589   5.198  16.281  0.0052 -0.4168 -0.1011
15787W        W32048   7.024  14.429   5.433  0.0359  0.1303  0.4463
15788W        W32049   6.365   7.451  15.233 -0.0094  0.1688 -0.0949
15789W        W32050   6.142  10.043  13.667  0.3049  0.0864 -0.1359
15790W        W32051  16.705   6.886   2.478 -0.1117 -0.1693 -0.1401
15791W        W32052   1.412   8.103   5.750  0.1805  0.0575  0.0322
15792W        W32053  17.854   5.294  14.570 -0.1600 -0.3875  0.0918
15793W        W32054   9.050   4.162  12.085 -0.0801  0.1293  0.0394
15794W        W32055  16.740   8.083  14.752 -0.1823 -0.1612  0.2025
15795W        W32056   3.377   5.629  13.991 -0.3096  0.0207  0.0372
15796W        W32057   0.581  12.508  13.499  0.0539  0.2865  0.0373
15797W        W32058   7.877   7.322   0.197 -0.1249 -0.4701 -0.0882
15798W        W32059  17.207  13.823  13.029  0.0250  0.2217  0.1434
15799W        W32060  14.788  14.279   5.930 -0.2718 -0.0727  0.0150
15800W        W32061  14.842  12.170  15.335 -0.0787 -0.1123 -0.0917
15801W        W32062   2.206  13.164  15.227 -0.0598 -0.1412 -0.1200
15802W        W32063   1.147   6.883   3.864 -0.2375 -0.2363  0.1568
15803W        W32064   7.813   8.179   3.328  0.2308 -0.0143  0.1486
15804W        W32065   4.073  16.129  12.183 -0.1604 -0.0307  0.2535
15805W        W32066  11.357  12.581   1.830 -0.0118 -0.0733 -0.1903
15806W        W32067  16.616   4.072  13.403  0.0377 -0.1136 -0.0603
15807W        W32068  15.694   4.270  16.253  0.0180  0.2359 -0.0533
15808W        W32069  13.697   8.537  15.477 -0.2454  0.0500  0.0699
15809W        W32070   0.800   2.794   3.090 -0.1926 -0.2697  0.1798
15810W        W32071   5.064  14.359  14.798 -0.0842  0.0365 -0.0224
15811W        W32072  13.904  17.705   4.277 -0.1488 -0.1381 -0.1082
15812W        W32073   1.290  14.180   0.075 -0.1326 -0.3867 -0.1428
15813W        W32074   3.658   2.137   4.510  0.1890 -0.4099  0.1685
15814W        W32075   7.491  18.077  14.658 -0.0463 -0.4787 -0.2103
15815W        W32076  16.883   0.693  12.748  0.1464  0.1019 -0.0175
15816W        W32077  10.638  18.068  15.469  0.0591 -0.1125  0.0923
15817W        W32078  16.714   0.032   3.188  0.0817 -0.0364  0.0966
15818W        W32079  10.437  13.248  16.524 -0.1182 -0.0515  0.2011
15819W        W32080  15.349   3.185   4.635 -0.2398 -0.0161 -0.2374
15820W        W32081  14.637  15.401  16.020 -0.0642 -0.0197  0.0212
15821W        W32082   0.288   7.719   4.639 -0.1103  0.0152  0.1196
15822W        W32083  17.927  12.628  13.794 -0.1202 -0.1505  0.2353
15823W        W32084  11.376  14.284  14.231  0.0033  0.0708  0.1844
15824W        W32085   9.862  17.018   0.206  0.2011  0.3159 -0.0478
15825W        W32086  11.856  12.319  12.129  0.0347 -0.1716  0.0903
15826W        W32087   0.173   4.442  13.004  0.0809  0.2906 -0.0816
15827W        W32088  15.182   7.131   0.380 -0.4183 -0.1849 -0.4462
15828W        W32089  10.197   4.837  16.351  0.0689  0.0702 -0.0267
15829W        W32090   7.630  13.443  12.210  0.0332 -0.2803  0.3656
15830W        W32091   2.209   8.070  13.392  0.1012 -0.1782  0.4951
15831W        W32092   7.606   0.914  12.178 -0.1770 -0.2145  0.1685
15832W        W32093  16.984  14.861   3.712  0.0405  0.0385  0.0810
15833W        W32094   4.904   4.322   0.998  0.0550 -0.0178  0.0459
15834W        W32095   0.079  15.391   0.567  0.3419 -0.2753  0.0028
15835W        W32096  17.088  10.393  13.357 -0.1156 -0.2290  0.1218
15836W        W32097  16.781  15.761  15.986 -0.1376 -0.3312 -0.0230
15837W        W32098  11.361   5.388  11.597 -0.0517  0.0697  0.0460
15838W        W32099   7.702  10.274  15.945 -0.0847 -0.0829 -0.2298
15839W        W32100  10.218   9.063   0.615 -0.0139  0.2178 -0.1482
15840W        W32101   0.343  16.316  15.278  0.0326 -0.0338 -0.1705
15841W        W32102   6.270  13.093  12.089 -0.2899 -0.3151  0.0084
15842W        W32103  12.268   5.228  15.181 -0.0238  0.2262 -0.1261
15843W        W32104   3.087  10.042  13.680 -0.0042  0.0061  0.0192
15844W        W32105   3.508   2.868  13.018 -0.1579  0.1617  0.1409
15845W        W32106  15.112  14.373  11.550 -0.0524  0.0419  0.3502
15846W        W32107   8.596  14.839   2.865 -0.1221  0.0481  0.1119
15847W        W32108  11.546  11.415  14.842  0.3178 -0.1582  0.0506
15848W        W32109  14.665  17.053   0.817  0.1637  0.0514 -0.1748
15849W        W32110   7.604  13.738   4.908 -0.1099 -0.0201  0.4288
15850W        W32111   1.704   6.856  11.911  0.0186  0.2211  0.2855
15851W        W32112   8.943   9.218  12.504  0.2493  0.0176  0.0007
15852W        W32113  17.222  16.181  15.242 -0.2434 -0.1236 -0.0417
15853W        W32114   7.065  12.448   3.230 -0.2131 -0.1140 -0.3432
15854W        W32115   8.111  13.657  12.227 -0.1136 -0.4350  0.0030
15855W        W32116  16.739  17.647   1.899  0.4853  0.1587  0.0582
15856W        W32117   9.767  14.505   3.191  0.0805 -0.0721 -0.2737
15857W        W32118   8.094  13.426   5.210 -0.0183  0.0988  0.0434
15858W        W32119   2.727  14.750   5.211 -0.1344 -0.0635 -0.1876
15859W        W32120  14.087   1.219   1.677 -0.1549 -0.1125  0.0752
15860W        W32121  10.646  15.493  12.608  0.1461 -0.0635  0.2085
15861W        W32122   1.384  16.123  14.867 -0.0430  0.2484  0.0616
15862W        W32123   0.458   1.505   1.026  0.0163  0.0900 -0.0655
15863W        W32124  15.105   1.772   3.469 -0.4756 -0.2942 -0.2274
15864W        W32125  16.522  18.014  13.772  0.0857 -0.0334  0.0247
15865W        W32126  15.276   5.141   1.444  0.2173  0.3115 -0.3750
15866W        W32127   7.148   1.264   3.769  0.0246 -0.1855  0.0381
15867W        W32128  16.824   3.916   3.801  0.3107  0.2790 -0.3320
15868W        W32129   8.788   7.763   1.890 -0.0681 -0.1428 -0.1580
15869W        W32130   1.854  14.451   3.713 -0.1657  0.1310  0.0338
15870W        W32131   4.487   3.365   5.299 -0.1033  0.1568 -0.2788
15871W        W32132  17.278  11.326   1.439  0.0083 -0.0366 -0.3349
15872W        W32133  11.096   2.566  11.493 -0.2346 -0.1249  0.3944
15873W        W32134   6.896  17.615  12.579  0.2996  0.0549 -0.1034
15874W        W32135   2.675  16.773   4.779  0.1824  0.0397 -0.3507
15875W        W32136   5.840   9.749   5.019 -0.0192  0.0303 -0.0579
15876W        W32137   2.904  18.110   2.595  0.1233 -0.0938 -0.1424
15877W        W32138  16.950  18.139   2.742  0.1637  0.0723  0.4680
15878W        W32139   3.729   1.066   4.533 -0.5149  0.0353  0.2051
15879W        W32140  16.949  17.171   1.846 -0.0881 -0.0800 -0.4446
15880W        W32141   1.729   2.491  15.341  0.1144 -0.1386  0.1326
15881W        W32142  17.564  14.121   6.200 -0.1921 -0.2509  0.0911
15882W        W32143  11.149   1.749   0.004  0.0965 -0.2567 -0.0480
15883W        W32144  16.511   5.072  11.852 -0.1362  0.0213  0.2763
15884W        W32145  12.698  14.624  16.560 -0.1664  0.2523 -0.0355
15885W        W32146  13.728   5.594  11.400  0.0065  0.1683  0.1928
15886W        W32147  18.042  15.433   4.038  0.0228  0.3056 -0.0289
15887W        W32148  16.050   4.726   3.632  0.1082 -0.0206  0.2380
15888W        W32149  10.664   7.959  13.218 -0.0769 -0.1794  0.0068
15889W        W32150   6.542   4.288  15.299  0.1852 -0.2209 -0.0403
15890W        W32151  16.218   5.060   5.518  0.0019  0.2493  0.0363
15891W        W32152  17.817  17.980   1.336 -0.0821 -0.1609 -0.3529
15892W        W32153  13.171   8.264  11.651 -0.0213  0.0324  0.1186
15893W        W32154   2.704  11.042   0.567  0.1303 -0.0698  0.2395
15894W        W32155   3.390  15.321   3.869  0.0510  0.0560 -0.2014
15895W        W32156  14.853   7.205  13.987 -0.1012  0.3165 -0.1799
15896W        W32157  14.341   3.712   5.572  0.2679  0.1571 -0.0400
15897W        W32158  13.387  15.634  16.350  0.0179 -0.0157 -0.1357
15898W        W32159  13.152  16.120  12.847 -0.0926  0.2997 -0.0711
15899W        W32160   6.677  12.493  14.436 -0.0482 -0.0348 -0.2619
15900W        W32161  15.012   9.162  12.932  0.1209 -0.1126  0.0749
15901W        W32162  13.654   2.655   4.541  0.1889  0.0388  0.0600
15902W        W32163   7.451   3.608  13.302 -0.2071 -0.1192 -0.1975
15903W        W32164   7.788   0.159   5.958  0.0437 -0.0677  0.2543
15904W        W32165  10.332   0.148   0.333  0.1269 -0.0001 -0.1449
15905W        W32166   6.185   6.472   3.984  0.0250 -0.1015  0.4191
15906W        W32167  14.676  13.816  14.917 -0.1726  0.3171  0.0630
15907W        W32168   9.079   6.617  15.336  0.0475 -0.1113  0.2387
15908W        W32169  12.677   9.550  14.203 -0.1335 -0.0174 -0.1602
15909W        W32170  17.166  14.247   1.100  0.2891  0.3845 -0.1196
15910W        W32171   3.235   2.356   2.973  0.3950 -0.3583 -0.0718
15911W        W32172  15.007  14.741   1.786 -0.2808 -0.0823 -0.0344
15912W        W32173   7.478   8.441  13.634  0.1997  0.2819  0.1731
15913W        W32174   8.867  12.751   0.117  0.0873  0.0490  0.0782
15914W        W32175  17.339  16.444  14.800  0.0788 -0.2709 -0.1399
15915W        W32176   3.682  10.326  11.583  0.0716  0.0460  0.0408
15916W        W32177   0.550   9.778   2.164  0.2166  0.4203  0.0360
15917W        W32178   7.981   6.238   1.808 -0.1439 -0.0493  0.0578
15918W        W32179   5.085   1.093  15.825 -0.1326  0.0567  0.3572
15919W        W32180   1.483   5.936   2.396  0.2995 -0.2285 -0.0942
15920W        W32181  10.796   4.440  13.401  0.2088 -0.0790 -0.0512
15921W        W32182  14.672  17.896  12.436  0.1142  0.1397  0.3248
15922W        W32183   5.868  17.848   2.999  0.1399  0.1340 -0.0572
15923W        W32184   8.728  17.904  11.869  0.3482 -0.2372  0.2005
15924W        W32185   0.337   1.691  15.414  0.1358  0.0420  0.0626
15925W        W32186   9.595  12.064   2.319 -0.2146 -0.0586  0.0278
15926W        W32187   6.632  12.568   1.500 -0.0072 -0.5917 -0.2602
15927W        W32188   5.019   0.773   4.468 -0.0107 -0.2176 -0.0808
15928W        W32189   1.117  13.774   2.063 -0.3188  0.1611 -0.2013
15929W        W32190  15.010   0.232   0.881 -0.2001 -0.2471 -0.1901
15930W        W32191   9.136   7.675  13.618 -0.3324 -0.0270 -0.2684
15931W        W32192   3.132  13.524  15.969 -0.0315  0.0937 -0.0112
15932W        W32193   4.206  14.959   2.393 -0.3169  0.0166  0.0390
15933W        W32194   4.715  11.086   4.475 -0.0742  0.3550 -0.0431
15934W        W32195   6.978   1.645  12.566 -0.1016 -0.3046 -0.0543
15935W        W32196  16.007   5.350   5.969 -0.2648 -0.1645 -0.0282
15936W        W32197  16.994   2.876   2.057  0.2579 -0.3584 -0.2594
15937W        W32198   8.875   5.342  15.416  0.1867 -0.0198 -0.2813
15938W        W32199  14.652  14.633   2.749 -0.2187  0.1650  0.0617
15939W        W32200  11.947  12.193  14.838 -0.0298  0.1009 -0.1168
15940W        W32201  10.724  11.305  11.835 -0.0179 -0.2596  0.0590
15941W        W32202   3.180  12.741  13.567  0.1764  0.0769 -0.0611
15942W        W32203  10.043  12.250   2.369 -0.0750  0.1136  0.3525
15943W        W32204  16.292   1.333  11.594 -0.2426  0.6501 -0.1675
15944W        W32205  11.050   4.265  13.057 -0.1748  0.0683  0.1433
15945W        W32206   2.603  14.677   0.361 -0.1356 -0.0847 -0.0314
15946W        W32207  14.454  16.892  14.744 -0.3431 -0.0561  0.1686
15947W        W32208   4.426  16.337   4.224  0.4822  0.0372 -0.2250
15948W        W32209  10.936   8.634  15.698 -0.0710 -0.1509  0.2224
15949W        W32210   3.029   3.303   4.705  0.1673 -0.2073  0.2904
15950W        W32211   4.095   8.037  12.241 -0.1038  0.1272  0.2662
15951W        W32212   5.492   3.021   1.038 -0.1838  0.0948 -0.0124
15952W        W32213  17.470   5.776  13.539  0.1197  0.6300 -0.0910
15953W        W32214   6.441  10.752   5.368  0.1179 -0.0604 -0.2826
15954W        W32215  16.036  17.157  12.492  0.0174 -0.2723  0.0868
15955W        W32216   8.225   1.158  13.777  0.2579 -0.0547  0.1378
15956W        W32217   4.377   6.307  16.266 -0.1852  0.2460  0.0195
15957W        W32218  13.125   5.072  14.829 -0.2751  0.1449 -0.0028
15958W        W32219  12.411   0.292  12.098  0.1556  0.1810 -0.1489
15959W        W32220   1.194  15.849   5.548 -0.1553 -0.1252 -0.3599
15960W        W32221   1.828   0.827  16.620  0.1465  0.0653 -0.3312
15961W        W32222   9.249  17.627   5.568  0.0546  0.2082  0.1067
15962W        W32223  12.453  10.662   3.012 -0.0074  0.2156 -0.2393
15963W        W32224  16.341   3.024   0.341  0.1417  0.2847  0.2431
15964W        W32225   3.963  13.732  15.183 -0.0780  0.0198  0.2869
15965W        W32226   0.614   6.433   0.428  0.1550 -0.2562 -0.0218
15966W        W32227   5.379   9.938   4.230  0.0178 -0.1930 -0.2860
15967W        W32228   2.410   8.380  16.322 -0.1446  0.1522 -0.0123
15968W        W32229   9.463  14.739   3.484  0.1423  0.0239  0.1195
15969W        W32230   2.845  15.501   6.219  0.3017 -0.3552 -0.2617
15970W        W32231  10.236   6.219  13.609 -0.0325 -0.3099  0.2806
15971W        W32232   5.948   3.565  16.042 -0.0765  0.1993  0.2139
15972W        W32233  10.032   1.464  12.233  0.0875 -0.3623  0.1520
15973W        W32234   0.795   3.269  12.609  0.1181 -0.1840 -0.0421
15974W        W32235   9.367  15.970   3.103 -0.3592  0.1797  0.2455
15975W        W32236  14.694  15.928  13.658 -0.0342 -0.0546 -0.0865
15976W        W32237   3.985  11.012   3.153  0.2227  0.2150  0.0727
15977W        W32238   6.848   2.315  14.425  0.2137 -0.0647  0.1315
15978W        W32239   1.388  10.295  14.148  0.0194  0.0465  0.0933
15979W        W32240  12.718  10.419   2.504 -0.2268  0.1376 -0.1682
15980W        W32241   6.820  13.717   0.562 -0.2148  0.0544 -0.1552
15981W        W32242   3.368  13.410  11.600 -0.0369  0.1341  0.0475
15982W        W32243  11.945   7.545   1.146 -0.1896  0.0712  0.2219
15983W        W32244   9.069  17.634  12.911 -0.2502 -0.1521 -0.2247
15984W        W32245   3.632   1.860   2.678 -0.0257 -0.2607 -0.1437
15985W        W32246   4.081   1.541   0.426  0.3590 -0.1954  0.1254
15986W        W32247  10.844   7.643   3.834  0.1969  0.2226 -0.0425
15987W        W32248   6.209   6.989  13.480 -0.0390 -0.0612  0.4632
15988W        W32249  16.752  15.482   4.724 -0.2465 -0.1389 -0.0813
15989W        W32250   8.178  10.817   2.528  0.2280 -0.0003 -0.1294
15990W        W32251   2.561   6.675   2.345  0.0784 -0.2256 -0.3167
15991W        W32252  15.542  10.429   6.092 -0.1258  0.0063  0.0620
15992W        W32253  13.563  16.980   5.821  0.1146  0.0132 -0.0791
15993W        W32254  17.176   7.262   2.201 -0.2372  0.2743  0.0879
15994W        W32255   0.290  12.444   0.189  0.2265  0.1718 -0.0059
15995W        W32256  11.370  11.049   2.681  0.0267  0.3770 -0.0455
15996W        W32257  14.245   6.259  11.156  0.0980 -0.1918  0.0792
15997W        W32258   0.506   2.319  12.417  0.4566  0.0484  0.1388
15998W        W32259   7.945  12.270   1.126  0.2660 -0.0105  0.2412
15999W        W32260   6.794  14.223   0.577 -0.0793 -0.1523  0.2031
16000W        W32261  10.169   2.468   2.986 -0.0274  0.0874 -0.3743
16001W        W32262   8.574   7.698  14.949  0.0056 -0.2244 -0.1650
16002W        W32263   9.478   1.070   0.979 -0.0146 -0.1574  0.3947
16003W        W32264   5.198   6.463   2.559 -0.1605  0.1428  0.1137
16004W        W32265   6.966  14.941   1.357  0.0963  0.0484  0.1388
16005W        W32266  17.412  11.193  12.515 -0.1021  0.0245 -0.1702
16006W        W32267   7.115  13.451   4.737  0.0287  0.0184  0.4062
16007W        W32268  15.276   8.176  11.024 -0.1054 -0.2385  0.0236
16008W        W32269  14.679  14.345  12.260  0.3323 -0.1481 -0.1278
16009W        W32270   2.863  18.176  15.901 -0.0293 -0.3000 -0.0447
16010W        W32271  16.693   0.236   2.183 -0.2654  0.1155 -0.2875
16011W        W32272  14.759   2.014  14.384 -0.0448 -0.0669 -0.1262
16012W        W32273   5.826   7.165   0.845  0.2099 -0.2346  0.0010
16013W        W32274   7.513   9.322  12.934 -0.0731 -0.4384  0.0792
16014W        W32275   0.083   6.395  12.394 -0.1192  0.0399  0.1962
16015W        W32276  13.085  13.567   1.465 -0.2448 -0.0193  0.1950
16016W        W32277   2.815   4.805   5.139  0.0135 -0.0840  0.2280
16017W        W32278   7.108   1.923   5.907  0.0469 -0.1323 -0.0575
16018W        W32279   9.813  17.208  15.099  0.3549 -0.1606 -0.0900
16019W        W32280   6.204  11.174   1.782 -0.4505 -0.3395 -0.0165
16020W        W32281   0.446  15.765   3.983  0.0820 -0.1706  0.0359
16021W        W32282   1.544   4.274  12.976 -0.0122 -0.0991  0.3446
16022W        W32283  14.477   4.555   0.717  0.0666 -0.1948  0.2351
16023W        W32284   8.808   1.838   3.224  0.2281  0.3080  0.1790
16024W        W32285   4.910  15.323   3.191 -0.1327  0.0708  0.0942
16025W        W32286   6.290  12.170   1.485 -0.2010  0.0642  0.0788
16026W        W32287   1.564  15.473  15.281  0.0694 -0.4345 -0.1503
16027W        W32288   2.234   5.755   4.944  0.2086 -0.4490  0.0934
16028W        W32289  14.207  13.701   5.387  0.1438 -0.0872 -0.0565
16029W        W32290   1.751   8.169   3.843 -0.0824  0.2094  0.3446
16030W        W32291   6.149  12.052  16.064 -0.2694  0.1388  0.3336
16031W        W32292   6.341   6.009  12.250 -0.0198 -0.2149 -0.0496
16032W        W32293  13.556  17.522   0.295  0.0713  0.0277  0.1266
16033W        W32294   1.711  13.901   1.917  0.1938 -0.2723 -0.2904
16034W        W32295  10.094  16.478  14.002  0.0647 -0.0206  0.1973
16035W        W32296  14.457   2.693   4.411 -0.3896 -0.1574 -0.0365
16036W        W32297  17.974   9.088  14.818 -0.0511  0.0244  0.0593
16037W        W32298  15.390   4.913   5.504 -0.3944 -0.3702  0.1121
16038W        W32299  15.836   0.509  15.174  0.1091  0.0920  0.0334
16039W        W32300  14.766   5.258   1.432  0.1355 -0.2899 -0.0377
16040W        W32301  11.431   8.319   1.608 -0.0677  0.2629  0.0000
16041W        W32302  16.243  15.623  14.171 -0.2007 -0.3320  0.0574
16042W        W32303  10.883  16.843   4.883  0.0795 -0.2131 -0.1941
16043W        W32304  15.734   8.064  11.208 -0.1923  0.0358  0.0348
16044W        W32305   9.682  18.120   5.303 -0.0248  0.3714 -0.1796
16045W        W32306   4.736  11.614   5.195  0.0135 -0.1791  0.1270
16046W        W32307  17.225   6.786  16.210  0.0161  0.3152 -0.0772
16047W        W32308   0.916   7.162   1.494 -0.0873 -0.0366 -0.0415
16048W        W32309   9.258  14.957  14.651 -0.3119  0.0647  0.1714
16049W        W32310  11.795   1.506  15.670 -0.0270  0.1033  0.2383
16050W        W32311   4.407   4.833   4.100 -0.0359 -0.0629  0.3080
16051W        W32312   5.256  13.461  15.027 -0.3029  0.1407  0.1100
16052W        W32313   1.246  17.930   5.671 -0.3170 -0.0950 -0.0144
16053W        W32314  11.610   9.987   0.668  0.0488  0.0601 -0.1284
16054W        W32315   9.142   7.046  12.622 -0.2709  0.2729  0.3070
16055W        W32316   9.464   4.634   2.038  0.1333 -0.0951 -0.1352
16056W        W32317   2.580   2.754   6.644  0.0039 -0.1197  0.0400
16057W        W32318   5.078  10.657   1.212  0.3765  0.2246  0.1018
16058W        W32319   6.228  10.622   4.111 -0.3391 -0.1298  0.0494
16059W        W32320  14.957  14.424   0.842 -0.3028  0.0204  0.0779
16060W        W32321   8.298  18.049  13.446 -0.4489  0.0436  0.0629
16061W        W32322   8.892  16.199  15.581 -0.1086 -0.2583  0.0614
16062W        W32323  16.252  13.472  13.860  0.1401  0.0457 -0.2812
16063W        W32324   1.601  13.522   5.983 -0.3438 -0.2602 -0.0140
16064W        W32325  12.009  10.857   4.908 -0.0960  0.3031  0.3299
16065W        W32326   5.764  13.013   4.265  0.1018  0.0788 -0.0689
16066W        W32327  11.296   4.427  13.455 -0.1417  0.0727 -0.0987
16067W        W32328   8.523  10.369  13.206  0.0405 -0.2709 -0.3292
16068W        W32329   8.907   3.248  14.709 -0.0776 -0.1271 -0.1503
16069W        W32330  11.387   9.728  16.346 -0.1148 -0.0762 -0.0048
16070W        W32331  11.644   5.060   2.513  0.0974 -0.0567  0.0780
16071W        W32332   8.351   5.332  16.593 -0.1339  0.0935  0.1643
16072W        W32333  15.352  11.739  15.419 -0.2649  0.1749 -0.3747
16073W        W32334  17.273   9.791   2.266 -0.5882 -0.3955 -0.3285
16074W        W32335   9.392  13.805   0.183 -0.1090  0.0763 -0.1031
16075W        W32336   8.068  12.833   0.672  0.1886  0.0879  0.2500
16076W        W32337  15.059   1.370   0.653 -0.1232  0.0199  0.0992
16077W        W32338   9.036  16.908  14.565 -0.0512  0.0128  0.0983
16078W        W32339  16.794  17.207   4.397  0.2013  0.3596  0.0043
16079W        W32340   5.192   7.331  14.568 -0.0134  0.1958 -0.3739
16080W        W32341  12.798   4.304   4.221 -0.1656 -0.0270  0.2103
16081W        W32342   9.853   4.742  11.417 -0.2004 -0.6172  0.0383
16082W        W32343   7.451  12.491   2.880  0.1196 -0.2103  0.3291
16083W        W32344  11.816  11.877   1.468  0.1509  0.1686 -0.1810
16084W        W32345   8.203   1.044   1.027  0.0242  0.0413  0.0696
16085W        W32346  12.154  16.452   3.362  0.1595  0.1483  0.3453
16086W        W32347  15.554  15.153   2.445  0.0557 -0.0481  0.4648
16087W        W32348  14.211  13.781   0.085  0.1792 -0.2478 -0.1063
16088W        W32349  11.637   5.518  12.595  0.1087 -0.0787  0.4704
16089W        W32350  13.235   6.007  13.857 -0.1551  0.0378 -0.0689
16090W        W32351   8.874   3.214   2.864 -0.1847  0.1469  0.2578
16091W        W32352   7.132  16.057   1.058 -0.1722 -0.0396  0.2943
16092W        W32353  15.551  14.898   1.176 -0.3338 -0.0095  0.1320
16093W        W32354  17.946   1.628   3.146 -0.1814  0.1950  0.1252
16094W        W32355  10.886   5.963  11.187 -0.1464  0.0097  0.0380
16095W        W32356   6.779   7.123  15.590 -0.0676 -0.2582  0.0295
16096W        W32357  14.332  11.792  12.006 -0.0604 -0.0586  0.0049
16097W        W32358   4.674   8.150  14.746 -0.0335  0.1230 -0.0225
16098W        W32359  17.967   3.670  15.787  0.0326 -0.0816  0.2525
16099W        W32360   3.674   1.460   4.087 -0.1403  0.1368 -0.1407
16100W        W32361  16.477   9.566   0.529 -0.0128  0.5081 -0.2218
16101W        W32362   0.842   3.654   3.899  0.1352  0.2827 -0.1881
16102W        W32363  14.996  17.746   2.109 -0.0355 -0.1140  0.1517
16103W        W32364  15.684  16.501   5.735  0.2724  0.6510  0.0026
16104W        W32365  11.298  15.338   5.858 -0.0435  0.1754 -0.0712
16105W        W32366   2.185  10.232  14.800  0.0576 -0.1190  0.1488
16106W        W32367   8.184  13.857   2.430 -0.1742 -0.1406  0.2516
16107W        W32368   7.614   4.606  16.359 -0.0709 -0.1115  0.2217
16108W        W32369  15.594  13.059   4.769 -0.1871  0.3246 -0.0641
16109W        W32370   0.920   9.573   2.475 -0.1278  0.1676  0.0222
16110W        W32371   2.672  13.956   4.068  0.0040 -0.1725  0.3526
16111W        W32372   8.994  15.226   3.217 -0.1312  0.2459  0.3719
16112W        W32373   9.943  12.544   5.314  0.0802  0.0743  0.0237
16113W        W32374  14.943   1.538  11.516  0.2376 -0.0918 -0.0274
16114W        W32375   0.398  18.062   0.456  0.0516 -0.4842 -0.0699
16115W        W32376   8.303  16.003   2.086  0.0632  0.2916  0.0070
16116W        W32377   0.613   6.156  16.648 -0.0634 -0.0662  0.1191
16117W        W32378  13.737  17.910   1.201 -0.2671  0.0575  0.2445
16118W        W32379   5.834   0.108   2.055 -0.1330 -0.1424 -0.2734
16119W        W32380  17.666   9.283   4.554  0.0845 -0.2756  0.2532
16120W        W32381   8.551   5.216  12.803  0.0741  0.1597 -0.0869
16121W        W32382   8.854   9.635   2.876  0.1340  0.1450  0.0092
16122W        W32383  16.135   6.291   2.057  0.0179 -0.1236 -0.1388
16123W        W32384  15.512   5.704   1.310  0.0294 -0.1806 -0.1272
16124W        W32385   6.272   0.490   4.801 -0.0828  0.1034  0.0947
16125W        W32386  17.524   7.374  12.771  0.1340  0.1581  0.0544
16126W        W32387  11.498   6.559  13.914  0.0638  0.0120  0.0706
16127W        W32388  15.525   8.285   5.196 -0.4104  0.0859  0.1692
16128W        W32389  13.437   2.161  12.733  0.3619  0.2100 -0.1463
16129W        W32390   4.841  16.685   3.528 -0.1796  0.0272  0.2414
16130W        W32391   3.577  16.784   0.582  0.1228 -0.2134 -0.0662
16131W        W32392  12.025   8.611   5.724  0.0745 -0.0984 -0.1169
16132W        W32393  12.843   1.551  13.308  0.0425 -0.0360  0.0545
16133W        W32394  17.504   6.471   4.519 -0.2187 -0.1933 -0.1337
16134W        W32395  16.357   5.327   2.477 -0.3553 -0.0059 -0.0095
16135W        W32396   9.206  12.483  16.110  0.3590  0.1030  0.2136
16136W        W32397  11.534  15.657   4.655 -0.2636  0.0229  0.0794
16137W        W32398   4.720   1.212   5.998 -0.1676 -0.0045  0.0187
16138W        W32399  17.510   7.204  16.344 -0.1053  0.1319  0.1514
16139W        W32400   2.608   5.058  13.361 -0.3111  0.1366 -0.0039
16140W        W32401  18.031   4.527   2.915  0.1415 -0.0803 -0.0099
16141W        W32402  16.731   9.599   1.449 -0.6200  0.1491  0.1151
16142W        W32403   8.545  17.414   4.960  0.3644  0.2244  0.0250
16143W        W32404   6.019  13.892   3.922  0.0945  0.1353  0.1246
16144W        W32405   4.902   3.741  11.740 -0.1167  0.1117 -0.2694
16145W        W32406  13.685  10.783   0.073 -0.0643 -0.2964  0.2999
16146W        W32407  14.369   1.007   2.481 -0.1931  0.1797 -0.2125
16147W        W32408   5.172  11.432  14.821 -0.1221  0.0216 -0.1298
16148W        W32409   1.344   5.724  14.461  0.0589  0.0487  0.1565
16149W        W32410  13.435   6.140   0.649  0.1534  0.0745 -0.1662
16150W        W32411   5.012   6.564  11.520  0.1714  0.1100  0.1127
16151W        W32412   5.277   6.735  12.922  0.1980  0.1226  0.0172
16152W        W32413  14.172  12.098  11.672 -0.1270  0.0058  0.0234
16153W        W32414  14.560   2.453   0.016  0.3230 -0.1596 -0.0420
16154W        W32415   5.833   7.615   1.202  0.0672 -0.0040  0.2826
16155W        W32416   3.572  10.624  16.622 -0.1596  0.0551  0.0430
16156W        W32417  11.953   8.924   2.317  0.0487  0.0160  0.0383
16157W        W32418   1.440  10.992  12.909  0.2075  0.0182  0.0377
16158W        W32419   2.590   6.234  13.112  0.0067 -0.0375  0.3473
16159W        W32420   3.654  12.794  13.888  0.0029 -0.1253  0.1990
16160W        W32421   8.237  12.478   1.555  0.0515  0.0082 -0.2064
16161W        W32422   4.843   0.002   6.006 -0.0488  0.3619  0.3577
16162W        W32423   6.614  14.019   1.877  0.1055  0.2369 -0.1658
16163W        W32424  15.117  15.966  11.939 -0.0620 -0.2461  0.3598
16164W        W32425   9.418   5.064  12.735  0.0924  0.1752  0.0747
16165W        W32426  12.013  13.329   0.375  0.2025  0.2782  0.2188
16166W        W32427  16.840  13.562  13.257 -0.1247 -0.0975  0.1545
16167W        W32428  12.931   9.858  14.589  0.1001 -0.2089  0.1610
16168W        W32429  14.574  11.917   1.779 -0.0485  0.3498 -0.0230
16169W        W32430   5.320  16.175  15.263  0.0990  0.1285  0.0863
16170W        W32431  17.951   9.812  10.194  0.3710 -0.2072 -0.1963
16171W        W32432  14.988  11.648  16.151 -0.0360  0.0279 -0.3140
16172W        W32433   0.473   4.589  15.282  0.0134  0.2929  0.3775
16173W        W32434   9.311  13.804  14.130 -0.0912  0.2878 -0.1619
16174W        W32435   9.802   4.555   0.655  0.1491  0.1788  0.0228
16175W        W32436   2.297   2.229   2.185  0.2996 -0.0468  0.4839
16176W        W32437   1.289  11.137  14.198 -0.0389  0.1748  0.1572
16177W        W32438  15.996   6.071   5.368 -0.5073  0.0429 -0.2130
16178W        W32439  14.218  14.212  14.332  0.0254 -0.1902 -0.1077
16179W        W32440   8.942  18.130   0.443 -0.1919 -0.0654 -0.4448
16180W        W32441  16.106   8.370  11.489 -0.1077 -0.1059  0.1869
16181W        W32442   9.964  16.453  14.803  0.1151 -0.0742  0.0957
16182W        W32443   5.093   8.065   1.711 -0.0189 -0.3088  0.1156
16183W        W32444  18.036  16.893   4.495 -0.0209  0.5475  0.1978
16184W        W32445  17.546  15.055   5.342 -0.0405  0.0394  0.1309
16185W        W32446   7.694   9.519   0.702 -0.3332 -0.1906  0.2131
16186W        W32447   6.670  12.534   0.841  0.1004  0.0335 -0.2260
16187W        W32448   7.067   0.448  15.626  0.1410  0.0260 -0.1725
16188W        W32449  17.948   5.384  15.682 -0.2360  0.1245 -0.1252
16189W        W32450   5.735   7.784   2.763  0.2347  0.3550 -0.1024
16190W        W32451   7.101   9.082   0.234 -0.0838 -0.0126  0.0633
16191W        W32452   5.838  12.541   5.750 -0.1090 -0.1868 -0.3070
16192W        W32453   1.088   4.987   4.587  0.2007 -0.1042 -0.1115
16193W        W32454  16.874   6.521  13.673 -0.0457  0.1219 -0.0445
16194W        W32455  10.967   6.871  12.623  0.0393 -0.1398 -0.1523
16195W        W32456   8.870  16.758   3.218  0.0767  0.2588  0.0073
16196W        W32457  12.264  13.549   4.442  0.1929 -0.2034 -0.2602
16197W        W32458  11.054  14.370  16.013 -0.0740 -0.1457  0.1016
16198W        W32459   5.627   5.790   3.663 -0.2121 -0.0242 -0.1552
16199W        W32460   8.389   9.839   3.576  0.4780  0.1717  0.1196
16200W        W32461  16.364  18.004  11.181  0.0721  0.1507 -0.0619
16201W        W32462  12.398  14.044   3.983 -0.2480 -0.0745  0.1439
16202W        W32463  10.891   1.757   1.518  0.3380 -0.0355 -0.0652
16203W        W32464   3.847   2.421   1.696  0.0537 -0.3729  0.0234
16204W        W32465   1.969  10.555   4.795  0.2835  0.1473 -0.4175
16205W        W32466   7.890  11.831   3.686 -0.1998  0.2481  0.2159
16206W        W32467   8.946   5.490  13.332  0.3616 -0.1558 -0.1792
16207W        W32468  16.853  14.783   2.285  0.3038  0.0526 -0.2665
16208W        W32469  17.561  13.392  14.376 -0.2175  0.2895  0.1790
16209W        W32470  15.063   5.376  11.234  0.1302 -0.1164 -0.1681
16210W        W32471   5.617   7.511  16.548  0.1155  0.2583 -0.0869
16211W        W32472  14.133   6.636  15.685 -0.0889 -0.2712 -0.1402
16212W        W32473   1.428  14.544   5.377  0.4110  0.2064 -0.2049
16213W        W32474   6.528  14.796   1.596 -0.3230 -0.0296  0.3197
16214W        W32475   3.636  11.491  14.032 -0.2442  0.2875 -0.0621
16215W        W32476   4.095  10.829   3.686 -0.1925  0.2013  0.1341
16216W        W32477  12.449  16.102   2.081  0.1310 -0.0119  0.2224
16217W        W32478  10.969  13.736  11.942  0.0040 -0.1493  0.3744
16218W        W32479   9.638  11.855  13.115 -0.0542 -0.0392 -0.0319
16219W        W32480   0.765  14.360  12.590  0.1494 -0.2812  0.0250
16220W        W32481  17.053   1.778   1.345 -0.3165 -0.0926  0.2917
16221W        W32482   5.241   5.451  12.886 -0.1911 -0.0450  0.1793
16222W        W32483  17.740   7.789   0.896 -0.3902  0.1349 -0.2696
16223W        W32484   5.441   9.427   3.422  0.3967  0.0178 -0.1692
16224W        W32485  12.817   9.996  14.005 -0.2066  0.1211  0.2643
16225W        W32486  15.826  17.915  14.448  0.3399  0.0546  0.0859
16226W        W32487   0.303   3.820   0.075 -0.1401  0.2140  0.1782
16227W        W32488  17.464  11.119   0.979  0.0628  0.0437  0.1172
16228W        W32489   1.797   2.406  13.785  0.0755 -0.0006 -0.4658
16229W        W32490   3.325   0.640   1.958 -0.0877 -0.3146 -0.2177
16230W        W32491  15.631   7.109   3.688 -0.3265 -0.3092 -0.1150
16231W        W32492  11.558  16.690  14.048  0.1210  0.0054  0.1702
16232W        W32493   8.794   7.603  14.096 -0.0153 -0.0701  0.3958
16233W        W32494   9.296   4.485   0.646 -0.3326 -0.3270 -0.1251
16234W        W32495   3.731   8.661   0.915  0.0624  0.0235  0.1061
16235W        W32496  16.942   7.713   5.580 -0.0214 -0.0133 -0.1459
16236W        W32497  11.144  16.428  16.549  0.1699  0.0861 -0.3282
16237W        W32498   5.893   2.710   1.073 -0.1089 -0.0033 -0.1203
16238W        W32499  13.633  11.515   4.234 -0.1056 -0.0240  0.0242
16239W        W32500  13.629  15.738  15.833 -0.2795 -0.0976  0.0005
16240W        W32501  14.837  12.144  16.200 -0.3324 -0.3070 -0.0161
16241W        W32502   0.098  14.833  13.937  0.0492  0.2448 -0.0053
16242W        W32503  12.736   3.232  13.297 -0.1303  0.0385  0.1932
16243W        W32504   0.474  14.769   5.059 -0.2758 -0.0171  0.1483
16244W        W32505  17.906   1.951  16.368  0.0651  0.1298  0.0167
16245W        W32506  17.453   9.939   1.787  0.1329  0.2672 -0.4632
16246W        W32507  15.878  15.026  11.606  0.0203 -0.2612  0.1487
16247W        W32508  17.765  15.792  12.891 -0.1511 -0.3159 -0.2707
16248W        W32509   9.507  13.032   5.382 -0.0633 -0.1593  0.2077
16249W        W32510   6.528  11.391   2.407 -0.0910  0.3014 -0.0668
16250W        W32511  15.198   9.962  14.409 -0.1901 -0.0022 -0.1062
16251W        W32512   7.480  15.030   3.123 -0.2812 -0.1354  0.3488
16252W        W32513  10.564   4.087  11.407  0.1910 -0.2151  0.2644
16253W        W32514   1.318   1.487   5.512  0.2731  0.0720 -0.4780
16254W        W32515  15.339  16.858   0.178  0.0820  0.1979  0.2631
16255W        W32516   9.496  11.705   1.303  0.1238 -0.0127 -0.2245
16256W        W32517  10.967  13.719  13.467  0.1815  0.2038 -0.2128
16257W        W32518   5.752  18.057   1.615 -0.3685  0.2287  0.2482
16258W        W32519   9.425  17.956   5.947 -0.0054  0.0112  0.2218
16259W        W32520  12.523   2.853   3.180 -0.1891 -0.2481 -0.0496
16260W        W32521   5.354   7.324  14.105  0.3643 -0.5190 -0.1661
16261W        W32522   4.863  13.802  12.808  0.1186 -0.5565  0.2819
16262W        W32523   7.279   4.564   4.399  0.1582  0.2576 -0.0659
16263W        W32524   3.127  10.771  16.425  0.1524 -0.0388 -0.0657
16264W        W32525   1.596   8.687   5.725  0.1938  0.3452 -0.1530
16265W        W32526   7.521   5.749   2.510 -0.2240 -0.1286  0.0470
16266W        W32527  11.224  11.583   4.441  0.1137 -0.2501  0.0597
16267W        W32528   0.754  11.756   4.343 -0.0034 -0.0556 -0.3970
16268W        W32529  17.896  10.909   3.503  0.0831 -0.1897  0.0283
16269W        W32530  12.458   2.622   1.176  0.0583  0.2727 -0.0541
16270W        W32531  12.738   4.368   0.378 -0.1351 -0.0525  0.0823
16271W        W32532  11.525   6.210  14.283  0.0105  0.2604 -0.0828
16272W        W32533   0.092   9.312   2.114  0.1639 -0.0487 -0.1431
16273W        W32534   5.122   0.554  15.560 -0.0223 -0.0358 -0.0196
16274W        W32535   7.948   4.644  13.243  0.1350  0.1862 -0.2169
16275W        W32536  14.163   8.903  15.195 -0.0569  0.2056  0.2470
16276W        W32537  12.481  16.014  12.668  0.1307 -0.0687 -0.2801
16277W        W32538   1.152   1.341   3.852 -0.0039  0.2666  0.0497
16278W        W32539   1.317   0.813  16.521 -0.0099  0.1095  0.0802
16279W        W32540  16.087   2.245   2.886  0.0456  0.0226  0.0985
16280W        W32541   1.869  15.040  12.656  0.0873 -0.2013 -0.0895
16281W        W32542  11.218   2.186   1.897  0.3870 -0.1887  0.2252
16282W        W32543   2.439   5.540   5.511 -0.0280 -0.3465 -0.2062
16283W        W32544   2.992   1.197  12.246  0.0523  0.1709  0.0876
16284W        W32545  16.941   4.356   3.548 -0.3052 -0.1051  0.3283
16285W        W32546  16.812   3.408  15.934  0.1540 -0.0840  0.0550
16286W        W32547   0.340   6.243   5.785 -0.0375 -0.3736 -0.0837
16287W        W32548  14.566   7.664  16.243  0.2319  0.2534  0.0250
16288W        W32549   1.187  17.676  11.588  0.1449  0.2008  0.0803
16289W        W32550   4.526   4.854  12.579 -0.3662 -0.0990 -0.0420
16290W        W32551  11.520   1.089   0.318  0.0460  0.0108  0.1347
16291W        W32552  17.027   4.088  15.675  0.1707 -0.0342  0.1111
16292W        W32553  13.445  13.559  15.562  0.1139  0.0473 -0.1015
16293W        W32554  13.006  13.177   0.095 -0.0069 -0.0049  0.0003
16294W        W32555   5.516  16.976  15.139 -0.3006 -0.3370  0.1160
16295W        W32556   9.878  13.971   3.173  0.0500  0.5461 -0.2139
16296W        W32557  15.008   4.756  14.450 -0.0149 -0.0459  0.2330
16297W        W32558   3.819  13.865   3.385 -0.0832 -0.0020  0.0832
16298W        W32559   5.597   5.034  15.768 -0.0913 -0.1574 -0.2486
16299W        W32560  15.470   4.002   3.647  0.0422  0.1624  0.1123
16300W        W32561  11.196   9.050  12.971 -0.2019  0.2024 -0.0662
16301W        W32562   2.701   5.494   4.844  0.0877 -0.0794  0.1317
16302W        W32563   0.964   6.563  12.750  0.1962  0.0560  0.2549
16303W        W32564  15.290   9.697   1.366  0.3795  0.0897 -0.0045
16304W        W32565   7.478   9.024  16.490  0.0411  0.0432  0.0515
16305W        W32566  14.046  13.323   2.390 -0.0263  0.0574  0.0978
16306W        W32567   9.888  14.816  14.775  0.0252 -0.0601  0.0861
16307W        W32568   3.020  17.931  14.016 -0.2493 -0.1826 -0.0435
16308W        W32569  11.630  17.447   3.136  0.1933 -0.0825  0.1680
16309W        W32570  10.155  10.267  14.661  0.3465  0.0119 -0.1379
16310W        W32571  12.868   8.635   2.462 -0.0806 -0.2294 -0.3207
16311W        W32572   5.355   4.757   0.260  0.2053  0.0497 -0.1148
16312W        W32573   1.303  10.548   0.983  0.3397  0.0542  0.0084
16313W        W32574  17.170   7.360   3.115  0.0832  0.1908 -0.2209
16314W        W32575  11.187   9.393   1.274 -0.0568  0.3927  0.1582
16315W        W32576  12.512  17.366   4.298 -0.1563 -0.2735 -0.0902
16316W        W32577   1.007   3.670   0.789 -0.2207 -0.2710 -0.5086
16317W        W32578  12.128   7.773   0.704 -0.3284  0.0396 -0.1391
16318W        W32579  16.653  13.678   2.377  0.0117  0.0995  0.0339
16319W        W32580   9.280  10.365   0.768 -0.1702 -0.0778 -0.2091
16320W        W32581  14.166  10.284   4.157 -0.0878 -0.2174  0.2797
16321W        W32582  14.120   7.097   1.815  0.0801 -0.0694 -0.0735
16322W        W32583   9.692   5.496  12.643  0.0368 -0.0356  0.1791
16323W        W32584   0.841   9.376   5.556  0.2036  0.1341  0.0453
16324W        W32585  17.687  11.377   1.742 -0.1801 -0.0227 -0.5814
16325W        W32586  10.511   6.954  12.483  0.0021  0.1217  0.1174
16326W        W32587   5.317  14.806  13.551 -0.0332 -0.0131  0.0905
16327W        W32588   8.098  16.682   2.604  0.1110 -0.2222  0.1185
16328W        W32589   7.456  13.980   2.148  0.2825  0.0299  0.0608
16329W        W32590  14.381  15.713   4.595 -0.0834 -0.0756  0.1246
16330W        W32591   1.588   8.001   2.711  0.1572  0.3757  0.2027
16331W        W32592  11.520   5.757  15.354  0.0489 -0.0021  0.1322
16332W        W32593   5.171   6.822  13.992  0.2577 -0.0781 -0.0324
16333W        W32594  16.316   7.834  11.880 -0.0525 -0.0440  0.0008
16334W        W32595   8.818  13.698   1.183  0.0497  0.0712 -0.0412
16335W        W32596   7.360   2.871   4.700 -0.1689  0.1425  0.2606
16336W        W32597   3.496  12.957  11.755  0.0233  0.3865  0.0994
16337W        W32598  10.078   1.890  13.430  0.2324  0.0180  0.2948
16338W        W32599  17.585  11.443  13.183 -0.3136  0.0332  0.2370
16339W        W32600  15.529   7.340  12.305 -0.1862  0.0590 -0.3947
16340W        W32601  18.154   1.477  13.158  0.0884 -0.2941  0.2379
16341W        W32602   1.010   9.107   0.177  0.0873  0.1401 -0.0746
16342W        W32603   4.450  14.326   4.148 -0.1756 -0.1661 -0.1270
16343W        W32604   5.725   3.039  12.529 -0.2038 -0.0222 -0.1171
16344W        W32605   9.004  10.319  16.039  0.0068 -0.1455  0.3136
16345W        W32606   0.526  14.166   1.758 -0.1779  0.3155  0.2870
16346W        W32607  16.787  15.191  13.542 -0.1214  0.1061  0.1534
16347W        W32608   4.526   6.848   5.468 -0.1849 -0.1237  0.1420
16348W        W32609  13.624   2.471   1.958  0.4414 -0.2152 -0.0805
16349W        W32610  12.530  10.671   5.621 -0.0494  0.1089 -0.1018
16350W        W32611   2.687   4.847   1.843  0.1232 -0.0475  0.0847
16351W        W32612  12.719   4.090  11.094  0.1905  0.0705 -0.0748
16352W        W32613  12.678   4.916  13.193 -0.1886  0.2220 -0.1133
16353W        W32614  16.621   5.509   4.197  0.0478 -0.1881  0.0003
16354W        W32615  17.727   5.366   0.756  0.4689 -0.0468 -0.3933
16355W        W32616   5.741  15.340   5.406  0.2717 -0.3088  0.0244
16356W        W32617   8.996   5.342   5.812  0.0040  0.2322 -0.2150
16357W        W32618  17.339   5.062   2.765 -0.0560 -0.1997  0.1921
16358W        W32619   3.921  17.641   1.629 -0.3285  0.0337 -0.1619
16359W        W32620   0.758   6.328  14.866 -0.0372  0.2952  0.0797
16360W        W32621  13.914  12.787   1.087  0.0998  0.0119  0.0894
16361W        W32622   4.079   9.262   0.408  0.1663  0.1428 -0.0320
16362W        W32623  12.629  12.145   0.648 -0.4349 -0.2991  0.1278
16363W        W32624   0.287  15.149  14.243 -0.4342 -0.1565 -0.2167
16364W        W32625   3.687   0.558   0.177 -0.3589 -0.0538  0.2351
16365W        W32626  17.954   9.049   4.239 -0.1537 -0.0979  0.0177
16366W        W32627  12.552   1.143  13.665  0.2429 -0.3071  0.0903
16367W        W32628  12.315  17.407   1.595 -0.1986  0.1253  0.3117
16368W        W32629   5.618   5.414   2.961  0.2637 -0.0463 -0.0221
16369W        W32630   8.839   3.337  13.266  0.0971  0.4355  0.0016
16370W        W32631   8.155  12.322   2.000  0.0262 -0.1715  0.1455
16371W        W32632   8.521   2.450   1.822  0.0311  0.1851 -0.1972
16372W        W32633   3.702  10.157  14.615  0.0778 -0.0204 -0.1062
16373W        W32634  11.258   5.065   4.904  0.1988 -0.1679 -0.0462
16374W        W32635  13.529   4.561  13.467 -0.0196 -0.0544 -0.1064
16375W        W32636   9.094  10.867  16.149 -0.1176  0.2867  0.0413
16376W        W32637   5.279  16.976   3.742  0.1967  0.2592  0.1719
16377W        W32638   4.546  11.769  13.252 -0.0179  0.3724 -0.1187
16378W        W32639  11.320   7.662   4.747 -0.2315  0.1934 -0.2181
16379W        W32640   4.603  10.654   1.449 -0.0278 -0.0586  0.2367
16380W        W32641   8.438  14.321  15.137  0.0610 -0.0967  0.1059
16381W        W32642   6.988  10.830  11.355  0.2180 -0.2499 -0.0443
16382W        W32643   9.821   2.789   1.741 -0.2581  0.0039 -0.1219
16383W        W32644   1.002   7.694   4.622  0.0940  0.1764 -0.2670
16384W        W32645  13.932   3.861   3.999  0.0854 -0.2009 -0.0635
16385W        W32646   7.896   1.185   1.432 -0.2347 -0.0319 -0.1793
16386W        W32647  11.726  14.151   3.224  0.0594 -0.2170  0.1244
16387W        W32648  13.575  10.972   0.493  0.3433 -0.2823  0.2349
16388W        W32649   4.113   9.903   2.161  0.2066  0.0381 -0.1041
16389W        W32650   5.694  16.591  16.170  0.1047  0.0825 -0.2673
16390W        W32651  15.612   6.963   0.730 -0.3546 -0.0790  0.2733
16391W        W32652  10.423  13.997   1.005 -0.0203  0.1365  0.0223
16392W        W32653  11.198   7.411  11.883 -0.6496  0.4019  0.0735
16393W        W32654   6.905  11.796   3.906  0.0479 -0.1069 -0.3044
16394W        W32655  13.882   5.420   4.758  0.0561 -0.0179  0.0375
16395W        W32656   6.559  15.340   5.538 -0.0383 -0.1481 -0.0025
16396W        W32657   5.917   6.074  11.293  0.0636  0.2200 -0.1649
16397W        W32658   7.773   2.306  13.528  0.1318  0.3845  0.0501
16398W        W32659  15.021  11.614   2.338 -0.1851  0.1891 -0.2294
16399W        W32660  16.979   4.025   1.968  0.0660  0.3218  0.0090
16400W        W32661   2.719   8.769  13.013 -0.2269  0.2648 -0.1411
16401W        W32662  14.255   2.701  12.575 -0.1907  0.1609  0.2297
16402W        W32663  14.285   4.123   0.726 -0.0987 -0.0360  0.0344
16403W        W32664  11.072  14.271  12.877  0.1776  0.0260 -0.2985
16404W        W32665  17.535   2.253  12.836  0.3894 -0.4000 -0.1283
16405W        W32666   6.668  15.933  12.663  0.0205  0.2101 -0.0134
16406W        W32667  10.793   4.135  16.432 -0.1746 -0.2220  0.4233
16407W        W32668   3.198   2.749   2.294  0.2449  0.0879 -0.1987
16408W        W32669  12.985  12.270  11.866 -0.0591 -0.3219  0.0366
16409W        W32670   2.983   7.626  14.138  0.0047  0.0372  0.2629
16410W        W32671  12.322   5.389   4.066  0.0303 -0.1774 -0.0553
16411W        W32672   7.465  16.323   2.120 -0.0949  0.3062 -0.1482
16412W        W32673   3.169   0.509   2.804  0.4540  0.1248 -0.0707
16413W        W32674   0.687  12.874   2.455  0.4603  0.0146  0.3782
16414W        W32675   7.600   6.751   3.871 -0.1505 -0.0195 -0.0432
16415W        W32676   4.097  16.936  15.542  0.3840  0.2105  0.1200
16416W        W32677  14.801  17.785  12.969  0.0647  0.1270 -0.1825
16417W        W32678  12.908   0.970   4.284  0.0269  0.1449 -0.1858
16418W        W32679   6.624   2.824  13.531  0.0783 -0.0205 -0.3898
16419W        W32680  17.346  10.335   2.520  0.0276 -0.0769  0.2224
16420W        W32681  13.631   7.597   2.906  0.2139 -0.4548  0.0103
16421W        W32682   6.041  15.532   2.801  0.2079 -0.1495 -0.0681
16422W        W32683  17.481  17.858  15.282  0.0563  0.0517  0.2420
16423W        W32684  17.661   7.211   1.834  0.2047  0.1359 -0.0076
16424W        W32685  10.875  12.723   2.626 -0.3245  0.0575  0.0432
16425W        W32686   5.857   0.095  12.429  0.2428 -0.1186  0.2822
16426W        W32687   3.544   5.222   4.123 -0.0178 -0.2452  0.2581
16427W        W32688  10.835   4.259  14.922 -0.1141  0.2867 -0.0221
16428W        W32689   5.491   4.671  11.171 -0.0377 -0.2962 -0.0110
16429W        W32690   5.197   0.158  12.126 -0.0838 -0.0976 -0.2927
16430W        W32691  13.975  13.292  13.867  0.3844  0.3215 -0.0008
16431W        W32692  15.995  13.691  14.965  0.0979  0.0659  0.0116
16432W        W32693   2.774  17.346   0.170  0.0927 -0.1848 -0.1593
16433W        W32694  13.360  15.553  13.299  0.1275 -0.1664  0.0573
16434W        W32695  11.594  17.893   5.265  0.0838 -0.1870 -0.2904
16435W        W32696  11.218  12.684   4.417  0.1170 -0.0314  0.0873
16436W        W32697   2.972   3.071   3.693  0.0961 -0.2087 -0.2674
16437W        W32698  12.197   8.619   4.063  0.1415 -0.2738 -0.2435
16438W        W32699  15.601   1.839   3.647  0.2943  0.0606  0.3733
16439W        W32700  18.158  16.314   3.281 -0.1737  0.0212  0.1170
16440W        W32701  17.466  12.126   4.603 -0.2434 -0.1528  0.0411
16441W        W32702  14.009  16.916   5.373  0.0348  0.2421 -0.0164
16442W        W32703  12.125  15.985  15.610  0.5314 -0.1028  0.0877
16443W        W32704   1.949  15.900   4.949 -0.1541  0.1542 -0.2087
16444W        W32705   8.983  15.419  13.492  0.1736 -0.0749 -0.0925
16445W        W32706   1.416  10.832  15.794  0.0068  0.1874 -0.0853
16446W        W32707   1.716   0.333   2.881 -0.3376 -0.0477 -0.1537
16447W        W32708  16.061  15.249   2.537 -0.2610  0.0654 -0.0799
16448W        W32709   0.754  17.761   0.396 -0.1702 -0.0064 -0.3114
16449W        W32710  16.955  13.167   3.020  0.0642 -0.1011 -0.2843
16450W        W32711  12.336  11.136   4.606  0.3143  0.3241  0.3181
16451W        W32712  13.709  10.898   5.003  0.1205 -0.1799  0.0634
16452W        W32713   9.377   5.753   3.909  0.0371  0.0278  0.2132
16453W        W32714   1.374  16.918   3.345 -0.1324 -0.1431  0.0362
16454W        W32715   4.124   7.296   4.565  0.0778 -0.1871 -0.0189
16455W        W32716   5.164  10.403  14.235 -0.2029  0.3098 -0.1218
16456W        W32717   4.927  13.546   2.141  0.0499 -0.0309  0.1379
16457W        W32718   8.831   8.869  11.987  0.2262  0.3612  0.0053
16458W        W32719   6.625   9.283  14.127  0.0636  0.1125 -0.1593
16459W        W32720  14.182  13.109  14.323 -0.0760  0.3250 -0.0588
16460W        W32721   5.735  13.407  15.209  0.0501  0.2532  0.0020
16461W        W32722   9.333  12.166  16.452  0.1254  0.0023 -0.2169
16462W        W32723   1.757   6.051  15.609 -0.0071  0.4211  0.0426
16463W        W32724  12.330   3.474   2.478 -0.2356  0.3166 -0.0136
16464W        W32725   0.620   8.520   4.645  0.0587 -0.1261 -0.2041
16465W        W32726   6.867   3.763  14.951 -0.0560  0.0298 -0.0890
16466W        W32727  13.971  12.423   4.320  0.0662  0.2108 -0.1558
16467W        W32728   6.699  15.929   1.759  0.1069 -0.0135 -0.0277
16468W        W32729  14.124  17.091  12.270 -0.2712 -0.2534 -0.1303
16469W        W32730   2.697   6.773  13.167  0.2188  0.2083  0.0921
16470W        W32731   5.289   5.987   1.724 -0.1438  0.1077  0.1156
16471W        W32732  11.640   4.878  10.879  0.3264  0.1973  0.1898
16472W        W32733   1.023  18.144  12.860 -0.2380  0.1541  0.3376
16473W        W32734  17.077   7.955   0.789 -0.3096  0.0836 -0.1527
16474W        W32735   9.143  13.331  12.682 -0.1769 -0.1137  0.2528
16475W        W32736  14.313  10.557  15.035  0.0881  0.1847 -0.0860
16476W        W32737  14.620   0.975   5.367 -0.2256 -0.1701  0.4703
16477W        W32738  15.393  11.229   2.323  0.1768  0.0960  0.4106
16478W        W32739   4.667   8.735   3.909 -0.3223  0.1584  0.2052
16479W        W32740   7.224  16.405   3.551 -0.0231 -0.2735  0.0512
16480W        W32741   4.157  11.506   0.362 -0.0873 -0.0371  0.0198
16481W        W32742   8.632   7.047   5.741 -0.0669  0.0213  0.0385
16482W        W32743  15.916   1.672  16.548 -0.1382  0.2424  0.2513
16483W        W32744   4.950   7.222  13.759 -0.0121 -0.0456  0.1047
16484W        W32745   1.683   7.871  16.253 -0.0872 -0.3240  0.1837
16485W        W32746   6.650  12.623   2.826 -0.1179  0.0125  0.0588
16486W        W32747  16.819  17.194  13.671 -0.1910 -0.1162 -0.0659
16487W        W32748   8.638  15.171   4.603  0.0046  0.1033 -0.0804
16488W        W32749   3.480   9.858   4.483  0.1102  0.0868 -0.3218
16489W        W32750  15.306   9.667   4.872  0.0702  0.1640  0.1133
16490W        W32751   5.792   6.036   1.569  0.0126  0.0698 -0.2269
16491W        W32752   3.576  15.745  12.779 -0.1571  0.0638  0.3114
16492W        W32753  15.426   2.857  16.356  0.5227 -0.0156  0.0633
16493W        W32754  17.697   9.581   3.091  0.0115  0.3570 -0.1478
16494W        W32755  15.255  17.137  12.531  0.2679  0.0187  0.3403
16495W        W32756   8.261  15.607   0.063  0.0918 -0.1291 -0.0981
16496W        W32757  15.437   9.372  12.060  0.0131 -0.1517 -0.1120
16497W        W32758   9.069  16.004   0.771  0.2160  0.1353 -0.0860
16498W        W32759  11.627  10.855   3.202 -0.1465 -0.2665 -0.1357
16499W        W32760  13.003   8.350   0.834  0.0193  0.1904  0.0991
16500W        W32761   3.267   9.702   1.427  0.3492  0.0756 -0.3710
16501W        W32762  10.062  11.994  13.384  0.1461  0.1600  0.1321
16502W        W32763  17.666  14.276   1.044  0.2140 -0.1870 -0.0868
16503W        W32764   6.755   4.578  13.573 -0.0485  0.1628  0.0552
16504W        W32765   7.946  14.058   1.156  0.0401  0.0022 -0.1084
16505W        W32766  15.770  15.559   0.130  0.0318  0.1939  0.1586
16506W        W32767   3.236   0.024  15.315 -0.1140 -0.1908  0.0920
16507W        W32768  16.374  11.118  16.136  0.0542 -0.0691  0.1747
16508W        W32769   8.521   6.657  13.007  0.1990 -0.1472 -0.1843
16509W        W32770   8.363   4.593   0.205 -0.1670 -0.1150  0.3150
16510W        W32771   8.310  12.094  13.151  0.0032  0.0264  0.0265
16511W        W32772  11.448   3.770   0.348 -0.0730  0.0075 -0.2881
16512W        W32773  17.848   8.701   1.162 -0.3278 -0.1734  0.1598
16513W        W32774  14.995   7.297   4.394 -0.0869  0.0594  0.1313
16514W        W32775  11.251  11.082   4.489 -0.3802 -0.0359  0.1245
16515W        W32776   7.430  12.420   1.940  0.2616  0.0827  0.8603
16516W        W32777  16.865  17.666  16.525  0.3765 -0.1710  0.0648
16517W        W32778   6.382   0.969   4.172  0.2730 -0.2149 -0.3545
16518W        W32779  10.737   6.549   3.076  0.1906  0.0088  0.0279
16519W        W32780  17.446  16.668  16.568 -0.0793 -0.1283  0.0536
16520W        W32781   4.521   4.262   1.883  0.1000 -0.0024 -0.2825
16521W        W32782   8.216  10.476  13.842 -0.0118 -0.0079 -0.0919
16522W        W32783   4.178   3.509   4.361  0.0350  0.2425  0.0374
16523W        W32784   2.252   6.297   6.099 -0.0957  0.1655  0.2088
16524W        W32785  16.321   5.162  12.732 -0.0624  0.1459  0.1325
16525W        W32786   5.536   3.728  11.466  0.0352  0.0023  0.1278
16526W        W32787   4.949   5.252   4.101 -0.1173  0.2612  0.0911
16527W        W32788  17.214   0.267   1.419  0.0190  0.0023 -0.0042
16528W        W32789   1.846  13.459   0.125  0.0166 -0.0352  0.0463
16529W        W32790  11.725  17.028   2.246  0.2022  0.3568 -0.2425
16530W        W32791   1.745   9.684   3.592 -0.0040  0.1502 -0.2694
16531W        W32792  16.789   2.705  14.777 -0.2381 -0.0571 -0.2547
16532W        W32793   3.682  10.156  16.344  0.0466 -0.0966  0.0627
16533W        W32794   0.327   8.170   1.185 -0.0751 -0.0736  0.0339
16534W        W32795  14.016   6.199   5.248 -0.0626 -0.1234 -0.3384
16535W        W32796   9.522  16.902  16.573 -0.1576  0.0698  0.0276
16536W        W32797   8.587   8.491  14.229 -0.1419  0.3043  0.0963
16537W        W32798  13.779  13.441  11.492  0.0324 -0.3802  0.0188
16538W        W32799   7.581   0.695  14.021 -0.3158  0.3277 -0.2394
16539W        W32800  14.204  11.080   2.168 -0.3216  0.0128 -0.4104
16540W        W32801  17.592  13.425   1.570 -0.0555  0.1297 -0.1378
16541W        W32802   6.834   1.760  15.755  0.0737  0.0866  0.0481
16542W        W32803   8.164  16.154  14.506 -0.0845 -0.0398 -0.0315
16543W        W32804   6.154  12.470  15.167  0.2081  0.1999 -0.0166
16544W        W32805  15.136   6.212  13.566 -0.1633 -0.0221  0.0365
16545W        W32806   9.725   6.561  15.932  0.1219  0.0329 -0.2524
16546W        W32807  10.376   9.694   1.411  0.1466 -0.0088  0.1535
16547W        W32808  15.486  10.984   0.260  0.2623  0.0910  0.2882
16548W        W32809  14.538   6.179  11.588 -0.2512  0.1447 -0.1911
16549W        W32810   0.126  12.211  13.729 -0.2154  0.0913  0.1235
16550W        W32811   0.032   8.638   3.960 -0.0063 -0.1222 -0.0339
16551W        W32812   5.264  11.740   2.891  0.1906 -0.1349  0.1921
16552W        W32813   9.304  16.331  15.360  0.0358 -0.3088  0.0007
16553W        W32814  12.084   8.021   2.407 -0.1856 -0.2226  0.1287
16554W        W32815   8.884   6.009  13.579 -0.0196 -0.3397  0.1038
16555W        W32816   5.702   0.336  14.166 -0.0173  0.1056 -0.0768
16556W        W32817   1.296   2.956   0.213 -0.0832 -0.3037 -0.4725
16557W        W32818  14.430  15.064   0.220 -0.0839  0.0042 -0.0228
16558W        W32819  17.651   6.074   4.230  0.0947 -0.0867  0.4732
16559W        W32820   8.025  10.061  15.681 -0.0056 -0.1930  0.0610
16560W        W32821   3.076   8.553   4.191  0.0251 -0.1475  0.0135
16561W        W32822   9.933   8.039   1.429  0.2109 -0.1167  0.0317
16562W        W32823   7.439   0.570   2.637 -0.0233 -0.0448 -0.3122
16563W        W32824   3.968   2.105   3.365  0.0979 -0.2785 -0.1142
16564W        W32825  15.523   0.326   4.698 -0.1235  0.0943  0.2099
16565W        W32826   2.353  15.081   0.223  0.1345 -0.1666 -0.1192
16566W        W32827  10.634  15.698  12.149  0.0811 -0.4360 -0.0317
16567W        W32828   9.768  11.779  13.721 -0.2135 -0.1150  0.0682
16568W        W32829  17.525   4.743  12.181 -0.2195  0.0317  0.2751
16569W        W32830   6.037  12.122  16.624 -0.3770  0.2158  0.0929
16570W        W32831  16.347   7.532   3.435  0.2571 -0.0576  0.2147
16571W        W32832   2.013   0.809  10.876  0.2743 -0.2187  0.1411
16572W        W32833   9.927   7.096  12.402 -0.1772 -0.0075 -0.2435
16573W        W32834   8.728  14.763  15.450 -0.2554 -0.0404 -0.1257
16574W        W32835   4.339   2.024   0.207  0.3447 -0.0372  0.0866
16575W        W32836  15.881   5.692  13.373 -0.3609  0.0428  0.1079
16576W        W32837   2.028   4.155  12.785 -0.2403 -0.0790  0.2166
16577W        W32838  18.185  12.430  15.753  0.0491 -0.1032  0.1079
16578W        W32839   8.302  15.027   2.002  0.2806  0.1002 -0.2183
16579W        W32840  16.906  12.420   2.186  0.1841  0.3016 -0.0661
16580W        W32841   0.159   1.925   2.966 -0.1020 -0.0407 -0.0498
16581W        W32842   5.803  13.580  14.204 -0.0148  0.1149  0.0607
16582W        W32843  12.304  16.394  13.360  0.0464  0.2596 -0.0267
16583W        W32844   6.059  16.349  15.866 -0.2752  0.1332  0.1248
16584W        W32845   4.868  17.700   4.676 -0.4232  0.0536  0.1610
16585W        W32846   0.035  15.673  15.987 -0.0973 -0.0357 -0.4243
16586W        W32847   1.580  14.369   2.152  0.0379 -0.1159 -0.1881
16587W        W32848  17.115   7.100  13.845 -0.2190 -0.1072 -0.0206
16588W        W32849   7.794   5.178   4.856  0.3240  0.1203  0.0612
16589W        W32850   3.744  14.058  16.483  0.3659  0.2725 -0.1154
16590W        W32851   2.651  15.002   5.712 -0.3690  0.0262  0.0216
16591W        W32852   3.200  13.802   3.925 -0.0581  0.0787  0.0059
16592W        W32853   4.516   4.570   0.519  0.2364 -0.1036  0.0625
16593W        W32854  16.682   9.676  14.626  0.0006 -0.3695 -0.2045
16594W        W32855   6.980   4.104  15.739  0.0989  0.1593 -0.0174
16595W        W32856   3.056   3.288   2.463  0.0302 -0.3229  0.1484
16596W        W32857   8.891  14.595   3.782 -0.1006  0.1467  0.0500
16597W        W32858   1.942   6.160   1.213  0.0650 -0.0184  0.1626
16598W        W32859   1.517  11.321   4.648  0.2363 -0.1483 -0.2204
16599W        W32860   6.283   2.282   3.208  0.1896 -0.0580  0.0429
16600W        W32861  13.129  18.155   3.837  0.3926  0.3059  0.1622
16601W        W32862   1.963   9.775  11.484  0.1446 -0.0395 -0.0622
16602W        W32863   3.387  13.468  12.918  0.0864  0.1913  0.3094
16603W        W32864   5.448  14.026   5.283 -0.0099 -0.1748  0.1337
16604W        W32865  18.061   3.267   3.570 -0.0777 -0.3572  0.0396
16605W        W32866   6.980   8.001   2.693  0.1594  0.3343  0.3956
16606W        W32867   3.135   5.122   4.432 -0.0275 -0.3601  0.0569
16607W        W32868   6.245   4.998  16.413 -0.0158 -0.0262 -0.0478
16608W        W32869  11.795  15.084   3.273  0.0133 -0.0642  0.0909
16609W        W32870   3.021   2.667   3.293 -0.1975  0.0849  0.4607
16610W        W32871   1.419  11.380   0.363  0.1554 -0.0517  0.1523
16611W        W32872  11.658   9.244   2.055  0.1167  0.0591 -0.3388
16612W        W32873   9.505  13.012  16.158 -0.1053  0.2906  0.1246
16613W        W32874  13.084  11.926  14.594 -0.0545  0.0100 -0.1032
16614W        W32875  16.768  11.228   2.129  0.2023 -0.0727  0.0653
16615W        W32876  12.285   4.071   4.095  0.0696  0.1199  0.1952
16616W        W32877   8.957   2.280   4.764  0.0811  0.1112 -0.1738
16617W        W32878  11.224  11.658  13.815 -0.0940 -0.2558  0.4389
16618W        W32879  12.442   7.906  15.962 -0.0676 -0.0693 -0.0224
16619W        W32880   9.902  16.569   0.079  0.0658 -0.0636 -0.2492
16620W        W32881  16.153   0.207  14.646 -0.0303  0.0109  0.0512
16621W        W32882   3.136   9.604  11.406  0.3802  0.0705 -0.1179
16622W        W32883  10.235   5.129  11.402  0.2642 -0.0147  0.0527
16623W        W32884  10.179   0.189   5.515  0.0607  0.1345  0.0895
16624W        W32885   1.462  10.339  15.530  0.2147 -0.0455 -0.1088
16625W        W32886   2.943   5.110  15.513  0.0732  0.0123 -0.2334
16626W        W32887  18.190  16.890  16.059 -0.2678  0.0408 -0.2223
16627W        W32888  10.509  13.161   2.481 -0.1352  0.3181  0.1435
16628W        W32889   8.928  11.430   2.499  0.0331 -0.1381  0.0208
16629W        W32890  12.055  14.405  15.455  0.1502 -0.0340  0.0332
16630W        W32891  17.924   0.545   3.899  0.2272 -0.0222 -0.1499
16631W        W32892  16.822   0.150  12.839 -0.1264  0.1571  0.0599
16632W        W32893   5.026  14.739   4.657 -0.2275 -0.0965  0.1279
16633W        W32894  16.522  16.990  12.503 -0.0594  0.1033  0.1875
16634W        W32895   2.851  10.884   4.447 -0.0970 -0.3294  0.1652
16635W        W32896  13.194   8.714  16.643 -0.3220 -0.1795 -0.2008
16636W        W32897  16.305  13.694   3.735 -0.1662  0.1669  0.3105
16637W        W32898  12.483   9.759  12.412  0.0159  0.3221  0.2402
16638W        W32899   4.879  11.401   0.537  0.1543  0.2608 -0.1178
16639W        W32900  17.056  13.126  16.619 -0.1759 -0.2117 -0.0651
16640W        W32901  15.420   3.600  12.101 -0.1174  0.1710 -0.2682
16641W        W32902   4.031  13.644  11.752  0.4276  0.0624  0.0328
16642W        W32903   5.397   4.583  13.457  0.2099 -0.1005 -0.0076
16643W        W32904  12.027   9.177  14.677  0.0217  0.3428 -0.4771
16644W        W32905   4.929   2.138  13.252  0.1718 -0.1679 -0.1522
16645W        W32906  12.668   7.288   2.240  0.1195 -0.3222  0.2687
16646W        W32907   6.088   5.908  15.834 -0.0964  0.1967 -0.0706
16647W        W32908  14.030   3.684   4.482  0.2122 -0.1148 -0.0885
16648W        W32909   8.529   5.789   3.131  0.0168 -0.4321  0.3050
16649W        W32910   1.729   6.964   4.654 -0.1364 -0.1187  0.2261
16650W        W32911   2.381  15.975   5.968  0.0662 -0.0049  0.2626
16651W        W32912   8.870  13.419  14.385 -0.4470  0.1371 -0.0143
16652W        W32913   1.602  14.775   4.024  0.1439 -0.4400 -0.0461
16653W        W32914   9.927   2.244  16.601  0.1031  0.1730 -0.6036
16654W        W32915   5.380   1.723   1.094  0.2594  0.1530  0.0505
16655W        W32916  15.789  11.485   1.567  0.0786 -0.0725  0.0232
16656W        W32917  15.059  13.839   5.710 -0.1816  0.0094 -0.2542
16657W        W32918  10.255   4.252   2.474 -0.0850 -0.4938  0.1754
16658W        W32919  12.495   7.430   1.020 -0.4958  0.1781 -0.0003
16659W        W32920   3.300  13.620  14.735 -0.1405  0.0081  0.1195
16660W        W32921  14.820   4.900   4.455 -0.0111  0.3738 -0.2266
16661W        W32922  13.401  14.200   3.788  0.1893 -0.0294  0.0403
16662W        W32923   8.864  12.199   0.021 -0.0468 -0.1275 -0.1793
16663W        W32924  10.062   3.557   4.309 -0.1700 -0.3277 -0.0862
16664W        W32925  16.877  13.847   1.902 -0.0194  0.2059  0.1843
16665W        W32926  14.925  17.776  14.515 -0.1498  0.3582 -0.2254
16666W        W32927  17.496  13.321   5.981  0.0510 -0.0574 -0.1581
16667W        W32928  10.360  16.651  12.129  0.0865  0.0407 -0.3692
16668W        W32929   7.364   2.626   2.025  0.0418 -0.2486  0.0597
16669W        W32930   6.973   8.594  13.376 -0.2974 -0.2137 -0.0935
16670W        W32931   3.661  16.865  13.895  0.0168  0.2216 -0.0795
16671W        W32932   1.935   0.276   0.807  0.2362  0.0314  0.3195
16672W        W32933   1.074   1.801  12.651  0.2286  0.3223  0.1087
16673W        W32934   5.942   0.878  11.976  0.0128  0.2334 -0.1722
16674W        W32935   3.777  12.626  12.286 -0.0429  0.2481 -0.1382
16675W        W32936   3.022   3.687   5.480 -0.0178  0.1348  0.4747
16676W        W32937   0.916   5.051  12.392  0.1820 -0.0063 -0.1904
16677W        W32938  11.497  16.307  11.634  0.0184 -0.0684 -0.1794
16678W        W32939  11.089   0.678   2.471  0.0602 -0.1269 -0.0922
16679W        W32940   3.817  13.377   2.771 -0.2156 -0.0626  0.2990
16680W        W32941   0.177   4.665   1.019 -0.0378 -0.2037  0.0680
16681W        W32942   0.557  11.181  15.360 -0.0706 -0.1778  0.3839
16682W        W32943   1.484   4.045   2.142 -0.1967  0.0699 -0.0538
16683W        W32944   5.795  10.606  12.120  0.2559 -0.1784  0.3119
16684W        W32945  10.893  13.089   5.523  0.0692  0.0055  0.0096
16685W        W32946   8.250   8.576   6.169  0.0050  0.3197  0.1374
16686W        W32947   1.065   4.353  12.756  0.0746  0.2219 -0.1843
16687W        W32948   5.965   4.181  13.327  0.1595 -0.1636 -0.1570
16688W        W32949   7.258  12.193  16.607  0.2727  0.2668 -0.0079
16689W        W32950  17.666   4.844  13.609  0.4901 -0.1853  0.0130
16690W        W32951   1.146   8.316   4.469  0.0889  0.1002  0.1879
16691W        W32952   6.043  13.499   1.203  0.0553 -0.3488 -0.1350
16692W        W32953   1.985  11.485  16.353  0.1190  0.3488  0.3447
16693W        W32954   9.868   3.019   3.961 -0.1781  0.0447 -0.0328
16694W        W32955   7.255   7.861   1.857 -0.1158  0.1290 -0.1582
16695W        W32956   1.117   9.054   1.157  0.1887 -0.0197 -0.0625
16696W        W32957  15.558   9.987  13.033 -0.0571 -0.0795 -0.0509
16697W        W32958   0.538  15.599   0.488  0.0186 -0.0743  0.1316
16698W        W32959  14.991   4.120  15.157 -0.2940 -0.2266  0.1561
16699W        W32960   7.192  13.305   4.027  0.3621 -0.0893  0.1481
16700W        W32961   3.524  12.753   1.620 -0.3926 -0.1901 -0.0060
16701W        W32962  11.452   5.828   5.226 -0.2749  0.0123 -0.0711
16702W        W32963   8.128   5.745   2.307  0.0148 -0.0580  0.1108
16703W        W32964  10.098   3.989   1.602 -0.2180  0.0021  0.1331
16704W        W32965  16.533   8.143   1.071 -0.0414 -0.0782 -0.1391
16705W        W32966  15.228  16.811  14.342 -0.0382 -0.2703 -0.1372
16706W        W32967  13.897   4.259  15.468 -0.0017  0.0725  0.1182
16707W        W32968   3.201  13.443   0.092  0.3767  0.1161 -0.3280
16708W        W32969   2.809   0.643  13.689 -0.0206 -0.3334  0.0149
16709W        W32970   2.192   6.991   4.328 -0.2029 -0.1863  0.1176
16710W        W32971   3.585   2.759   3.055  0.0127 -0.0100 -0.0989
16711W        W32972  15.797   2.336   5.548 -0.1791  0.2673 -0.2160
16712W        W32973   4.737   8.381  12.932  0.0374  0.0118 -0.1314
16713W        W32974  15.626   3.231   5.934 -0.0919 -0.2666 -0.0565
16714W        W32975   6.528  11.242   4.586  0.2621  0.1722 -0.1823
16715W        W32976   6.744   7.966  14.922  0.1601 -0.0454 -0.1228
16716W        W32977  15.397   8.819  13.931  0.0252  0.0521  0.0298
16717W        W32978  14.598  11.051   1.325  0.1828 -0.0018 -0.1789
16718W        W32979  16.856   5.559   0.722  0.1257  0.0382 -0.0816
16719W        W32980  16.195  16.141  14.967 -0.0225  0.1034 -0.0091
16720W        W32981  10.227   7.458  11.023  0.3993 -0.1933  0.2564
16721W        W32982  10.272  10.953  14.268  0.0521  0.0618 -0.3653
16722W        W32983   4.212   9.835  14.686  0.1548 -0.1776 -0.0120
16723W        W32984  17.986  14.960   2.138 -0.2732 -0.3408 -0.5261
16724W        W32985   1.199  17.606  13.060  0.0928  0.2262  0.0544
16725W        W32986   6.714  16.373   3.430 -0.2560  0.0749  0.0226
16726W        W32987   1.503  15.429   2.462  0.3524 -0.0777  0.2138
16727W        W32988  16.989   9.229  14.437  0.0088 -0.2918 -0.0853
16728W        W32989   1.682  15.100  13.639  0.2455  0.0495 -0.0168
16729W        W32990   8.516  12.847   3.575 -0.1347 -0.1821  0.2503
16730W        W32991  14.722   0.651   1.714 -0.1241 -0.2677 -0.1343
16731W        W32992   0.303  13.270  11.597 -0.1761 -0.0713  0.2286
16732W        W32993  14.204  17.769  15.262 -0.1637 -0.1108 -0.0820
16733W        W32994  15.222   8.466   4.796  0.0207  0.1515 -0.0366
16734W        W32995  14.371   8.961   1.984 -0.0742  0.0145  0.0181
16735W        W32996  12.071   0.914   0.218  0.2487  0.1410  0.2701
16736W        W32997  17.223   2.208   3.793  0.0266  0.0169 -0.0622
16737W        W32998   8.491   8.115   3.816 -0.0320 -0.2739  0.0217
16738W        W32999   0.212  14.793   0.141 -0.0144  0.0044  0.1007
16739W        W33000   7.445   1.686  15.114 -0.1529 -0.3564 -0.1845
16740W        W33001  11.357  16.620   4.872  0.1745  0.1380  0.1621
16741W        W33002  13.421   7.986  14.222 -0.1974 -0.1725  0.3187
16742W        W33003  15.621  15.104  16.540 -0.0059 -0.2638 -0.0245
16743W        W33004  11.961  18.023  15.813 -0.2461 -0.2791  0.0466
16744W        W33005   2.250   7.808   0.400  0.2048  0.0855  0.1461
16745W        W33006  16.345  16.794   5.210 -0.2247  0.0958  0.1013
16746W        W33007  17.489   3.888  15.570  0.0931  0.2283 -0.0847
16747W        W33008  14.082  16.200   5.918 -0.3175  0.1105 -0.0385
16748W        W33009   1.953   8.514  14.628 -0.0828  0.1650 -0.2393
16749W        W33010   7.939  15.332   5.808 -0.0653  0.2492  0.1581
16750W        W33011  18.116  10.599   5.713  0.0020 -0.0043 -0.0786
16751W        W33012  10.848   7.795  13.624 -0.1991 -0.1841  0.3256
16752W        W33013  15.612  10.354   4.407 -0.1778  0.0201 -0.2606
16753W        W33014  17.117   3.336  16.307  0.0602  0.2281 -0.1930
16754W        W33015   8.365  12.111   0.251  0.1787 -0.0415  0.1057
16755W        W33016  11.606   9.770   0.184  0.1546 -0.2284  0.1648
16756W        W33017   9.272   5.270   4.715  0.1862 -0.0383  0.3106
16757W        W33018   4.076   9.386   2.056  0.3324 -0.0440  0.1224
16758W        W33019  13.045  15.300   1.770 -0.2588  0.0661 -0.1950
16759W        W33020  17.851   4.781   3.790  0.2687  0.1249 -0.1614
16760W        W33021   2.273   8.963  16.598  0.0210 -0.0657 -0.0269
16761W        W33022   2.764  17.967   3.531  0.0711  0.0656  0.1776
16762W        W33023  17.170  12.690  11.769  0.0470 -0.0647  0.0764
16763W        W33024  12.376  15.170   0.579  0.2005 -0.1104 -0.2606
16764W        W33025  12.597   3.044  12.808  0.0381 -0.1298  0.0247
16765W        W33026   1.055   7.121  16.332  0.2158 -0.2842  0.0485
16766W        W33027   6.421   7.350  16.566 -0.3384  0.2297  0.1429
16767W        W33028   7.039  12.619   1.234 -0.0114  0.4639  0.2343
16768W        W33029  17.657  17.717  13.756 -0.0683 -0.0420 -0.2464
16769W        W33030  16.158   7.568   0.057 -0.2934 -0.4656 -0.0452
16770W        W33031   0.297  17.491   4.047  0.0411  0.5433  0.1987
16771W        W33032  17.870  14.758   2.576 -0.0219 -0.0562  0.0498
16772W        W33033   3.538  11.437  13.042  0.0279  0.1752 -0.2185
16773W        W33034  17.147   5.576   4.487 -0.1867  0.1430 -0.0146
16774W        W33035  14.732  16.842  13.767  0.0902 -0.2873 -0.0152
16775W        W33036   8.483   3.943   1.069  0.2894  0.3007  0.3138
16776W        W33037  18.193  13.915   1.087  0.0037  0.1255  0.2499
16777W        W33038   6.625   1.811  13.572 -0.0648  0.3218 -0.1679
16778W        W33039  10.438  10.352  12.929 -0.1685 -0.1819 -0.3120
16779W        W33040   5.711  16.511  15.266 -0.2750 -0.2931 -0.1611
16780W        W33041  16.271   0.573  14.326 -0.3556  0.2138  0.0027
16781W        W33042   0.270  12.771   1.108 -0.0458  0.1554  0.0370
16782W        W33043  17.510   5.582   2.583 -0.0869 -0.2032 -0.2434
16783W        W33044  15.113   8.755  16.157 -0.2084 -0.0070 -0.4577
16784W        W33045  14.233  14.241  11.914  0.3290 -0.1150 -0.0250
16785W        W33046   0.928   5.110  13.884  0.3293  0.3129 -0.0994
16786W        W33047   0.348   6.340  14.112 -0.2143  0.0945  0.2232
16787W        W33048   8.206   8.717  15.564  0.1328 -0.0830 -0.4403
16788W        W33049   2.890  11.054   5.226 -0.3606 -0.0637  0.0681
16789W        W33050  18.076  17.883   5.799  0.2815  0.0474  0.0780
16790W        W33051   7.210   5.216  12.480 -0.1219 -0.0533 -0.2921
16791W        W33052  16.738  15.969   4.753  0.0407 -0.1896  0.2383
16792W        W33053   0.972  12.699   2.913  0.2572 -0.1666 -0.0766
16793W        W33054   7.841  14.080  13.004 -0.0131  0.0275 -0.0464
16794W        W33055   5.368  14.414   4.631 -0.0410  0.1996  0.0084
16795W        W33056  12.854  14.344  12.004  0.2457  0.0574  0.0645
16796W        W33057  15.382  14.937   4.760 -0.1052 -0.4071  0.1270
16797W        W33058   7.316   6.127   0.804 -0.2731 -0.1675 -0.1719
16798W        W33059   5.893   2.756   5.300  0.0541  0.0279 -0.1095
16799W        W33060  13.265  15.026   4.814 -0.2542 -0.3863 -0.4060
16800W        W33061   3.144   3.863  13.143  0.3525 -0.0684 -0.0638
16801W        W33062  11.226  14.144  11.963 -0.0773  0.0924  0.0800
16802W        W33063   2.395   9.226   1.251 -0.0806  0.3607  0.0666
16803W        W33064  11.076   3.142   0.915 -0.0379 -0.0681 -0.1034
16804W        W33065   3.565  12.856   0.802 -0.0544 -0.0520 -0.0123
16805W        W33066   1.740   6.533  13.435 -0.0831  0.0350 -0.4249
16806W        W33067   8.305  13.939  15.998  0.0988  0.1148  0.1157
16807W        W33068  16.129  18.107   5.252  0.0138 -0.4066  0.0170
16808W        W33069   1.972   8.681  15.190 -0.3427 -0.2869 -0.0185
16809W        W33070  17.148   0.955  16.523  0.1414  0.2762 -0.1356
16810W        W33071  10.715  14.569   3.987  0.1832  0.1529  0.0048
16811W        W33072  16.644  13.171  11.852  0.0712  0.0772 -0.0515
16812W        W33073   6.090  17.839  13.276  0.4175 -0.1291  0.1544
16813W        W33074   3.352   7.087  15.837 -0.1454 -0.0171  0.0209
16814W        W33075  15.247   7.023   5.031 -0.0554 -0.0895  0.0003
16815W        W33076  15.100  13.496   0.799  0.1803  0.0506  0.0810
16816W        W33077  10.645  15.756  15.540  0.0391  0.1249 -0.0192
16817W        W33078   8.477  11.061  13.470  0.0349 -0.1964 -0.2161
16818W        W33079   7.931  15.647  14.799 -0.2272  0.1623  0.0088
16819W        W33080   3.652   8.905  15.291 -0.4164 -0.3269  0.1773
16820W        W33081   0.555  11.452   2.466  0.2736  0.0933 -0.0618
16821W        W33082  16.171   3.001   4.550  0.1974  0.1018 -0.2010
16822W        W33083   0.488   7.482  11.730  0.3964 -0.0119  0.1119
16823W        W33084  12.354   8.317  11.513  0.2055 -0.0655  0.1038
16824W        W33085  15.668   7.530   0.183  0.2734 -0.2547 -0.0105
16825W        W33086   4.698   1.346  16.169  0.0556  0.0343 -0.0060
16826W        W33087  14.126  16.966   3.834  0.0827 -0.0805  0.2394
16827W        W33088   4.061   7.352   1.797  0.1589 -0.1403 -0.0297
16828W        W33089   8.589   2.789   5.301  0.1154  0.1431 -0.2294
16829W        W33090   0.755  15.984   0.156 -0.2566  0.0288 -0.3846
16830W        W33091  17.986  17.255  16.366  0.0862 -0.3646  0.1803
16831W        W33092  10.671   5.250  11.776  0.0003  0.2649  0.4188
16832W        W33093   9.373   2.022   2.741 -0.0765 -0.1528  0.0334
16833W        W33094  15.780   0.691  14.062  0.0667 -0.2226 -0.1031
16834W        W33095  16.203  12.566   5.284  0.0772 -0.0188 -0.1650
16835W        W33096   9.479   9.516  16.008  0.0025 -0.0844 -0.0459
16836W        W33097   9.570   9.823   4.463  0.2280  0.2972 -0.2656
16837W        W33098  10.519   3.581  15.212 -0.0959  0.1971  0.0143
16838W        W33099   6.868   3.186   5.082  0.2827  0.0284 -0.0075
16839W        W33100   5.578  11.202  14.078  0.1564  0.0769 -0.0101
16840W        W33101   6.902   7.647  16.476  0.0745 -0.1676  0.1014
16841W        W33102   3.018  17.933   1.559  0.0717 -0.2790  0.1703
16842W        W33103   7.251   1.227   2.021 -0.0843 -0.2064 -0.2324
16843W        W33104  13.330   3.136  10.977 -0.5438  0.0234 -0.3753
16844W        W33105   3.773  11.861   1.259 -0.1103 -0.0812 -0.0148
16845W        W33106   1.795   8.468   3.031 -0.0980  0.0828  0.0298
16846W        W33107  16.855  14.845  14.384  0.4184 -0.2005  0.4259
16847W        W33108   4.476   2.746  15.014  0.0955 -0.0322  0.1845
16848W        W33109  11.009  16.401  14.693  0.1098  0.0092 -0.1203
16849W        W33110   4.294  12.404   3.835 -0.0852  0.0005 -0.0448
16850W        W33111   4.800   9.526  13.556 -0.1942  0.2496  0.2672
16851W        W33112   0.312   6.139  13.490 -0.1863  0.1712 -0.1015
16852W        W33113   4.531   6.319  14.933  0.2054 -0.0190 -0.1809
16853W        W33114   4.159   4.381  13.583  0.1180  0.1638 -0.0035
16854W        W33115   7.653  16.791   0.386 -0.0869 -0.2203 -0.1442
16855W        W33116  16.405   8.097   4.560  0.1065 -0.0526  0.0668
16856W        W33117   7.386   7.604   5.615 -0.3883 -0.1446  0.1629
16857W        W33118   7.828   8.027  14.323  0.2421  0.2816  0.0555
16858W        W33119   2.050  12.746  14.495 -0.3245 -0.1931 -0.0218
16859W        W33120   5.844  12.322   0.430 -0.0252 -0.1178 -0.1326
16860W        W33121  14.675  10.504  12.410 -0.1480  0.0551 -0.0391
16861W        W33122   5.200  15.936   2.092 -0.0044  0.2338  0.1237
16862W        W33123   3.311  15.694   6.071  0.1088 -0.0355  0.0510
16863W        W33124   1.088  11.022   1.095  0.0058 -0.0387  0.2097
16864W        W33125  17.410   2.894   1.275 -0.0123 -0.0595  0.2484
16865W        W33126  16.796   0.470   0.524  0.1822 -0.2053 -0.2360
16866W        W33127   4.448  15.514   4.854 -0.0179  0.0408 -0.4254
16867W        W33128  10.915  12.771  11.683  0.0091 -0.2177 -0.1053
16868W        W33129   7.472  12.879  11.430  0.2133  0.1356  0.3194
16869W        W33130   5.191   4.579   3.179  0.2587 -0.3345 -0.0882
16870W        W33131   1.769   2.644  12.183 -0.1143  0.1957  0.1491
16871W        W33132   3.475  12.937   5.053 -0.0312 -0.0297 -0.1084
16872W        W33133  12.413   5.251  11.687  0.1523 -0.1438  0.0843
16873W        W33134   8.358  11.353   2.524 -0.0232  0.0146 -0.3331
16874W        W33135  14.105   5.169  14.346 -0.1637 -0.0165 -0.0062
16875W        W33136   3.040   0.545  15.394  0.1963 -0.0171  0.4073
16876W        W33137  17.743  17.740   2.161 -0.2022  0.0751  0.1839
16877W        W33138  15.331  15.249   3.371 -0.0249 -0.1080 -0.3534
16878W        W33139   7.451  11.784  15.532 -0.0229 -0.1631 -0.1715
16879W        W33140   3.645   4.767   1.929  0.0691 -0.0588  0.2979
16880W        W33141  17.572   4.512  14.853 -0.1708 -0.1409 -0.1289
16881W        W33142   1.035   0.223   2.042  0.2052 -0.1093  0.3061
16882W        W33143   5.742   9.407   5.642  0.0120  0.3663 -0.2258
16883W        W33144  11.345  14.475   0.912  0.2782  0.0791  0.3072
16884W        W33145   0.604  12.724  12.385 -0.0375 -0.1653 -0.0953
16885W        W33146   7.257   2.117  14.807  0.1275  0.2964  0.1491
16886W        W33147  14.504   3.005  14.465  0.2104 -0.1642 -0.0916
16887W        W33148  11.470   2.585  13.704  0.2811  0.3240 -0.2371
16888W        W33149  16.297   4.910   0.563 -0.0897 -0.0198  0.1356
16889W        W33150   8.118  13.073  13.894  0.0812 -0.7025 -0.0478
16890W        W33151   2.763  13.236  16.611 -0.1622 -0.0669  0.1300
16891W        W33152  15.288  16.729   4.623 -0.0817  0.1255 -0.2891
16892W        W33153   5.599   7.482   4.602  0.1152 -0.1699 -0.2806
16893W        W33154   9.548   9.914   0.591  0.2219  0.0846  0.0558
16894W        W33155   3.132   3.286  12.493  0.1574  0.1317 -0.1702
16895W        W33156  16.972   5.757  16.282 -0.0888  0.1145  0.1124
16896W        W33157  15.277  12.837  14.347 -0.0225  0.2164  0.1069
16897W        W33158   3.297   3.619  15.122 -0.2148 -0.1780 -0.2544
16898W        W33159   4.185   8.992  14.794 -0.0541  0.1083 -0.0085
16899W        W33160   8.039   7.188   3.539 -0.1359  0.0930 -0.3096
16900W        W33161   6.286   0.224  14.999 -0.0455 -0.1321 -0.2457
16901W        W33162  15.168   9.979   4.019  0.0970 -0.2941  0.1282
16902W        W33163  11.667   5.759   1.219 -0.2339  0.0231  0.0089
16903W        W33164   9.883   1.394   5.562  0.0021 -0.4276 -0.1151
16904W        W33165  17.483   5.174   2.298  0.1235 -0.1557 -0.1674
16905W        W33166   9.834   7.613  15.539  0.0041  0.1405  0.2769
16906W        W33167  10.329  11.499   2.740  0.0084  0.1918 -0.2752
16907W        W33168  17.471  16.593   2.375 -0.2132  0.3011 -0.0341
16908W        W33169   9.904   6.030   4.766 -0.2796 -0.0825 -0.1291
16909W        W33170  14.451   8.805  14.259  0.0976  0.2254  0.0631
16910W        W33171   1.615  14.021   5.643 -0.2559  0.3672 -0.1161
16911W        W33172   0.565  17.112  15.988  0.1247 -0.2241 -0.0447
16912W        W33173  10.942  16.319   2.376 -0.2513 -0.2207  0.1348
16913W        W33174  15.132  15.235  12.407  0.0712 -0.1685 -0.0646
16914W        W33175   1.765  16.668   3.311 -0.3438 -0.1666 -0.0192
16915W        W33176   9.900  14.407   5.806  0.1183  0.1740 -0.2318
16916W        W33177  13.095   2.213  13.099  0.0717  0.1037 -0.1092
16917W        W33178   1.524  13.298  14.128  0.1814  0.1705  0.1596
16918W        W33179  13.701  17.816  12.554  0.1140 -0.1636 -0.0304
16919W        W33180  15.617  14.622   0.135 -0.0325  0.0330  0.2176
16920W        W33181   7.232  14.951   2.445 -0.2638 -0.0931  0.1368
16921W        W33182  15.501   2.940  11.992 -0.1305  0.1025  0.3055
16922W        W33183   9.296   6.868  15.877  0.1785  0.1138  0.0028
16923W        W33184   7.536  10.248   1.359 -0.1972 -0.1438 -0.1346
16924W        W33185  15.395   6.081  12.008  0.0393 -0.2055  0.1123
16925W        W33186   6.966   4.731   3.930  0.0953  0.1194 -0.0587
16926W        W33187  10.401  11.558   4.608  0.0689 -0.3951 -0.0294
16927W        W33188   8.922   0.879   5.256  0.1410 -0.1815  0.1223
16928W        W33189   6.914   9.666  14.325 -0.1577  0.1162 -0.3547
16929W        W33190   0.681  17.011   2.197  0.2558  0.0520  0.2621
16930W        W33191   2.779  17.687  14.485  0.1128 -0.0465  0.0635
16931W        W33192   9.094   6.690  14.823 -0.0654  0.4002  0.1257
16932W        W33193   3.055  17.047   3.523 -0.1974 -0.1051 -0.1017
16933W        W33194   2.214   3.625  14.305  0.2342  0.2255  0.2037
16934W        W33195   6.255   1.769   2.442 -0.1484  0.0432 -0.1555
16935W        W33196   5.042   3.310  16.492  0.0021  0.0132  0.0881
16936W        W33197  15.893   1.626  16.031 -0.0607  0.4000  0.1741
16937W        W33198   5.359   2.251   2.527  0.0746  0.3487 -0.1405
16938W        W33199  12.448  11.704  14.260  0.0699  0.1239 -0.0464
16939W        W33200   5.593   2.054   0.743 -0.1459  0.0054  0.2460
16940W        W33201   9.792   8.017  14.898 -0.0204 -0.2162 -0.0996
16941W        W33202   6.251  12.296  12.005 -0.0745  0.1653  0.2326
16942W        W33203  13.997   1.599   3.685 -0.3124  0.0359  0.3436
16943W        W33204  11.380   3.098  13.636  0.0073  0.1841 -0.0374
16944W        W33205   1.459   5.634   4.008 -0.2404 -0.2319  0.1291
16945W        W33206   3.824  15.262  14.969 -0.3499  0.2078  0.0905
16946W        W33207   8.627  16.516   3.645 -0.1738 -0.2446 -0.2522
16947W        W33208   9.434  18.144   6.622 -0.0389 -0.1167 -0.2299
16948W        W33209   3.430   2.141   6.317 -0.2259  0.2790 -0.0215
16949W        W33210  17.956  17.291   2.280  0.1144  0.0868 -0.1205
16950W        W33211   5.294  11.433  13.172  0.0554  0.0377  0.1023
16951W        W33212  10.532  16.583   2.731  0.1219  0.1588 -0.0869
16952W        W33213   6.940   9.912   3.278 -0.2168  0.1458  0.3026
16953W        W33214  16.323  17.803   1.590 -0.0512  0.1078  0.0286
16954W        W33215  12.721  16.288  13.793  0.2103  0.1174  0.0151
16955W        W33216   4.699  17.733  16.532 -0.0673  0.0441 -0.4629
16956W        W33217  10.346   6.362   2.787 -0.2447 -0.1359  0.2166
16957W        W33218  12.011  15.524   4.655 -0.0984  0.2043 -0.0504
16958W        W33219   8.169   2.010  13.732  0.2032  0.1348  0.1176
16959W        W33220   5.309   4.912   4.132  0.1100 -0.0760 -0.3568
16960W        W33221  14.840  15.318   0.029  0.2252  0.1190 -0.0287
16961W        W33222  15.298   5.963  14.227 -0.1136  0.3551  0.1030
16962W        W33223   4.690   2.330  16.637 -0.1003  0.0485 -0.0839
16963W        W33224  16.393   6.604  14.712 -0.2861  0.0247 -0.1395
16964W        W33225   5.577   2.977  14.167 -0.0606  0.1738 -0.0320
16965W        W33226  13.169  10.364   3.559  0.2312  0.0493 -0.2453
16966W        W33227  14.962   8.935  15.518 -0.0293  0.3080  0.1311
16967W        W33228  14.298  15.544   4.103 -0.0878  0.0042  0.3309
16968W        W33229   4.538   4.098  15.549 -0.1743 -0.0325  0.0294
16969W        W33230   0.204  15.130   4.789 -0.2121 -0.0158 -0.1719
16970W        W33231  15.042   1.117   5.191  0.1242 -0.1476 -0.0871
16971W        W33232   3.470  11.504   4.982 -0.0939 -0.2486 -0.0674
16972W        W33233   7.829   3.533  12.950 -0.3673  0.1019 -0.2572
16973W        W33234   2.013   4.290  12.248  0.1268  0.1144  0.0520
16974W        W33235   2.424   8.654  14.605 -0.1408  0.1215  0.0989
16975W        W33236   8.726  13.857  12.345  0.0669  0.1463 -0.0859
16976W        W33237   5.321   2.350  14.743  0.2140 -0.0646  0.1112
16977W        W33238  16.073   6.114   0.537 -0.0016 -0.1572  0.0173
16978W        W33239   7.521  12.412  12.238 -0.0691 -0.0155  0.1715
16979W        W33240  11.777  13.773   2.586  0.0103  0.2921  0.0758
16980W        W33241  17.462   7.422   4.828 -0.2459  0.0124  0.0226
16981W        W33242  13.035   1.411  13.746  0.4939 -0.1431 -0.0764
16982W        W33243   1.270   6.889   3.364 -0.2229 -0.0159  0.1645
16983W        W33244   7.093   2.988  15.183 -0.1537 -0.1918  0.2113
16984W        W33245  17.166   0.283  11.456 -0.2481 -0.0517  0.0077
16985W        W33246  17.034   0.019  15.325  0.0141 -0.0007  0.0762
16986W        W33247   9.933  10.093  15.117  0.3940  0.3025 -0.0368
16987W        W33248  14.710   8.783   2.380 -0.0064 -0.1326  0.2983
16988W        W33249  12.285   6.406   1.511 -0.0129  0.0686  0.2322
16989W        W33250  16.164   7.802   1.023 -0.0260  0.0248 -0.0354
16990W        W33251   9.850  10.117  11.829  0.0678 -0.0536  0.0708
16991W        W33252  11.023  13.413   1.533  0.0918  0.0100  0.0879
16992W        W33253  14.781   7.389  10.694 -0.5497  0.0180  0.0911
16993W        W33254   6.535   1.640   0.722 -0.1271  0.2616  0.0705
16994W        W33255  13.659   2.033  16.256  0.1337 -0.0857  0.3748
16995W        W33256   8.312  10.404   4.484 -0.2487 -0.0189 -0.0473
16996W        W33257  12.198   8.006   4.859  0.1159  0.2486 -0.0469
16997W        W33258   4.058  14.084  15.511  0.1522 -0.1206  0.2346
16998W        W33259   3.774  16.177   3.868 -0.0400 -0.2868 -0.0542
16999W        W33260   3.577  15.036   4.266  0.0974 -0.1851  0.0899
17000W        W33261  17.938   0.190   4.746 -0.2152  0.0515 -0.1201
17001W        W33262  10.349  17.018  15.496 -0.2193 -0.3779  0.3516
17002W        W33263  11.407   2.368   4.977 -0.0082  0.1286  0.2384
17003W        W33264   8.962   8.479  13.262  0.2826 -0.0724 -0.5139
17004W        W33265  12.758   9.418   4.746 -0.1101 -0.1606  0.1313
17005W        W33266  16.298  13.547  16.264 -0.0032 -0.0403 -0.0008
17006W        W33267  16.421  16.718   2.099  0.0897  0.0878  0.2476
17007W        W33268   3.042  11.781   5.781 -0.1972 -0.1506  0.3799
17008W        W33269   9.066  11.364   1.235  0.0279  0.2282  0.1042
17009W        W33270  11.367   9.671  14.818 -0.0036 -0.0308  0.0922
17010W        W33271   8.340  15.592   2.922  0.0880 -0.1780  0.0251
17011W        W33272  14.957   2.097  15.995  0.1229  0.4485  0.0210
17012W        W33273   5.880   8.335   3.680 -0.2465  0.2058 -0.3567
17013W        W33274   3.095  13.115  16.296  0.0533 -0.0096 -0.1665
17014W        W33275  11.793  12.689  14.778  0.1641  0.1377  0.0490
17015W        W33276  16.907   4.090   5.297  0.0491 -0.1443 -0.1575
17016W        W33277   1.638   1.229   5.239 -0.1097  0.1191 -0.1799
17017W        W33278   0.092   9.234  12.449  0.0842 -0.0259 -0.1630
17018W        W33279   5.451   8.557  14.764 -0.1969  0.2489  0.1209
17019W        W33280  14.224   8.267   2.445  0.0922  0.1638 -0.2642
17020W        W33281   4.533  12.158  11.812 -0.2691  0.2215  0.0041
17021W        W33282  10.158   5.013   3.184 -0.4145 -0.5074 -0.0066
17022W        W33283   5.264   7.070  15.701 -0.0361  0.2360 -0.2021
17023W        W33284   0.282   2.387   0.280 -0.1041 -0.2233 -0.0818
17024W        W33285  18.107  15.914  13.828  0.0562 -0.1458  0.1397
17025W        W33286   1.817  14.730  11.820  0.0038 -0.0714 -0.0577
17026W        W33287  17.838  15.382  11.359 -0.0959  0.2379 -0.1815
17027W        W33288   6.507   6.054  13.338 -0.1156 -0.0838 -0.0919
17028W        W33289   2.612  14.609   6.128  0.1429 -0.0255  0.1197
17029W        W33290  15.466  18.002  14.129 -0.0499 -0.0553 -0.0857
17030W        W33291   7.777  11.648   4.463 -0.3079 -0.2825  0.2145
17031W        W33292   9.212  15.610  12.118 -0.2330 -0.0931 -0.2520
17032W        W33293  13.917   4.869   1.966 -0.2919 -0.0688 -0.2145
17033W        W33294   6.007  16.335  11.983  0.3892 -0.0865 -0.0140
17034W        W33295  10.707  14.203   2.455  0.1995  0.0925  0.0716
17035W        W33296   3.333  10.980  14.707  0.0919  0.0091  0.1253
17036W        W33297   5.788   1.753  13.838 -0.0216 -0.3172  0.1766
17037W        W33298  10.005  12.882  16.062  0.3917 -0.1753  0.1465
17038W        W33299  15.131  13.006   5.975  0.1386  0.0532 -0.2335
17039W        W33300   3.487   6.866  14.127 -0.1157  0.2830 -0.0288
17040W        W33301  14.712   9.685  13.060  0.0703  0.1100 -0.0739
17041W        W33302  17.769   5.834   0.895  0.3497 -0.1647  0.1476
17042W        W33303  15.965  14.171   2.622 -0.0220  0.1909 -0.0043
17043W        W33304  13.968  13.191   0.352  0.0865 -0.1464  0.0672
17044W        W33305   3.921   1.655  12.335  0.1728 -0.0753  0.1262
17045W        W33306  10.333   1.696  14.901 -0.2075  0.0656 -0.0928
17046W        W33307   3.976  10.625  12.854 -0.1362 -0.1320 -0.5978
17047W        W33308  11.668  16.311   4.472 -0.1178 -0.0234 -0.4347
17048W        W33309   3.455   4.557  16.428  0.2964  0.3119 -0.1641
17049W        W33310   4.286  17.465   0.349  0.1910 -0.5154  0.4331
17050W        W33311  13.610  12.561  15.073  0.1898  0.0303  0.0729
17051W        W33312   0.494  15.042  12.478 -0.2685 -0.3016 -0.1157
17052W        W33313   7.054   5.911  14.888 -0.1039  0.2583 -0.1503
17053W        W33314  11.180   3.288   3.525 -0.2929  0.3117  0.1464
17054W        W33315  14.070  17.022  11.732 -0.0867 -0.3711  0.0372
17055W        W33316   0.249   1.224  13.738 -0.3196 -0.1553 -0.3034
17056W        W33317  15.393   9.980  15.741  0.1209 -0.1496  0.0372
17057W        W33318   8.029   7.696  15.018 -0.4487  0.0123  0.1195
17058W        W33319  17.216   3.342   5.602 -0.1426 -0.0634 -0.0409
17059W        W33320  15.011  11.557  12.221  0.0051 -0.3715 -0.0381
17060W        W33321   7.022   2.868  12.105 -0.2153  0.0735 -0.0936
17061W        W33322   0.607   1.580   0.538 -0.0339 -0.2348  0.0541
17062W        W33323  16.274   2.756   1.357 -0.3119  0.1391 -0.1901
17063W        W33324   6.640   6.740   0.790  0.2797 -0.0213 -0.1082
17064W        W33325  16.577   0.593   3.264  0.2490  0.1835  0.0233
17065W        W33326   5.802   7.447   5.095  0.0872 -0.0877 -0.1829
17066W        W33327  14.818   3.267  12.443 -0.0898 -0.3768  0.0590
17067W        W33328   4.662  13.305   2.586  0.0301  0.1685 -0.0815
17068W        W33329   7.731   8.855  14.849 -0.0105 -0.0290 -0.1575
17069W        W33330   0.196  15.287   5.840  0.0125 -0.0189  0.0258
17070W        W33331  10.520  11.232   5.020 -0.5250 -0.3429  0.2088
17071W        W33332   3.629   8.221   0.697  0.0907  0.1132 -0.0716
17072W        W33333   0.880   7.047  12.870 -0.0535 -0.4164  0.0260
17073W        W33334   1.460   2.369   2.436 -0.3803  0.0606  0.1688
17074W        W33335   9.489   8.393   4.828  0.1668 -0.1864  0.0834
17075W        W33336  12.082  12.592  15.928  0.1925 -0.0958  0.0228
17076W        W33337  10.201   7.249  15.418 -0.0991 -0.1637  0.1501
17077W        W33338  16.806   8.372   0.031  0.3446  0.2898 -0.1361
17078W        W33339   9.447   1.112   3.692  0.0316  0.1901 -0.0527
17079W        W33340   4.939  16.023  16.215  0.2174 -0.1276  0.0212
17080W        W33341   5.330   5.874   1.188 -0.0242  0.1852 -0.2308
17081W        W33342  16.791  15.349   0.574  0.1743  0.3905 -0.2862
17082W        W33343  12.192   5.329  12.533 -0.1471 -0.2837 -0.2907
17083W        W33344   0.090   6.166   0.056  0.1911  0.0552 -0.0751
17084W        W33345  12.329   2.358  15.376  0.0925 -0.0195  0.2821
17085W        W33346   8.811   3.237  16.647 -0.0215  0.2810  0.0932
17086W        W33347   4.007   4.038  14.902  0.0191 -0.1117  0.1014
17087W        W33348  10.953   5.831  12.980  0.4558 -0.0339 -0.1117
17088W        W33349  10.654   4.010  10.939 -0.0263 -0.1366  0.1200
17089W        W33350  12.839  10.331   3.011  0.1367  0.2041  0.0444
17090W        W33351  17.042   4.672  12.047  0.1508 -0.0392  0.0240
17091W        W33352  12.747   7.544  15.316 -0.0322  0.1852  0.0619
17092W        W33353  13.702   5.302   1.099  0.3060 -0.0386 -0.1970
17093W        W33354  14.965  10.791  13.388  0.2465  0.1201 -0.1739
17094W        W33355   8.126  18.062   3.987  0.0423  0.1527 -0.0656
17095W        W33356  11.003   6.395  11.003  0.0656  0.2243  0.2231
17096W        W33357  11.113   2.080   0.402 -0.3495 -0.1119  0.0994
17097W        W33358  15.353  17.396   1.870 -0.0408  0.0489 -0.2777
17098W        W33359  11.505  11.548   5.771 -0.0416 -0.0624 -0.0438
17099W        W33360  14.526   1.839  11.577 -0.1092 -0.1325  0.0370
17100W        W33361   1.741   7.514   6.026  0.1148  0.0830  0.0716
17101W        W33362  10.335   5.024  12.217 -0.3246 -0.0293  0.2705
17102W        W33363  10.631  12.615  15.017  0.0047 -0.2543 -0.1311
17103W        W33364   3.407  13.853   4.419  0.0388 -0.0502  0.0003
17104W        W33365   2.342  11.365   4.448  0.0513 -0.0294  0.1487
17105W        W33366   0.870  11.084   2.235  0.2573  0.0797 -0.2645
17106W        W33367   8.293   6.252   1.239 -0.2658  0.0324  0.0815
17107W        W33368   6.180  14.876  14.120  0.1024 -0.1829 -0.3564
17108W        W33369   0.815   6.508   3.939 -0.1089  0.0358  0.1343
17109W        W33370   9.159  18.125   5.313 -0.2181 -0.1438  0.2709
17110W        W33371   3.075  14.240   0.265 -0.2877  0.2502 -0.5043
17111W        W33372  17.351   9.369  15.709 -0.1816  0.1258 -0.1626
17112W        W33373   7.280   6.475  15.860 -0.0792  0.0723 -0.0009
17113W        W33374   2.662  13.476   3.148 -0.2299  0.0671  0.2023
17114W        W33375   0.994  15.192   0.846 -0.0997 -0.1100 -0.3554
17115W        W33376   7.172  12.811   4.092 -0.0154 -0.0777 -0.1464
17116W        W33377  17.016  11.257   0.663 -0.2842 -0.1055  0.2937
17117W        W33378   0.783  11.125  16.371  0.1054  0.1335  0.0732
17118W        W33379  11.400  10.696  12.333  0.2900  0.1619  0.2651
17119W        W33380  14.041   6.344  12.852  0.0252  0.0646 -0.3114
17120W        W33381   9.175  11.898   4.392  0.2545 -0.1221 -0.1315
17121W        W33382  18.154  13.178   4.608 -0.1046  0.1696  0.0052
17122W        W33383   2.375  12.657   4.291  0.0901 -0.1555 -0.2627
17123W        W33384  12.794  10.994  15.886  0.3403  0.3172 -0.2047
17124W        W33385   8.837  17.063  15.168  0.3176 -0.1126 -0.1623
17125W        W33386  12.434  11.216   4.166  0.0245 -0.1352  0.3970
17126W        W33387  16.697   1.748   4.689  0.2611  0.0022 -0.1505
17127W        W33388  14.108  16.088   4.968 -0.0753  0.1783  0.2596
17128W        W33389   0.185  16.020   3.586 -0.0284 -0.2945 -0.1270
17129W        W33390   0.494   7.454   3.416 -0.1001  0.0064 -0.0419
17130W        W33391   1.627   5.643  15.394 -0.0444 -0.2101  0.0650
17131W        W33392   9.494   4.186  12.105 -0.1745  0.0665  0.0823
17132W        W33393   2.270  17.292   1.852  0.0957 -0.1184  0.1926
17133W        W33394   3.786   3.147  11.921 -0.2145  0.0123  0.0493
17134W        W33395   8.582   4.126  12.254  0.0990 -0.0891  0.0827
17135W        W33396   4.697   2.287  11.959  0.4519 -0.0657 -0.3507
17136W        W33397   5.843  12.076   2.574  0.0584 -0.1301 -0.1930
17137W        W33398   0.734  13.115  11.478 -0.2891 -0.0134  0.1347
17138W        W33399   5.748   1.398   0.900 -0.2279 -0.3747 -0.1125
17139W        W33400  15.055  17.726   0.120 -0.0005 -0.2882 -0.1102
17140W        W33401   3.328  11.575   5.471 -0.1985 -0.1060  0.0333
17141W        W33402  13.979   4.965  16.011 -0.1003 -0.0309 -0.0366
17142W        W33403  16.235   5.807  13.937 -0.0244  0.2528  0.0643
17143W        W33404  12.047   3.908   5.721  0.0863  0.0496 -0.0665
17144W        W33405  12.894   0.367  12.194 -0.3672  0.0106 -0.5560
17145W        W33406  11.470   3.030   3.183  0.1103  0.1735 -0.0859
17146W        W33407  16.499  16.258   5.359  0.1095 -0.2118 -0.1517
17147W        W33408   4.032   7.824   2.528 -0.1680 -0.2104  0.1778
17148W        W33409   4.851  14.695   4.050 -0.0844  0.3005  0.0242
17149W        W33410   7.500  13.519   3.477 -0.0295 -0.0244 -0.0452
17150W        W33411   4.475   5.668   2.186 -0.1158 -0.0285  0.3908
17151W        W33412   6.098   3.098   3.698 -0.0153 -0.0220  0.4538
17152W        W33413   0.131   4.192   2.480  0.0464 -0.3116 -0.0032
17153W        W33414   8.975  17.234   5.364  0.3812 -0.1556  0.0027
17154W        W33415  14.614   6.960  16.252 -0.3241  0.2224  0.0289
17155W        W33416   8.004   4.176   3.366 -0.0519  0.1344  0.1217
17156W        W33417  14.316   2.923   1.622  0.2430  0.0078 -0.0974
17157W        W33418  16.982  11.761   2.760 -0.0670  0.1601  0.1619
17158W        W33419  10.912   1.252   3.440  0.0375  0.0504  0.0271
17159W        W33420  13.186  12.708  12.183  0.3009 -0.1768  0.4320
17160W        W33421  17.689   4.046   5.640 -0.0012 -0.3117 -0.0952
17161W        W33422   9.138   0.976  13.932  0.0767  0.2856 -0.0403
17162W        W33423   9.964  14.895   2.830 -0.2693  0.0477  0.2524
17163W        W33424   1.457  10.296   4.351 -0.0174  0.0527 -0.1158
17164W        W33425   1.947   5.629  13.436 -0.1633 -0.0564  0.1059
17165W        W33426   5.180   9.636   5.793 -0.1224  0.0154  0.2014
17166W        W33427  11.085   3.781  10.771 -0.5678 -0.3479 -0.0508
17167W        W33428  17.594   5.457   3.060  0.0541  0.3564  0.1398
17168W        W33429   9.404   6.740   5.877 -0.1586 -0.0411  0.1446
17169W        W33430   2.171   4.247  13.279  0.2872  0.0518  0.1013
17170W        W33431   1.080  13.995  13.897  0.2184 -0.0226  0.1229
17171W        W33432  11.807   2.119   4.687 -0.1450  0.0889 -0.0258
17172W        W33433   6.502  14.282  12.070  0.0707 -0.0365  0.0238
17173W        W33434  14.464   7.329  11.941  0.3442 -0.0288  0.1951
17174W        W33435   3.956   2.052  16.179  0.1756 -0.3371  0.0523
17175W        W33436   4.593  12.555  15.908 -0.0007 -0.1195 -0.0883
17176W        W33437   3.939   9.302  13.140 -0.0104  0.0014  0.0491
17177W        W33438   9.547   2.488   3.134 -0.0118  0.1527 -0.4942
17178W        W33439  13.368   5.771  14.652  0.3690  0.0254  0.0771
17179W        W33440  16.161  15.207  16.533  0.3691  0.0393  0.0939
17180W        W33441   9.140  14.405  12.701 -0.0282  0.0296  0.1255
17181W        W33442   1.443  16.360   1.962 -0.0155 -0.4243 -0.1025
17182W        W33443  13.883  13.856  12.230  0.3533  0.2868  0.1072
17183W        W33444  18.163  15.105   1.479  0.2988 -0.1684 -0.0031
17184W        W33445   9.634   1.766   4.596  0.0772 -0.0955  0.0871
17185W        W33446   0.798   6.684  11.168  0.2930  0.1111  0.2124
17186W        W33447  12.511  15.139  14.341  0.2590 -0.3073 -0.1478
17187W        W33448   9.751  17.462  13.417  0.0913 -0.2747  0.2820
17188W        W33449   7.012   9.738   2.604  0.0648 -0.0565  0.1819
17189W        W33450  16.243  17.518  11.328  0.2329  0.1261 -0.1417
17190W        W33451   7.557  15.746   0.899  0.1000 -0.0858  0.1673
17191W        W33452   0.405  17.494   0.684 -0.1829  0.0634  0.1325
17192W        W33453   8.138   1.173  12.889  0.0599  0.1239  0.0972
17193W        W33454  10.169   4.335  14.181  0.0555  0.1847  0.0990
17194W        W33455   2.724  14.690   2.599 -0.0127 -0.2036  0.1873
17195W        W33456   8.343   5.800   4.107 -0.1709 -0.0419 -0.2790
17196W        W33457  12.224  13.177   1.391  0.2091 -0.1889  0.1401
17197W        W33458   9.046   1.920  11.974  0.3575  0.0327 -0.0055
17198W        W33459   7.716   6.819  12.185 -0.1497 -0.1531 -0.0778
17199W        W33460  17.849   7.819  11.958  0.0739 -0.0457  0.2723
17200W        W33461  17.698   3.885  16.201  0.1212 -0.0194  0.0528
17201W        W33462  14.585   7.204  12.805  0.2747 -0.1213  0.0684
17202W        W33463  10.874  12.618   5.301 -0.2034 -0.2549 -0.1099
17203W        W33464  16.743  15.804   0.343 -0.0692 -0.1058  0.1467
17204W        W33465  16.269  15.249  15.116  0.0852  0.1609 -0.3184
17205W        W33466   3.615   2.924   2.029  0.0466  0.1257  0.0298
17206W        W33467  11.813   3.022  13.276  0.0512  0.1283 -0.0642
17207W        W33468   9.833  17.373   6.675 -0.2551  0.2156 -0.1137
17208W        W33469   8.965   2.877  11.863 -0.1865 -0.0796  0.2105
17209W        W33470  17.092  11.838   4.105 -0.0027 -0.0672 -0.0290
17210W        W33471   7.195   6.736   0.318  0.0101 -0.0955 -0.2848
17211W        W33472   4.376  17.678  16.011 -0.0979 -0.0093  0.4682
17212W        W33473  13.521   6.204   3.166  0.2102 -0.0431  0.2120
17213W        W33474   2.565   1.043  12.915 -0.0481 -0.2225  0.0073
17214W        W33475   8.290   8.663   4.564  0.0527 -0.2506 -0.0869
17215W        W33476  16.962  14.354  12.075 -0.0147 -0.1483  0.2142
17216W        W33477  14.899   9.935   2.179 -0.0637 -0.1664  0.3822
17217W        W33478  10.454  18.159   1.279 -0.1035  0.1244  0.1808
17218W        W33479   2.528  13.960  12.876  0.0518  0.2244 -0.1706
17219W        W33480  10.110   1.264  10.173  0.0219 -0.2366  0.0194
17220W        W33481   1.717  10.040  12.980  0.1880  0.3318 -0.0847
17221W        W33482  17.126   7.226   5.729  0.1578  0.3279 -0.1227
17222W        W33483   9.935   9.941  14.036  0.1440  0.1217  0.2829
17223W        W33484  12.767  10.948  14.140  0.1195  0.1340  0.2600
17224W        W33485  16.305  13.550  11.692  0.1551 -0.0239  0.0204
17225W        W33486  14.846  13.665  10.637 -0.0600 -0.2071 -0.0919
17226W        W33487   4.794   0.747  11.757 -0.1284  0.0389  0.0337
17227W        W33488  17.594  10.098   3.131  0.2087 -0.2820  0.1140
17228W        W33489   4.583   4.520   5.524 -0.1757  0.0919  0.1976
17229W        W33490   2.903  14.191   2.614 -0.0167  0.3372 -0.0445
17230W        W33491   1.939  16.807  14.422 -0.0161 -0.0832 -0.3169
17231W        W33492  14.228  17.824  12.163  0.0561  0.2907 -0.1040
17232W        W33493   5.791  14.855   2.286  0.0812 -0.0124 -0.0203
17233W        W33494  11.326  16.319  12.101  0.1468  0.2424 -0.1672
17234W        W33495   3.721   2.315   5.289 -0.0325  0.1516  0.0496
17235W        W33496  16.109  10.237  13.959  0.2224  0.2840  0.2610
17236W        W33497   0.996  17.076   1.010 -0.1178  0.0725 -0.0965
17237W        W33498  11.408  17.273   0.078 -0.1078 -0.1600 -0.0863
17238W        W33499   5.640   1.960  11.581 -0.0435  0.0939 -0.3483
17239W        W33500   4.302  15.329  14.251 -0.1164 -0.1987 -0.1831
17240W        W33501   5.877  16.215   1.774  0.1952 -0.1887  0.0333
17241W        W33502   4.092  14.932   4.143  0.1696 -0.0198  0.0362
17242W        W33503   7.958   8.245   5.605  0.1946  0.0154 -0.1794
17243W        W33504  13.348  14.902   2.605  0.1993 -0.1168  0.0280
17244W        W33505   5.363  14.614   4.161  0.0840  0.3132  0.0799
17245W        W33506  15.496   1.484  16.463  0.1071 -0.1157  0.2090
17246W        W33507  17.060   2.890   5.327 -0.2660 -0.1352 -0.4382
17247W        W33508   9.117  15.695   4.227 -0.0838 -0.0334  0.0746
17248W        W33509   1.782  12.494   0.635 -0.1145  0.2279 -0.5114
17249W        W33510  14.706  13.941   2.046 -0.0303  0.0460  0.1866
17250W        W33511   8.076   6.733  13.422  0.0117  0.2380  0.0175
17251W        W33512   5.884  17.446   5.653 -0.1297 -0.4048 -0.0280
17252W        W33513  13.024  14.808  16.111  0.1566 -0.0333 -0.0476
17253W        W33514  11.969  12.849  12.180 -0.0931 -0.0657  0.0285
17254W        W33515   8.645   7.995   0.754  0.4119 -0.2939  0.0272
17255W        W33516  12.088  17.103  12.008 -0.3031  0.2011 -0.1500
17256W        W33517  18.079   8.011   3.373 -0.1532 -0.2797  0.0760
17257W        W33518   2.506  18.182   0.271  0.1173  0.1849 -0.1433
17258W        W33519  10.535   9.045   3.850 -0.1747 -0.1133  0.1897
17259W        W33520  13.779  16.225   0.136 -0.1368  0.0134 -0.0354
17260W        W33521  15.855   2.347  15.742  0.0599  0.0279 -0.2839
17261W        W33522   9.513   7.978  14.479 -0.0112 -0.0515  0.0391
17262W        W33523   8.627  17.727   2.346  0.3939 -0.1355 -0.0446
17263W        W33524   6.591   7.378  14.749  0.1585  0.1415 -0.1947
17264W        W33525   7.756   2.536   5.879  0.1720  0.0765 -0.3395
17265W        W33526  11.863  15.715  14.894  0.1378  0.0243 -0.3937
17266W        W33527   9.218   0.916  11.813  0.2099  0.0468 -0.0132
17267W        W33528   9.779  14.673   0.062  0.1131 -0.0627 -0.0848
17268W        W33529   6.889  16.089   0.557  0.1051 -0.0775 -0.0444
17269W        W33530   1.334   3.980   0.073 -0.2040 -0.4915  0.0194
17270W        W33531   3.974  16.364   6.013  0.3255 -0.1473 -0.3455
17271W        W33532  16.381   3.907   0.847 -0.2372 -0.1231  0.2303
17272W        W33533   9.619  17.747   3.504 -0.3147  0.0394 -0.1598
17273W        W33534   5.624   9.467   0.154  0.0433  0.1890  0.3413
17274W        W33535   5.037   8.655  14.013 -0.0648  0.1883 -0.0133
17275W        W33536   3.098  15.736   4.047  0.2164 -0.4241  0.2496
17276W        W33537  13.617   8.737   5.681 -0.2220  0.1736 -0.2184
17277W        W33538   5.315  13.343   1.895 -0.2615 -0.0643 -0.2545
17278W        W33539   4.615  18.055  14.696 -0.2241 -0.3135  0.2542
17279W        W33540   5.524   8.607  16.609  0.3021 -0.2582  0.0925
17280W        W33541  17.872  11.160  12.283 -0.0214  0.2110  0.0324
17281W        W33542   8.735  12.143   4.613  0.0894 -0.0078 -0.1075
17282W        W33543   6.599  10.121   3.919  0.1846  0.3205  0.0151
17283W        W33544  16.546  18.100   5.573  0.1756  0.0641  0.3960
17284W        W33545  15.385  13.374  11.352  0.1668  0.0689  0.0157
17285W        W33546   5.187  16.249   6.083 -0.0217 -0.2740 -0.0876
17286W        W33547   4.447  15.594   2.459 -0.0678  0.0549  0.2332
17287W        W33548   8.899   4.124  15.275 -0.2482  0.0007  0.0098
17288W        W33549   7.964   2.860  14.761  0.0778 -0.2518 -0.0315
17289W        W33550   9.982  14.323   3.589 -0.1617 -0.0056 -0.3594
17290W        W33551   5.464  10.587  12.925  0.0528  0.0486 -0.1170
17291W        W33552   4.994   1.308  11.927 -0.1118 -0.2513 -0.3407
17292W        W33553  11.396   8.749  11.768 -0.1530 -0.0845 -0.1327
17293W        W33554   0.656  11.845   3.367 -0.2516 -0.0236  0.2597
17294W        W33555   6.819   5.984   0.003  0.2770 -0.0514 -0.0313
17295W        W33556   9.299  10.912   6.291  0.3402 -0.1629  0.0920
17296W        W33557  14.160   6.229  15.325  0.1723  0.0329  0.1032
17297W        W33558   7.105  16.732  15.167 -0.0500 -0.2572  0.1415
17298W        W33559   9.598  13.204  15.698  0.2267  0.3722 -0.0932
17299W        W33560   5.782  15.728   2.125  0.1179 -0.2366 -0.0229
17300W        W33561   4.637   3.288   3.404 -0.0554 -0.2454  0.0948
17301W        W33562  15.368  11.521   1.829 -0.0784  0.1439 -0.1071
17302W        W33563  11.953  13.517  14.588  0.1123 -0.0382  0.0872
17303W        W33564   9.733   3.648   1.233  0.3715  0.2017 -0.0420
17304W        W33565   1.174   8.117  16.290 -0.0578  0.1910 -0.1363
17305W        W33566   0.244   9.733   3.387 -0.0124  0.0945 -0.0765
17306W        W33567  15.275  10.988   3.770  0.3912 -0.0430 -0.1208
17307W        W33568   8.862  17.918   5.883 -0.0276 -0.2953  0.0978
17308W        W33569   7.404   7.048   4.999  0.6611  0.3597  0.0163
17309W        W33570   1.048   5.201   5.327  0.0510 -0.2038  0.0087
17310W        W33571   1.354  13.661  13.750 -0.2142 -0.2670  0.1033
17311W        W33572   1.374   4.816   3.255  0.3402  0.0594  0.0395
17312W        W33573   5.039   3.312  15.189  0.1142  0.0214  0.1228
17313W        W33574  10.165   6.705   2.430  0.0922  0.2674  0.1882
17314W        W33575  15.926  14.544  11.597 -0.2353 -0.3125  0.0637
17315W        W33576  15.891   0.802   2.556 -0.2006  0.3684 -0.0367
17316W        W33577  15.042   4.020   4.514  0.0630  0.2309  0.2465
17317W        W33578   5.084   8.394   2.661  0.0388 -0.2845 -0.1891
17318W        W33579   5.143   8.256   2.198 -0.2726  0.0627 -0.1018
17319W        W33580  12.393   3.737  13.952  0.0518  0.1910 -0.3741
17320W        W33581   4.174   5.932   1.689  0.0809  0.3836  0.0437
17321W        W33582  16.786  17.026   4.980 -0.1970  0.1617  0.2884
17322W        W33583  18.088  14.401  13.655 -0.0217  0.2346 -0.3488
17323W        W33584  10.436  14.577   3.574 -0.0754  0.1675  0.1962
17324W        W33585  10.222  14.886  15.657 -0.0915  0.2004  0.1025
17325W        W33586   4.118   0.949   2.031  0.2720  0.3625 -0.0966
17326W        W33587  10.343   7.625   0.199  0.2250 -0.1553 -0.1742
17327W        W33588   0.316  18.126  15.532  0.0483  0.0853  0.3381
17328W        W33589  16.853   0.049   4.530  0.1853 -0.1338 -0.0895
17329W        W33590  11.165  14.205   0.346 -0.3811  0.0022  0.4975
17330W        W33591   4.980   6.160   2.994  0.0235  0.0316  0.2786
17331W        W33592  12.205  17.397  14.288 -0.1023 -0.3314  0.1397
17332W        W33593  16.418  14.177   1.743  0.1788  0.1619 -0.0342
17333W        W33594  10.649   7.502  15.784 -0.1816 -0.1929  0.0259
17334W        W33595   3.817   0.181  15.307 -0.1726  0.1209  0.1837
17335W        W33596  14.342   0.717  14.257  0.1908 -0.2461 -0.0299
17336W        W33597   1.236   5.180  14.634 -0.1267 -0.0819  0.0069
17337W        W33598   9.136  12.980   5.698  0.3852  0.2482 -0.0577
17338W        W33599  16.325  16.273  16.553  0.0986 -0.3416  0.0640
17339W        W33600   1.263   7.723  13.618  0.2255  0.0531  0.3326
17340W        W33601   6.671  17.346   4.060 -0.1152  0.1433  0.0108
17341W        W33602   3.825  10.369  12.465  0.1880  0.0842  0.1478
17342W        W33603   7.008  13.437   3.437 -0.2363 -0.0350 -0.1197
17343W        W33604   0.732  13.207   1.334 -0.2049  0.0627  0.0214
17344W        W33605  16.899   0.003   0.336  0.0130 -0.1431  0.0214
17345W        W33606  15.461  17.160   5.498 -0.2645 -0.3519  0.0580
17346W        W33607   6.135   0.995  14.815  0.1970  0.0631 -0.2200
17347W        W33608   1.868  15.125  15.359 -0.0329  0.0652  0.0492
17348W        W33609   6.670   9.388   5.486 -0.0143  0.0315 -0.1695
17349W        W33610  13.945  14.582   2.028  0.0375 -0.2521 -0.1810
17350W        W33611   2.390   5.194  15.746  0.0265 -0.2879  0.1276
17351W        W33612  15.630  13.531   5.368 -0.0439  0.1683 -0.0493
17352W        W33613  16.722   4.143   2.934  0.0350 -0.0674 -0.2312
17353W        W33614   7.848   5.569   0.762 -0.3595 -0.0888  0.1606
17354W        W33615  13.403   5.841   3.502 -0.2297  0.0750  0.1405
17355W        W33616   3.204   2.102   2.131 -0.0261  0.1258  0.5145
17356W        W33617   8.176   0.593   6.315  0.3060 -0.1785 -0.0240
17357W        W33618  17.739  10.959   5.038  0.1078 -0.3167 -0.0215
17358W        W33619   7.889   1.196  11.925 -0.0004  0.0353  0.4320
17359W        W33620   2.182   1.616   0.248  0.1392  0.2693  0.3682
17360W        W33621  11.864  12.260   3.299 -0.0444  0.0778  0.0866
17361W        W33622   4.437  10.829   3.287  0.1092  0.3306 -0.3145
17362W        W33623  17.645  11.963  13.146 -0.0245 -0.2376 -0.1056
17363W        W33624  14.742  16.023  12.740 -0.0228  0.0155  0.0940
17364W        W33625  15.678   8.804   4.732 -0.0379  0.1650  0.1548
17365W        W33626   5.589  13.325   6.061  0.1404 -0.0224 -0.1745
17366W        W33627   6.015  13.030  12.630  0.1676 -0.2151  0.0993
17367W        W33628   8.198  12.962   1.673 -0.0355  0.0284 -0.1537
17368W        W33629  14.546   8.192  16.413  0.2297  0.3802 -0.3197
17369W        W33630   7.366   7.006  15.866  0.0595  0.0341  0.0444
17370W        W33631  15.315  10.821   3.305 -0.0081  0.1559 -0.0813
17371W        W33632  14.929   9.192  12.239  0.3177 -0.3331 -0.2268
17372W        W33633   6.648   4.304   0.097 -0.1453  0.0868  0.0785
17373W        W33634   3.168   0.536   3.845 -0.0796  0.2047  0.1284
17374W        W33635  10.376  15.478  15.116  0.2033  0.2587 -0.2002
17375W        W33636  10.231  11.813  13.952 -0.1038 -0.1745  0.0373
17376W        W33637   0.865   1.460   1.368 -0.3661  0.0710 -0.4980
17377W        W33638   2.344  18.166   2.974 -0.1060  0.0353 -0.1948
17378W        W33639   9.451   7.622   2.574 -0.1709  0.1627  0.1888
17379W        W33640   5.563  11.329   4.294  0.0080  0.0783  0.0672
17380W        W33641   8.094   6.763   0.973  0.1492 -0.0791 -0.1482
17381W        W33642   0.695   8.726  13.641  0.1698 -0.3335 -0.2397
17382W        W33643  13.611   7.237  14.849 -0.4328  0.0246  0.1373
17383W        W33644   4.684   0.615   2.820 -0.1038 -0.0399  0.1393
17384W        W33645   0.549   7.376  15.179  0.0035 -0.0489 -0.1773
17385W        W33646   8.889   7.257   3.337  0.1841 -0.1092  0.0644
17386W        W33647  17.597  17.898   3.440 -0.0317  0.0795  0.2674
17387W        W33648   1.761   8.911   2.787 -0.1901  0.2866 -0.1225
17388W        W33649  16.745  11.060   4.491 -0.0916 -0.2965  0.1025
17389W        W33650  18.088   9.855   1.737 -0.0453  0.2792  0.0325
17390W        W33651   8.769   4.444   0.538  0.2023 -0.0526 -0.0591
17391W        W33652   8.882   2.777   0.275  0.1128  0.3157  0.0284
17392W        W33653  15.868   3.834   3.218 -0.0616 -0.4325 -0.0736
17393W        W33654  16.092  18.037   3.908  0.0635  0.0440  0.2953
17394W        W33655  10.840   7.260   4.128  0.0438 -0.0651  0.0068
17395W        W33656  13.726   2.865   4.023 -0.1010 -0.1626  0.0868
17396W        W33657  16.643  15.807  12.603 -0.0554 -0.0971 -0.0301
17397W        W33658   5.243   3.818  16.436  0.0093  0.0905  0.0463
17398W        W33659  17.648   1.717   4.455 -0.1633  0.1950  0.2129
17399W        W33660  17.166   7.827   4.700  0.1710 -0.1030 -0.5768
17400W        W33661   4.909   5.689   1.554  0.3178 -0.0155 -0.0546
17401W        W33662   0.324  12.655  13.950  0.3947 -0.0198 -0.0473
17402W        W33663   4.799  15.634  16.453  0.2642 -0.1743  0.3711
17403W        W33664   5.217   0.374   4.033 -0.2267 -0.1903  0.0377
17404W        W33665  13.525  12.079  14.831 -0.2716 -0.1737  0.0990
17405W        W33666   9.036  14.345   4.211  0.1094 -0.2955 -0.0090
17406W        W33667   4.078   6.733   5.636 -0.0544 -0.0943  0.1700
17407W        W33668  17.493  17.242   3.876 -0.1109  0.1242 -0.0094
17408W        W33669  15.970   0.924   3.800 -0.3554  0.2225 -0.1801
17409W        W33670   3.496  14.931  12.479 -0.0863  0.0099 -0.1379
17410W        W33671  14.118  17.331   4.593  0.1693  0.0517  0.2218
17411W        W33672   1.427   0.048  15.846 -0.1753  0.1880  0.0543
17412W        W33673  11.654  16.230  16.345  0.2908 -0.3308 -0.1764
17413W        W33674  10.872  10.587  12.231 -0.0129  0.0179 -0.2447
17414W        W33675   4.601  15.206   2.123  0.2912 -0.1268 -0.4513
17415W        W33676   0.997  16.889   0.292 -0.2257 -0.0155 -0.0165
17416W        W33677   9.603  12.675  15.775 -0.1124 -0.0210  0.1643
17417W        W33678   7.003   7.819   0.311  0.0397  0.1026  0.0090
17418W        W33679  11.583   4.082   2.225 -0.1265  0.1550 -0.0412
17419W        W33680   5.027   9.145  13.832 -0.1094  0.3093 -0.2668
17420W        W33681   8.630  12.747   1.355  0.1783 -0.0097 -0.4911
17421W        W33682   6.046   9.625   1.946 -0.3701 -0.0300 -0.1617
17422W        W33683  12.271  10.907  14.088 -0.2438 -0.0262 -0.2906
17423W        W33684   4.924  15.617  14.716 -0.2971  0.1906 -0.2357
17424W        W33685   1.620  12.577  14.501  0.4093 -0.0576  0.1289
17425W        W33686   8.145  14.726  14.915 -0.3186 -0.1040  0.2758
17426W        W33687  11.345   3.804   1.812 -0.0902  0.3102  0.1456
17427W        W33688   2.444  10.963  11.860  0.0205 -0.1017  0.2344
17428W        W33689  11.367  14.741   3.895 -0.1554 -0.0650  0.2109
17429W        W33690   4.592  15.177   1.606 -0.0528  0.0285 -0.1198
17430W        W33691  18.139   7.567   5.607  0.1410 -0.1794 -0.0251
17431W        W33692   8.177   5.368  13.877 -0.0381  0.1991 -0.0011
17432W        W33693  11.395   5.219  12.090 -0.1296  0.0004 -0.1701
17433W        W33694  17.018  11.040  16.057  0.0689  0.3596  0.2876
17434W        W33695   7.771  16.725   1.509  0.0547 -0.2012  0.1919
17435W        W33696  17.837  14.193  14.917  0.2891  0.2452 -0.3224
17436W        W33697   5.659  17.467  15.452 -0.2353  0.2424  0.0916
17437W        W33698  10.322   8.888  13.435  0.0075 -0.1468 -0.0451
17438W        W33699  16.565  16.072  11.423  0.3946  0.0422  0.3787
17439W        W33700   0.398  15.377  11.631  0.1949 -0.0785  0.1429
17440W        W33701  14.546   7.284   4.405  0.1794 -0.4628  0.1418
17441W        W33702   3.193   9.577   2.459  0.1069  0.0087  0.2222
17442W        W33703  12.491   3.907   2.373  0.1618  0.0462 -0.2551
17443W        W33704   0.987  16.858  16.023 -0.0007 -0.0335 -0.0738
17444W        W33705  16.600   5.464  14.715 -0.0784  0.0789 -0.0624
17445W        W33706  12.348  12.071  12.345  0.0568  0.3956  0.1623
17446W        W33707   8.373  13.828   1.406  0.1566 -0.0320  0.1193
17447W        W33708   0.046   4.053   2.930 -0.1002 -0.6455 -0.0957
17448W        W33709   6.877   0.868  15.929  0.2584  0.0688 -0.0431
17449W        W33710  17.447  11.826   1.469  0.1236  0.2964 -0.0132
17450W        W33711   3.412   1.895   4.130  0.0805 -0.3032 -0.0628
17451W        W33712   4.295  14.207  16.470  0.3953 -0.2309  0.1660
17452W        W33713  16.384  10.932  14.954  0.1815 -0.0012  0.4449
17453W        W33714  12.178  15.100   3.895  0.0212 -0.1540  0.4774
17454W        W33715  11.392   3.646  16.127  0.2842 -0.1850  0.0920
17455W        W33716   3.609   4.811  11.913  0.0011 -0.0444  0.2774
17456W        W33717   6.512  17.429  14.984  0.0744  0.1867  0.0889
17457W        W33718  14.100  13.705   1.884 -0.0970  0.3145 -0.1668
17458W        W33719   1.948  11.089   1.292 -0.1570 -0.1724 -0.1593
17459W        W33720  15.214   7.702  15.557 -0.0134  0.2383  0.2779
17460W        W33721  14.286   0.115  15.355  0.0891  0.2532  0.0873
17461W        W33722   5.192  15.091  16.070  0.1405  0.2418 -0.1743
17462W        W33723  15.100   0.353   1.509 -0.1301 -0.0839 -0.0135
17463W        W33724   6.705  18.069   2.766 -0.1361 -0.6375  0.1161
17464W        W33725  17.911  14.435   4.094  0.0486  0.1352 -0.0118
17465W        W33726   8.238   4.564  14.693  0.3334  0.3074  0.5454
17466W        W33727   8.798   0.349   3.033 -0.1074  0.2096  0.0180
17467W        W33728   5.119  16.575   4.863  0.0511 -0.0819  0.0926
17468W        W33729  13.031   6.071  14.991 -0.1292  0.1381 -0.0033
17469W        W33730   5.052   2.603   2.299 -0.1227  0.2156 -0.0632
17470W        W33731  13.135   8.707  11.865 -0.0435 -0.1661 -0.1665
17471W        W33732   8.044   4.215   1.012  0.0504 -0.0326  0.0622
17472W        W33733   0.858   1.901  14.048 -0.0192 -0.1769 -0.0139
17473W        W33734   3.320   4.386   3.959  0.1945  0.0490 -0.0073
17474W        W33735   0.605  11.898  11.394  0.1465 -0.1207 -0.0576
17475W        W33736   9.069  13.865   2.576  0.2725  0.0926 -0.2675
17476W        W33737  11.408  13.630   1.219 -0.5252  0.1037  0.1755
17477W        W33738  11.890   9.561  15.321 -0.1286 -0.2368 -0.1250
17478W        W33739   9.479   9.977  13.432  0.1287  0.1977 -0.0589
17479W        W33740  11.205   8.663  16.648 -0.2554  0.1589  0.1490
17480W        W33741   3.041  16.216  14.863  0.2140  0.1133 -0.0264
17481W        W33742   6.674  15.746   0.956  0.0064  0.3758  0.2166
17482W        W33743  10.016   7.856   4.259  0.1332 -0.3344  0.1990
17483W        W33744   6.028  12.345   2.191  0.0992  0.0838 -0.1949
17484W        W33745   9.864   5.426   0.191  0.2843 -0.1662  0.2498
17485W        W33746   7.761  11.996  15.910 -0.1257  0.0634 -0.1773
17486W        W33747  15.144   4.235   0.223  0.0406 -0.0996  0.1903
17487W        W33748   3.625  14.670   4.660  0.0412 -0.2492  0.1714
17488W        W33749   2.881  13.220   1.812  0.2441  0.0706  0.5826
17489W        W33750  10.034  17.283  12.996  0.0107  0.1927  0.0897
17490W        W33751   6.952  14.503  12.267  0.0956 -0.2000  0.0602
17491W        W33752   0.309  16.632   4.566 -0.3369  0.0422 -0.0622
17492W        W33753   7.632  12.028   5.566  0.2906  0.1409  0.1061
17493W        W33754   9.663   4.170   1.474  0.1860  0.0538 -0.0152
17494W        W33755   2.389   9.204   4.593 -0.2390 -0.0084 -0.2166
17495W        W33756   1.992  15.403   4.675 -0.0703  0.2152 -0.0677
17496W        W33757   0.870   3.816  13.999 -0.0006 -0.1280 -0.1820
17497W        W33758   3.352  14.238   4.745 -0.2105  0.3003  0.1411
17498W        W33759  12.713   9.649  16.549  0.2406  0.0997  0.0555
17499W        W33760  15.478   0.923   5.321 -0.2223  0.1131  0.4322
17500W        W33761  15.252   6.017   1.644 -0.1905  0.1415  0.0268
17501W        W33762  12.941   2.878  13.739 -0.1425  0.6489 -0.3774
17502W        W33763   9.839  16.287  13.514  0.3637 -0.1648  0.1325
17503W        W33764   0.572  12.454  16.422 -0.2444  0.2287 -0.0024
17504W        W33765   8.042  14.090   1.973 -0.0785 -0.4204  0.1587
17505W        W33766  11.113   0.884   1.310 -0.0036 -0.0256 -0.2770
17506W        W33767   8.878  10.109  12.972 -0.2607 -0.1480 -0.0783
17507W        W33768  14.613   8.324  14.410  0.1412  0.2839  0.0730
17508W        W33769  16.012  10.630  13.442  0.0001  0.2244  0.1928
17509W        W33770  17.737  11.909   3.428 -0.1945  0.2612 -0.0350
17510W        W33771   8.371   9.420  14.242  0.0822 -0.0298 -0.0918
17511W        W33772   7.047  11.745  14.666  0.1202  0.2122  0.0338
17512W        W33773   4.790  14.477   6.073 -0.0245  0.2776  0.0143
17513W        W33774  16.317  14.378  12.790  0.2277  0.4034 -0.1199
17514W        W33775  16.661   4.637   0.403 -0.1609  0.3686  0.0765
17515W        W33776  12.039  16.592   1.590 -0.0375 -0.1907  0.0031
17516W        W33777  10.131  16.199  13.040 -0.0026  0.0278  0.0243
17517W        W33778  14.323   2.815   2.351 -0.2492 -0.2533 -0.1537
17518W        W33779   6.016   5.456   3.923  0.1057  0.1264  0.1365
17519W        W33780  15.569  17.244   3.644  0.0389 -0.0230 -0.0759
17520W        W33781  15.297  10.708  11.798  0.0945  0.2679 -0.0276
17521W        W33782  14.625  17.671   2.559 -0.1652  0.0218 -0.1838
17522W        W33783  14.300   7.211  14.149  0.0015  0.1807  0.2047
17523W        W33784   0.687   1.099   5.044 -0.2331 -0.0818  0.0010
17524W        W33785   3.660  10.236  12.929  0.3785  0.0518  0.3222
17525W        W33786   9.036   9.966  13.800  0.3150  0.0483  0.1835
17526W        W33787   3.374   8.016  11.408 -0.1925  0.1310  0.2245
17527W        W33788   7.064  11.391   5.801  0.1131  0.1897 -0.0847
17528W        W33789   0.508   6.567   6.116  0.2770 -0.2016 -0.0993
17529W        W33790   5.694   0.021  11.939 -0.0965 -0.1854 -0.0691
17530W        W33791  17.302   6.464   0.310  0.3749  0.1741 -0.0098
17531W        W33792  16.331   2.649  11.541 -0.0898 -0.1670 -0.1496
17532W        W33793   5.820  16.907  12.516  0.0453 -0.1264  0.1513
17533W        W33794  12.486   7.427  10.999  0.2146 -0.2324 -0.4374
17534W        W33795  14.979   8.582  14.129 -0.0680 -0.3156  0.3202
17535W        W33796  17.094  10.031  16.537 -0.2585 -0.3074 -0.0325
17536W        W33797   1.260  17.767  15.659 -0.2021  0.2759 -0.1407
17537W        W33798   0.784  12.355   4.433  0.1506 -0.1804  0.0133
17538W        W33799  15.099  12.228  14.883  0.1021 -0.1611 -0.0087
17539W        W33800   3.264   6.055   1.429 -0.0642  0.2614  0.2875
17540W        W33801  16.912  14.819  11.922  0.2246 -0.1564  0.1362
17541W        W33802  11.665  18.068  11.922  0.2909 -0.0199 -0.0883
17542W        W33803   6.136   5.411  16.190 -0.2760 -0.0892  0.2315
17543W        W33804   8.173   3.143   0.002 -0.3183  0.2715 -0.1131
17544W        W33805  15.281  17.436  15.026  0.0640  0.2840 -0.0847
17545W        W33806  12.031   4.804   2.709  0.1501 -0.1097 -0.0372
17546W        W33807   3.072   2.465  14.513  0.3451 -0.1230  0.0155
17547W        W33808   9.303  10.662   4.916 -0.2714  0.1886 -0.2429
17548W        W33809   9.410   2.083  11.384  0.2209  0.1705 -0.1252
17549W        W33810   8.282   4.089   2.502 -0.1917 -0.2344 -0.1194
17550W        W33811   6.612   9.885   1.013  0.2422 -0.1769  0.1287
17551W        W33812  18.046   2.866   4.821  0.0606 -0.0426  0.5111
17552W        W33813  13.266  16.600  16.161 -0.0264  0.4944  0.2389
17553W        W33814   7.580  13.639  14.656  0.0745  0.0348  0.2437
17554W        W33815  11.919   7.170   3.214  0.0272 -0.5563 -0.0838
17555W        W33816   1.593  15.894   2.805 -0.2302  0.1889 -0.0627
17556W        W33817  15.850   7.613   3.536  0.1634  0.1048 -0.1203
17557W        W33818  10.021   6.880  14.174 -0.4846  0.2007 -0.3170
17558W        W33819  14.997   0.399  11.750  0.1993  0.2307  0.0241
17559W        W33820  12.080  10.165   4.737  0.1806 -0.3675 -0.1147
17560W        W33821   3.044  14.618   5.572 -0.2835 -0.3496 -0.2298
17561W        W33822   4.386  15.538   2.950 -0.0096  0.1189  0.2631
17562W        W33823   0.230   9.680  12.451 -0.0220  0.0281  0.1172
17563W        W33824  10.443  10.408   5.647 -0.0990  0.1301 -0.0279
17564W        W33825   5.447   3.697  15.947 -0.1085 -0.0090 -0.3407
17565W        W33826  14.019   2.336   5.342 -0.1641 -0.1889  0.3880
17566W        W33827  11.457   8.701  12.323 -0.1106  0.0131 -0.1402
17567W        W33828   4.256  16.617  15.158  0.1739  0.1587 -0.0566
17568W        W33829   1.544  10.270   2.750  0.1783  0.0684  0.0391
17569W        W33830   9.746   6.055  15.178  0.0120  0.4434 -0.0513
17570W        W33831  10.579  17.622   6.153  0.0813 -0.0354  0.2932
17571W        W33832   2.887  11.400   4.218 -0.1451  0.0435  0.0610
17572W        W33833   9.812   8.844  14.155 -0.0296 -0.2377 -0.1821
17573W        W33834  11.707   2.000   5.201  0.0581 -0.4921  0.1153
17574W        W33835  17.371  12.128   2.445  0.1043  0.3748  0.0580
17575W        W33836   3.518   1.312   1.402  0.2070 -0.2557 -0.0503
17576W        W33837   8.163   1.030  15.158  0.2246  0.3113 -0.1296
17577W        W33838   7.826  17.248  11.923 -0.2805 -0.0719 -0.0181
17578W        W33839   1.538  12.978   0.088  0.0639  0.1436  0.1726
17579W        W33840  10.812   9.120   1.988 -0.1260  0.1773  0.2102
17580W        W33841   9.771   4.523   3.248 -0.1179 -0.1146 -0.0980
17581W        W33842  13.029   3.037   3.502 -0.2888  0.1651  0.1721
17582W        W33843  14.359  15.563  11.612  0.1262 -0.1133 -0.0332
17583W        W33844   8.919   7.853   0.406  0.0700  0.0861  0.1486
17584W        W33845  16.361  17.339   3.225 -0.0473 -0.2857  0.2184
17585W        W33846  11.378  13.961  13.345  0.1201  0.0199  0.4727
17586W        W33847   7.205   6.244  16.472 -0.1468 -0.1618 -0.1177
17587W        W33848   4.557  12.553   4.747 -0.0169 -0.1075  0.1106
17588W        W33849   9.392  11.902   4.873 -0.0638  0.0986 -0.4068
17589W        W33850   8.649  13.145   0.320 -0.1353 -0.1580 -0.0690
17590W        W33851   2.239   2.079   0.504  0.2928  0.0328 -0.0517
17591W        W33852   2.135  16.304  15.979 -0.0347 -0.0351 -0.2190
17592W        W33853   3.631   3.308  14.734  0.1270  0.2192  0.1221
17593W        W33854  11.578  15.137   2.369  0.1327  0.3960  0.0161
17594W        W33855   6.459   8.665  16.228  0.2530 -0.2538 -0.1039
17595W        W33856  17.259  14.411  14.588  0.4239 -0.2117  0.0930
17596W        W33857   6.843  17.337  13.421  0.1473 -0.0619  0.5025
17597W        W33858   6.849   1.605   6.221 -0.0102  0.1472  0.0071
17598W        W33859   1.381  14.221  13.446 -0.3305 -0.0080  0.1303
17599W        W33860  16.004   0.245   0.956  0.1112 -0.1042  0.0090
17600W        W33861  14.716   8.139   0.977 -0.1785 -0.3294 -0.1256
17601W        W33862  16.686   8.726   0.371 -0.1905 -0.2559  0.1736
17602W        W33863   4.049   0.680   3.401 -0.4093 -0.0313 -0.2368
17603W        W33864  12.361  16.959   0.356 -0.0639 -0.4801 -0.1463
17604W        W33865  12.475   9.030   2.027 -0.2770 -0.2034 -0.0117
17605W        W33866  18.073   6.017   1.347  0.1858  0.3593  0.1567
17606W        W33867   0.733  12.107   0.116  0.0296 -0.3859 -0.1924
17607W        W33868  17.667   6.564   6.249 -0.0464  0.0317 -0.0285
17608W        W33869  16.863   0.901   3.024  0.1802  0.1587  0.3686
17609W        W33870  17.742  17.157  11.895 -0.0386  0.0991  0.1712
17610W        W33871  15.344   6.877   4.485  0.4414 -0.0331  0.2186
17611W        W33872   3.199   4.327   0.678  0.0535  0.1676 -0.0344
17612W        W33873  12.018   5.211   2.291 -0.3379 -0.1920  0.1379
17613W        W33874  15.908  17.537   0.878  0.1501  0.1300  0.0391
17614W        W33875  17.817   8.134   4.107  0.2953 -0.0406 -0.2413
17615W        W33876   0.627   0.484   1.982 -0.0242  0.0907  0.1747
17616W        W33877   4.107  15.723  12.610 -0.4060 -0.0187  0.4168
17617W        W33878  13.111   0.032   2.748 -0.2386 -0.2253  0.0806
17618W        W33879  10.048  12.792   2.388  0.2322 -0.3079 -0.0890
17619W        W33880  13.812  15.256  16.223 -0.0082 -0.2529 -0.0721
17620W        W33881   7.278  13.981   4.612  0.2427  0.0887  0.1194
17621W        W33882   3.097   2.890  10.939 -0.0740 -0.1694 -0.1921
17622W        W33883  15.245  10.757  15.024 -0.0224  0.0057 -0.0319
17623W        W33884  17.708   7.284   0.760 -0.2498  0.3097  0.1318
17624W        W33885  16.552   9.273   2.816 -0.2026  0.0076  0.0898
17625W        W33886  11.128  14.321   2.660 -0.0576 -0.0676 -0.0012
17626W        W33887   4.101   8.243   2.145  0.2714  0.3185 -0.1980
17627W        W33888   1.548   4.278  12.422  0.4329 -0.3799  0.0038
17628W        W33889   0.865   0.547  16.464 -0.0705  0.0229 -0.1293
17629W        W33890   5.294  14.826  14.725 -0.0500 -0.1434 -0.1169
17630W        W33891   8.452  12.795  12.202 -0.3586 -0.0198 -0.0751
17631W        W33892   9.361  17.890   1.861  0.0007 -0.0864  0.2844
17632W        W33893   4.335   6.438  12.902 -0.0622 -0.2927  0.0676
17633W        W33894  16.104   4.254   4.062 -0.1402 -0.0268 -0.4362
17634W        W33895  11.464   6.082  11.171  0.1603 -0.4101  0.2092
17635W        W33896   1.954   6.413   0.699  0.3608 -0.2693 -0.1759
17636W        W33897   0.297  11.319  15.826  0.4288  0.0365 -0.1605
17637W        W33898   5.221  16.615  15.001  0.1016  0.0461 -0.0238
17638W        W33899  14.788   7.316   3.518  0.1501 -0.0590 -0.2137
17639W        W33900   3.170  13.937  15.673 -0.0494  0.2842  0.1005
17640W        W33901   3.368  13.158   1.900 -0.3933  0.2300  0.0250
17641W        W33902  13.646   3.527   1.825  0.0903  0.0340 -0.1736
17642W        W33903  17.712  16.074   3.183 -0.2208  0.0983 -0.1981
17643W        W33904   2.444   8.599   0.255  0.1305 -0.0228  0.0886
17644W        W33905   1.969  10.553   2.122 -0.2424  0.1929  0.0439
17645W        W33906   2.969  15.856  12.557 -0.0024  0.4322 -0.2801
17646W        W33907  15.768   0.277  14.374  0.2066 -0.1500  0.4164
17647W        W33908  17.236   9.093  11.736 -0.1573  0.1443 -0.1315
17648W        W33909  10.197   4.591   0.336 -0.2551 -0.0212  0.0164
17649W        W33910  13.246   6.531  15.337  0.3359 -0.1480  0.0327
17650W        W33911   6.651  16.994   0.181 -0.0244  0.1835 -0.1580
17651W        W33912   6.280  12.340  12.533 -0.2301 -0.1616  0.1802
17652W        W33913   5.144   0.721   2.958 -0.2176  0.2333 -0.0050
17653W        W33914   8.252  17.239   5.298  0.0074 -0.0135 -0.0679
17654W        W33915  11.941   8.171  14.260 -0.2984 -0.1672  0.0677
17655W        W33916   2.926   8.832  15.290  0.3543  0.0901 -0.1609
17656W        W33917  10.371  13.977   2.753  0.0984  0.1230 -0.0677
17657W        W33918   7.705   6.116   5.153 -0.0844 -0.0309 -0.0949
17658W        W33919   8.158   5.899   0.099 -0.0398 -0.1258  0.3199
17659W        W33920  17.357  16.223  14.356 -0.2382 -0.0303 -0.1498
17660W        W33921   3.401   1.980  16.376 -0.1015  0.0459 -0.1327
17661W        W33922   5.624   7.431   3.793  0.2466  0.0458  0.0247
17662W        W33923  17.426   3.152  15.124 -0.1174  0.0857  0.0177
17663W        W33924  12.704   5.540   5.048  0.1545  0.0039  0.1770
17664W        W33925   7.330  10.567  16.100 -0.1209  0.0924 -0.0427
17665W        W33926  15.083  10.344   1.885 -0.0832  0.0049 -0.1245
17666W        W33927  12.070  15.286   5.615 -0.3305  0.1374  0.0190
17667W        W33928   9.900  13.573   0.180 -0.1450  0.3061 -0.6189
17668W        W33929   4.023  12.589  13.001 -0.0258  0.0182  0.3786
17669W        W33930  12.905  13.123  12.458 -0.2317  0.0685  0.1405
17670W        W33931  15.401  13.948  11.950 -0.1188 -0.1080  0.0615
17671W        W33932  15.311  16.538  12.101 -0.1164  0.0715 -0.2801
17672W        W33933   7.398   7.370  14.977  0.1339  0.0219 -0.1826
17673W        W33934   8.630  15.758   1.705  0.1291  0.1221  0.1617
17674W        W33935   6.781   3.355  11.941  0.1571  0.2362 -0.0700
17675W        W33936  12.523   3.385  11.501 -0.0110  0.2591 -0.3370
17676W        W33937  17.106  17.637   1.535 -0.0039 -0.0705 -0.1349
17677W        W33938  10.840   9.154   3.423 -0.3546  0.1525  0.1838
17678W        W33939   1.209  16.090   4.660 -0.3436 -0.1815  0.0465
17679W        W33940   3.129   5.299   0.992  0.2712  0.2771  0.0757
17680W        W33941   0.819   6.170   1.451  0.1233 -0.2949 -0.2514
17681W        W33942   5.601   2.543   5.817  0.0783  0.3400 -0.0429
17682W        W33943   6.347   8.667   2.133 -0.3274  0.1128  0.0387
17683W        W33944   3.529   8.845  14.624 -0.1994 -0.0560  0.0907
17684W        W33945  15.203   2.827   3.344  0.0765 -0.3787  0.1596
17685W        W33946   7.416   9.452   3.608 -0.0643 -0.1762  0.2023
17686W        W33947   0.304  10.864  11.799 -0.1120  0.0827  0.1588
17687W        W33948  11.976  17.927   3.563  0.1142  0.1907 -0.3145
17688W        W33949  13.211   3.011   0.011 -0.1465  0.2590 -0.1097
17689W        W33950  14.294   9.699   1.240  0.0190  0.5238 -0.0316
17690W        W33951   5.885  17.597   1.816 -0.1822  0.0515 -0.0557
17691W        W33952   8.724   8.647   2.977 -0.1774 -0.0787 -0.1975
17692W        W33953   4.049   4.273  15.332 -0.0480  0.0728 -0.0285
17693W        W33954   8.741   7.934   4.619  0.0205 -0.2040  0.0772
17694W        W33955  15.967   3.176  14.260  0.0530  0.1358  0.0238
17695W        W33956  14.716   0.117  13.572 -0.1596 -0.0692  0.0415
17696W        W33957   1.317   7.291  12.738  0.1835  0.2023  0.0089
17697W        W33958  17.926  14.899   3.977 -0.2559  0.0193 -0.0869
17698W        W33959  17.917   3.201   5.263  0.2337  0.1062  0.1780
17699W        W33960   6.119   9.418  16.644  0.1791 -0.0945 -0.0994
17700W        W33961  17.934   0.656   2.015  0.1913 -0.4076  0.0261
17701W        W33962   5.845   8.643  11.142 -0.0284  0.0602 -0.1136
17702W        W33963   7.302  17.010   2.937 -0.1409  0.1109  0.1218
17703W        W33964  12.266  14.994   4.681  0.0628 -0.0576 -0.1021
17704W        W33965   6.128  17.220   4.507 -0.0388 -0.2097  0.1785
17705W        W33966  15.874   0.622   4.228 -0.1075  0.0974 -0.3321
17706W        W33967   8.360   2.900   3.646 -0.0067  0.0962  0.0800
17707W        W33968  14.091  12.947   2.707  0.0482 -0.2867  0.0591
17708W        W33969  11.074   9.190  14.689 -0.0896  0.1849  0.0911
17709W        W33970  17.213   6.957   1.794  0.0943  0.0081  0.0459
17710W        W33971  14.664   8.756   3.107 -0.5201 -0.2227 -0.1065
17711W        W33972   2.952  15.431   5.755  0.0521  0.1950  0.0428
17712W        W33973  15.681   6.362   2.367  0.1692 -0.0363 -0.3337
17713W        W33974  13.700   7.844  13.765 -0.0210  0.2897  0.1291
17714W        W33975  15.982  18.180  15.072  0.1640 -0.0191  0.0671
17715W        W33976   0.231   6.757  11.893 -0.0545 -0.0394 -0.4573
17716W        W33977   1.056  16.741   1.922  0.0062 -0.1034 -0.1553
17717W        W33978   5.917   4.990   3.035 -0.4685 -0.0189 -0.0856
17718W        W33979   1.591  11.128  16.516 -0.0581  0.0241  0.0158
17719W        W33980  12.295  14.836   5.807  0.0056 -0.0779  0.1468
17720W        W33981   3.252  15.031  11.862 -0.2612  0.1026 -0.3978
17721W        W33982   5.169   3.962   0.660 -0.0765 -0.1487 -0.1602
17722W        W33983  11.108  15.473   4.751 -0.1344  0.1009 -0.0680
17723W        W33984   5.832   7.747  12.483  0.1908 -0.0395  0.0350
17724W        W33985   2.150   0.340   4.059  0.1180  0.2291 -0.1332
17725W        W33986  14.177  11.576   3.642 -0.3993 -0.0622  0.2508
17726W        W33987   7.522  10.872   1.281  0.0217  0.2334 -0.1220
17727W        W33988  16.682  17.752   2.937  0.2365  0.0434  0.2232
17728W        W33989  12.006  17.830  11.095 -0.2286 -0.0127 -0.1632
17729W        W33990   5.598  14.425  13.284  0.0981  0.4007  0.1314
17730W        W33991   7.864   3.274   3.898 -0.0243  0.1996  0.0778
17731W        W33992   1.570  17.755  16.065 -0.1962 -0.0452 -0.0905
17732W        W33993   0.291  11.147   2.707  0.2601 -0.3282 -0.0724
17733W        W33994  12.887  17.483  12.477 -0.2619 -0.0354  0.1959
17734W        W33995   9.982   6.456   3.572 -0.2819  0.0137 -0.0330
17735W        W33996   8.364   4.552   2.799 -0.1267 -0.2926  0.0828
17736W        W33997  14.560  12.005  14.639 -0.2521  0.1217 -0.0227
17737W        W33998   0.719  10.031  12.321  0.1850 -0.3599  0.1714
17738W        W33999  10.532  13.278  15.980 -0.4123 -0.1115  0.1508
17739W        W34000   5.571   9.698  14.599 -0.0592  0.0305 -0.1629
17740W        W34001   7.839  10.678   3.018 -0.1279 -0.1814 -0.0723
17741W        W34002   9.001   5.570   3.027 -0.2622 -0.0031 -0.0753
17742W        W34003   7.521   6.408   0.395  0.1838  0.1542 -0.1419
17743W        W34004   9.896   2.536  14.329  0.1964 -0.2952 -0.5337
17744W        W34005   0.431  14.278   3.495  0.4050  0.3250  0.0949
17745W        W34006   4.423  15.001   3.188 -0.0090 -0.0030 -0.1332
17746W        W34007  10.942  14.145  14.317  0.3286 -0.0316 -0.1164
17747W        W34008   7.645  16.120   4.080  0.2988 -0.1739 -0.1362
17748W        W34009   0.235  11.230  16.549 -0.2144  0.2715 -0.1071
17749W        W34010  14.236  12.465   3.804  0.2388 -0.0375  0.0394
17750W        W34011  15.525   9.951   0.923  0.1432  0.1121 -0.2032
17751W        W34012   5.407  14.060  15.699  0.1178 -0.0425  0.0982
17752W        W34013   1.514   7.838   1.850 -0.2117 -0.0994 -0.2999
17753W        W34014  10.343   9.242  12.030 -0.0741 -0.1731  0.0483
17754W        W34015   9.538   7.446  11.756  0.3541 -0.2800  0.3287
17755W        W34016  12.172   3.726   2.855  0.0498 -0.3478 -0.2563
17756W        W34017   9.189  16.802  16.193 -0.1754 -0.0376  0.1162
17757W        W34018  16.470  13.488   1.127 -0.2152 -0.1645  0.2174
17758W        W34019  14.798  13.188   0.474 -0.0061  0.2496 -0.2503
17759W        W34020  17.170  12.488   2.974 -0.1401  0.0943  0.0556
17760W        W34021   3.208   4.375   3.440  0.0306 -0.0816 -0.0049
17761W        W34022   8.774   8.401   2.489  0.1901  0.1652  0.2032
17762W        W34023   2.157  17.006   3.320  0.1039  0.0144  0.0768
17763W        W34024   5.530   5.266  11.488 -0.3225  0.0709 -0.0640
17764W        W34025   5.963  13.564   0.123 -0.1092 -0.0043  0.2977
17765W        W34026   2.405   0.767  14.134 -0.1166 -0.1652  0.2109
17766W        W34027  15.388  12.015   1.966 -0.0416  0.1103  0.1003
17767W        W34028   1.207   8.529  12.346 -0.0132 -0.2886  0.2252
17768W        W34029  16.148  11.031  10.855 -0.3457 -0.1230 -0.0990
17769W        W34030  12.497   1.062  14.524  0.0166  0.0803 -0.0448
17770W        W34031  15.193   8.504   2.217  0.2146  0.2674  0.0654
17771W        W34032  14.612   2.319  14.062  0.2977 -0.1522 -0.1092
17772W        W34033   3.061   3.792  16.050  0.1012 -0.1948 -0.2884
17773W        W34034  12.423  15.897  11.827 -0.3571  0.0145 -0.0165
17774W        W34035  17.878  10.875   0.764  0.1394  0.0355  0.2796
17775W        W34036   9.690   4.414   0.070  0.0867  0.1818  0.1648
17776W        W34037  13.869   3.862   4.970 -0.1676  0.3793 -0.2038
17777W        W34038  12.723   0.447   4.522 -0.1362 -0.2162 -0.3373
17778W        W34039   6.405  17.739   1.529 -0.2859  0.1512  0.2301
17779W        W34040  13.299   9.232  15.995 -0.3042  0.2548 -0.0320
17780W        W34041  10.215  11.356  12.634 -0.1426  0.1472 -0.0994
17781W        W34042   0.304   5.939   5.003  0.5213  0.0286 -0.0306
17782W        W34043   2.589   2.645  12.700  0.0042 -0.1924  0.0371
17783W        W34044  18.016   0.369  12.215 -0.1389 -0.0520  0.1507
17784W        W34045   8.300   2.076  12.789 -0.2638  0.0483  0.2676
17785W        W34046  17.533  10.898   1.435 -0.1651  0.1368 -0.1116
17786W        W34047   4.555   5.660   6.302  0.1478 -0.1357  0.2245
17787W        W34048   9.155  14.610  13.191 -0.0468 -0.2044 -0.0230
17788W        W34049  13.866  15.760  14.027  0.1520 -0.2221  0.1022
17789W        W34050   1.245   0.529  15.676  0.1461 -0.2527 -0.0119
17790W        W34051   2.799  15.380   3.248 -0.1043  0.3688 -0.4198
17791W        W34052  18.172  12.959  15.796  0.1107  0.1098 -0.0187
17792W        W34053   8.199   6.520  16.508 -0.0250 -0.0897 -0.2451
17793W        W34054  11.659   1.610   4.579  0.1054 -0.1411  0.3039
17794W        W34055   4.670   8.427  12.425  0.2408 -0.2710  0.1556
17795W        W34056   1.637   7.368  16.424  0.2248  0.0378 -0.0914
17796W        W34057   5.445   1.834  14.707  0.0150  0.0447  0.4899
17797W        W34058  15.452  17.194   4.455 -0.1461 -0.2533  0.2824
17798W        W34059  17.724  15.834  14.356  0.4861 -0.1635  0.1667
17799W        W34060  17.608   7.387  14.487  0.0382  0.1288 -0.2300
17800W        W34061   6.795   0.238  16.141  0.2972 -0.3599  0.2858
17801W        W34062   8.972  12.893   4.098  0.0032  0.1384 -0.2066
17802W        W34063  11.308   0.212  12.181 -0.1651 -0.5070  0.0473
17803W        W34064  12.355   1.550   0.544  0.0960 -0.1456  0.1662
17804W        W34065   3.281  13.964   3.463 -0.0151 -0.1855  0.1504
17805W        W34066   8.558  10.890  16.201  0.5426 -0.0497 -0.1450
17806W        W34067  12.337  11.374  11.799  0.0029  0.2185  0.3730
17807W        W34068   3.327   0.464   1.128  0.1470 -0.1106  0.0313
17808W        W34069  12.214   8.308  13.707 -0.2033  0.2391  0.0336
17809W        W34070  17.373  15.189   3.996 -0.0536  0.1828 -0.0383
17810W        W34071   2.706   1.506   1.741 -0.0226  0.3439  0.0575
17811W        W34072   1.165  14.806   4.301 -0.0884 -0.1065  0.2994
17812W        W34073   9.699   4.009   5.631  0.1140  0.2350 -0.1798
17813W        W34074  15.693  16.368  13.009 -0.0492 -0.1132  0.0295
17814W        W34075  13.236  11.256   1.747 -0.2725  0.0718 -0.3640
17815W        W34076   7.135  12.426  15.209 -0.0249  0.0454 -0.2338
17816W        W34077  14.282   3.001   4.894  0.2032 -0.1665  0.1215
17817W        W34078  10.047  12.987   5.106 -0.3074  0.0247  0.0084
17818W        W34079   1.749  16.702  13.373 -0.1885 -0.0921  0.1933
17819W        W34080   1.597   1.378   4.038 -0.1299 -0.3817  0.1104
17820W        W34081  10.271  11.380   3.269  0.2122 -0.2239  0.2220
17821W        W34082   4.832  13.783  13.339 -0.0299 -0.1445 -0.1070
17822W        W34083   4.181  12.336   0.087  0.0600 -0.3398 -0.1824
17823W        W34084   2.935  15.270  15.101 -0.0057  0.2443 -0.2147
17824W        W34085   8.893   9.273   5.736  0.0014 -0.1035  0.1340
17825W        W34086  10.471  11.494  12.261 -0.0605 -0.2201  0.4386
17826W        W34087  14.970  17.935   1.523 -0.2845  0.0630 -0.0317
17827W        W34088  11.004  11.443   4.891 -0.1244 -0.2069  0.0873
17828W        W34089   9.213   9.137  16.344  0.1340 -0.1841 -0.1590
17829W        W34090   0.679   2.302   3.115 -0.4152 -0.2024 -0.2244
17830W        W34091   0.617  17.066   0.681  0.0146  0.0347 -0.0114
17831W        W34092  13.543   7.593   0.583  0.1408 -0.1670  0.0098
17832W        W34093  11.216   5.618   0.788  0.0418 -0.1402 -0.1418
17833W        W34094   9.089   3.644  15.008 -0.3491  0.1691 -0.3965
17834W        W34095  15.155  16.482  15.222 -0.2000  0.0384 -0.0375
17835W        W34096  10.671  13.303   0.369 -0.0362 -0.2019 -0.1969
17836W        W34097  11.933  16.441   2.895  0.3185  0.0208 -0.1927
17837W        W34098   8.328  16.731   4.406 -0.1172  0.0767  0.0089
17838W        W34099   4.825  10.209  13.340 -0.1578 -0.0862  0.1451
17839W        W34100   7.090   1.512   4.254  0.3539  0.3273  0.0280
17840W        W34101  15.305   8.834   5.148 -0.1039  0.1115 -0.3648
17841W        W34102   4.094  10.490   1.300  0.2666 -0.0436 -0.0091
17842W        W34103   8.861   6.184   3.081 -0.0011 -0.2072 -0.2743
17843W        W34104   7.562  13.114   3.690  0.0570  0.4123  0.3986
17844W        W34105   4.114  13.612  15.796 -0.2217  0.0749 -0.1465
17845W        W34106  11.521   7.351   1.752  0.2599 -0.0750 -0.1206
17846W        W34107  18.036   2.761  14.779 -0.0639 -0.0705  0.1536
17847W        W34108  12.578   0.665   2.492  0.4262 -0.2100  0.0252
17848W        W34109   4.460   9.438  12.316 -0.2591 -0.1414 -0.0205
17849W        W34110   7.683   2.504   3.228 -0.0483 -0.2138  0.2430
17850W        W34111  12.991  17.776  12.050  0.1691 -0.1371 -0.2577
17851W        W34112   1.342   0.627   6.217 -0.0561 -0.0619 -0.2425
17852W        W34113   5.616  11.900   4.350  0.0652 -0.0005 -0.0602
17853W        W34114   5.896  14.060  15.870  0.2066  0.1530  0.3010
17854W        W34115  15.062  11.969   3.953 -0.4150  0.0542  0.0256
17855W        W34116   9.254  13.298   2.243 -0.1733  0.0330 -0.1987
17856W        W34117  15.413   9.620   1.805  0.0311 -0.2529 -0.2193
17857W        W34118  14.290   9.204  16.542 -0.0707  0.0984 -0.0986
17858W        W34119   0.015   3.622   5.591 -0.2688  0.1879 -0.0441
17859W        W34120  13.979  14.950   3.325  0.3246  0.1602 -0.0228
17860W        W34121  14.343   1.102  15.011  0.3667  0.0406 -0.1411
17861W        W34122  17.206  14.571  16.117  0.3065 -0.1431  0.1126
17862W        W34123   7.928  13.563   1.728 -0.1034  0.1289  0.0705
17863W        W34124   4.600   9.871  12.613  0.3697 -0.0566  0.2999
17864W        W34125  11.727   3.297  16.641  0.1003 -0.0041  0.3330
17865W        W34126  16.836  15.410  12.086  0.0448  0.1565  0.1231
17866W        W34127   0.715   1.469   6.340 -0.2930 -0.3356 -0.2858
17867W        W34128  11.560   7.685  14.675  0.1181  0.2294  0.1274
17868W        W34129  10.340   1.884  11.375 -0.0870  0.0102 -0.2550
17869W        W34130   1.697   1.743   2.737 -0.1130 -0.0574  0.0702
17870W        W34131  14.038   1.545  11.690 -0.1826 -0.2143  0.2157
17871W        W34132   4.314   4.666   2.158 -0.2745  0.2085 -0.1094
17872W        W34133  17.683  17.447   4.272  0.1138 -0.0482  0.5652
17873W        W34134  12.612  11.985  15.720  0.1488 -0.1345 -0.1397
17874W        W34135   8.363  11.740  13.988  0.0518 -0.0910  0.0009
17875W        W34136  11.676  11.763  15.841 -0.1812 -0.2612 -0.0470
17876W        W34137   3.541   2.264  13.881  0.3107 -0.0343 -0.1212
17877W        W34138   1.537   5.464   5.390  0.1663 -0.1046  0.1599
17878W        W34139   2.794   9.705  11.743 -0.6257 -0.1395 -0.0956
17879W        W34140  13.796  15.901  15.282  0.0211  0.0558 -0.0922
17880W        W34141   3.613  17.827   5.123  0.4273 -0.1159 -0.0903
17881W        W34142  11.657  17.262  11.839 -0.0022 -0.1998 -0.1901
17882W        W34143  11.337  10.011  13.282 -0.0199  0.0184  0.1287
17883W        W34144   2.479   4.384   1.293 -0.0681  0.1795  0.1596
17884W        W34145  10.883  15.250  16.485 -0.0711  0.2510  0.0830
17885W        W34146  17.307   4.155   4.445  0.0810  0.0837  0.2259
17886W        W34147   4.802  17.497  15.437  0.0393  0.2257 -0.1221
17887W        W34148  14.295  12.824  12.786  0.3098 -0.0703 -0.1834
17888W        W34149   5.786  17.271  14.741 -0.4984  0.0371  0.0840
17889W        W34150   1.492  11.767   1.774 -0.0116  0.3450  0.0409
17890W        W34151   6.772   0.318   0.607  0.1477  0.0918 -0.2703
17891W        W34152   7.292   9.663   1.637  0.0759  0.1411 -0.2780
17892W        W34153   9.651   9.468   0.867 -0.0806 -0.0203  0.0252
17893W        W34154   4.365  13.168  10.358  0.0649 -0.4167 -0.1406
17894W        W34155  10.469   3.180  11.076  0.2428 -0.0784  0.0244
17895W        W34156  11.098  10.827   4.923  0.1644  0.1890 -0.0309
17896W        W34157   9.184  13.388  11.820  0.1708  0.0594  0.0986
17897W        W34158   1.491  11.311   0.856 -0.2276 -0.0049 -0.0242
17898W        W34159  11.760   1.002  15.749  0.4079  0.1380  0.1655
17899W        W34160   0.694   1.688  15.809  0.0730  0.1560 -0.0856
17900W        W34161   3.238   2.902  16.033 -0.1121  0.3130  0.0037
17901W        W34162   9.988   0.510  11.421  0.3446 -0.4405 -0.1279
17902W        W34163   7.258   9.079   3.933 -0.0285 -0.1954 -0.0652
17903W        W34164  11.807   3.251  12.475  0.0015 -0.0754  0.2366
17904W        W34165   6.149  17.509  14.181 -0.1025  0.1651 -0.3052
17905W        W34166  18.047   2.314   1.096 -0.1157 -0.0969 -0.0417
17906W        W34167  16.967   0.135  13.947  0.0575 -0.2232 -0.3128
17907W        W34168   7.375  17.090  14.937 -0.0706 -0.2183  0.1762
17908W        W34169  12.941  15.311  12.480  0.1030 -0.1034 -0.0161
17909W        W34170   6.837   7.202  12.372 -0.1624  0.0767  0.1683
17910W        W34171  14.061   2.446  11.160 -0.0330  0.0265  0.1156
17911W        W34172  17.435   9.202  13.011  0.1875  0.2420 -0.0895
17912W        W34173  12.686   5.210  14.028  0.1996 -0.2430 -0.2163
17913W        W34174  16.987  17.202   2.348 -0.0512  0.0960  0.0959
17914W        W34175   2.469   8.250   0.648 -0.2713 -0.2543 -0.1013
17915W        W34176   7.502   9.505  15.352  0.2648 -0.0905  0.1762
17916W        W34177   5.098   1.044  16.411 -0.2515  0.1034  0.0291
17917W        W34178   8.896   6.712   3.733  0.1752  0.1091 -0.4401
17918W        W34179  11.223   3.225  12.477 -0.3410  0.0141  0.2994
17919W        W34180  15.287  13.197  14.690 -0.1880  0.2144  0.0200
17920W        W34181   4.053   2.769   2.261 -0.2051  0.0311  0.2251
17921W        W34182  16.820  15.111   1.894 -0.3404 -0.0868 -0.2054
17922W        W34183  13.623  16.063  13.059 -0.0523 -0.1074 -0.2404
17923W        W34184  17.628  14.614  12.715  0.1730 -0.0211 -0.0043
17924W        W34185   2.757  13.736   1.490 -0.1132  0.2591 -0.0944
17925W        W34186   6.594   9.681  15.231  0.1242 -0.0363  0.1194
17926W        W34187  17.891  13.297  15.602 -0.0501 -0.0997  0.3854
17927W        W34188  10.350   9.777  14.994  0.0236  0.0387 -0.0105
17928W        W34189   7.218   9.650  13.892 -0.2571 -0.0844  0.0115
17929W        W34190   9.763  13.341   4.668 -0.0876 -0.0011 -0.2286
17930W        W34191  12.982   1.695   3.906  0.0999  0.1735  0.0258
17931W        W34192  15.171   0.573  13.292  0.1290 -0.3816  0.2547
17932W        W34193   0.675   4.943  15.022 -0.1191 -0.1484 -0.0170
17933W        W34194   7.750   5.120  12.414  0.2368  0.3126 -0.2058
17934W        W34195  17.466   0.911  12.811  0.0604  0.1971  0.1741
17935W        W34196  15.034   6.423  12.452 -0.1263  0.3127 -0.0771
17936W        W34197   3.468  18.032   3.375 -0.1227 -0.1358  0.2537
17937W        W34198  13.122  14.302   4.797 -0.1559 -0.0336  0.3345
17938W        W34199   8.537   6.973   0.653 -0.1993 -0.1647  0.1566
17939W        W34200  15.031  16.456   2.141  0.1653 -0.1441  0.0415
17940W        W34201  11.665  11.021  11.387 -0.1786 -0.0956 -0.2591
17941W        W34202  11.052  15.615   1.510 -0.0796  0.0900 -0.1721
17942W        W34203  16.777   2.931  13.625 -0.1816  0.0537 -0.2822
17943W        W34204  11.608   9.233  15.007 -0.2924 -0.0375  0.0744
17944W        W34205   4.703  14.504  15.674  0.2057  0.1427 -0.0250
17945W        W34206   6.101   3.221   5.198 -0.1350 -0.1871  0.1407
17946W        W34207  13.458   3.294  14.695 -0.0275  0.2494  0.0120
17947W        W34208  16.065   9.378   0.270  0.0284 -0.2328  0.0086
17948W        W34209   7.555  16.259  11.802  0.0436  0.1555  0.0431
17949W        W34210   5.304   7.547  12.211  0.0718 -0.1283  0.2589
17950W        W34211   4.212   8.866   0.704  0.0484  0.0016  0.0563
17951W        W34212   5.347  13.850   1.952 -0.0020 -0.0018 -0.4822
17952W        W34213  16.110   7.336   3.979 -0.0322  0.0691  0.2131
17953W        W34214  17.195   5.659  11.919 -0.2191 -0.1734 -0.0599
17954W        W34215   7.126   0.231  12.498 -0.1772 -0.4003 -0.1041
17955W        W34216  12.690  13.299   4.461  0.1257  0.3361 -0.1890
17956W        W34217  12.386  12.476  12.031 -0.2591  0.1522 -0.4595
17957W        W34218   4.525   7.265  14.716  0.0731 -0.1133 -0.0455
17958W        W34219  14.177   7.176  11.555 -0.0024 -0.1327  0.2672
17959W        W34220   2.458   2.984  13.821  0.1140  0.0599 -0.1910
17960W        W34221  14.035  12.178  14.629  0.3620 -0.1318 -0.0024
17961W        W34222  11.949  10.135  15.992  0.0690  0.0628 -0.2079
17962W        W34223  17.187  17.406   2.938  0.1659 -0.2967 -0.2000
17963W        W34224   6.104   7.089  11.632  0.0086 -0.2737 -0.1077
17964W        W34225   0.755   6.669  11.876  0.2413  0.1107  0.2176
17965W        W34226   3.424   9.192  14.141  0.1985 -0.3483 -0.3597
17966W        W34227  11.111   1.418   1.197 -0.0917 -0.2118 -0.0252
17967W        W34228  10.942   1.222  13.872 -0.0043  0.0764 -0.0529
17968W        W34229   0.497  11.699   5.130 -0.0691  0.0110  0.2814
17969W        W34230  16.800  11.879   3.521 -0.4942  0.2199 -0.2614
17970W        W34231  12.822   2.239   2.974 -0.0407 -0.0281 -0.1646
17971W        W34232  11.151  12.874   0.772 -0.1362  0.1801  0.2407
17972W        W34233  15.160   8.965  11.333 -0.2282 -0.1453 -0.0794
17973W        W34234  14.758  10.420  11.505 -0.0348  0.1086  0.4795
17974W        W34235  13.613  16.712   3.737  0.1111  0.3556 -0.0681
17975W        W34236   6.670   3.828   5.646 -0.2418 -0.1453 -0.2340
17976W        W34237   2.457   7.530   2.900  0.0292 -0.2189 -0.2368
17977W        W34238   4.225   6.678  13.380 -0.1266 -0.0043  0.0524
17978W        W34239   9.583  10.864   5.344  0.0824  0.0848 -0.0647
17979W        W34240   4.568  16.294  14.212 -0.3407  0.0002 -0.1350
17980W        W34241   9.497   1.061  15.434 -0.1185  0.3887 -0.1076
17981W        W34242   3.286   0.431   4.723 -0.2684 -0.2628 -0.0885
17982W        W34243   2.509  12.177  13.175 -0.3463  0.2781 -0.1004
17983W        W34244  11.931   9.079  14.177  0.1203 -0.0265 -0.2194
17984W        W34245  15.994   3.442   0.368 -0.2586 -0.1827 -0.0712
17985W        W34246  10.570   2.171  11.037  0.4813 -0.2843  0.1777
17986W        W34247   1.193  12.784   1.369  0.2318  0.1260 -0.0601
17987W        W34248   7.814   4.601   4.192 -0.0756  0.0294 -0.2294
17988W        W34249   4.460   2.220  14.890  0.0919  0.3146 -0.0035
17989W        W34250   0.558   6.815  13.828  0.0079 -0.1330  0.0571
17990W        W34251  13.829   7.577   4.997  0.2072  0.1119 -0.4533
17991W        W34252   3.649   9.957   2.088 -0.3311 -0.1001  0.1532
17992W        W34253   5.965  12.719  12.084  0.3775  0.0768 -0.0583
17993W        W34254  13.169   9.702   3.678  0.1115  0.0382 -0.0663
17994W        W34255  16.025   6.067   1.026  0.1742 -0.1839  0.0034
17995W        W34256  17.251   7.697   1.187  0.0466  0.0991 -0.1301
17996W        W34257  16.707  16.233   2.844  0.0143 -0.0747  0.0193
17997W        W34258  16.871  14.369   1.777 -0.2583 -0.1395 -0.2137
17998W        W34259   9.018  11.526   3.405 -0.2222 -0.0227  0.1946
17999W        W34260   3.659   0.619  14.172 -0.2273  0.4134 -0.3360
18000W        W34261   7.902   0.459  13.711 -0.0979  0.0310 -0.0092
18001W        W34262  11.939  14.975   0.512 -0.2149 -0.1236 -0.1635
18002W        W34263   4.979   4.568   0.600 -0.0045  0.0877  0.0768
18003W        W34264  11.008  17.685  13.407 -0.0565 -0.2382  0.0528
18004W        W34265  16.049   7.584   2.516 -0.0665 -0.1733 -0.0685
18005W        W34266  16.643   2.481   2.096 -0.0420 -0.0577 -0.3335
18006W        W34267  16.678   9.948   0.712 -0.0469 -0.1319 -0.2673
18007W        W34268  14.272  10.895   2.985 -0.2197  0.0871  0.0228
18008W        W34269   9.708   7.670  13.660  0.1125 -0.1480  0.0955
18009W        W34270   8.639  18.058  16.605 -0.0560 -0.1421  0.2087
18010W        W34271  10.790   5.406   4.191  0.1415  0.2971  0.3203
18011W        W34272   3.374   2.369  14.855  0.0515  0.2109  0.2340
18012W        W34273  17.614   9.340   5.531  0.2270  0.1221  0.1416
18013W        W34274  11.780  14.997  13.495  0.1572 -0.1093  0.0689
18014W        W34275   1.110  11.267   1.776 -0.0307 -0.0898 -0.1626
18015W        W34276  17.568  15.196  10.930  0.0590  0.0116  0.4088
18016W        W34277   6.337  14.462   0.723 -0.0600  0.1846 -0.1032
18017W        W34278  17.238   1.749   2.638 -0.1439  0.0904 -0.1701
18018W        W34279   3.829  16.978   5.167 -0.1086 -0.0303  0.1321
18019W        W34280   2.479   2.808   4.211 -0.3256  0.2377  0.2280
18020W        W34281   2.755   6.374   1.746  0.3047  0.1674  0.1530
18021W        W34282   4.480  13.296   2.017  0.3053  0.2432  0.0374
18022W        W34283  17.681   5.589   4.384  0.2829  0.1835 -0.0334
18023W        W34284  14.754  12.411  15.780 -0.1333  0.0563 -0.1818
18024W        W34285  10.657  18.104  13.577  0.0766 -0.4545 -0.0248
18025W        W34286   6.691  14.848   5.427  0.1999 -0.2054 -0.1094
18026W        W34287   6.825  16.415  14.242  0.4586  0.3047 -0.3143
18027W        W34288   9.733   0.399   3.236 -0.0985  0.2789 -0.2411
18028W        W34289  13.370   9.444   4.537  0.0279  0.0494 -0.4678
18029W        W34290  18.075   7.289  14.238  0.0648  0.1297  0.0313
18030W        W34291   4.317  10.117   0.016  0.0361 -0.1291 -0.0318
18031W        W34292  16.718   8.930   4.792 -0.0931  0.0594  0.0757
18032W        W34293   3.749  10.906   4.125  0.0148 -0.2610  0.0756
18033W        W34294   3.587  12.399   5.088 -0.1816 -0.0327  0.1426
18034W        W34295  15.208  16.278   3.299 -0.0501  0.0440 -0.2710
18035W        W34296   8.968  16.545  14.966 -0.1204  0.0354  0.0317
18036W        W34297  12.413   4.538   2.899 -0.0100 -0.1362  0.2055
18037W        W34298   9.060  14.911   4.539 -0.1115  0.1179 -0.2030
18038W        W34299   8.385  14.863   5.651  0.2576  0.0869 -0.1611
18039W        W34300   1.371   5.143   2.049  0.3503  0.4123 -0.1049
18040W        W34301  12.437   7.370   1.531 -0.2445 -0.0219 -0.0696
18041W        W34302   4.242   4.295   0.116  0.0436 -0.2483  0.1784
18042W        W34303   8.343   0.158  13.063  0.0006  0.1165  0.1790
18043W        W34304  14.291  18.073  16.260 -0.1310 -0.0365 -0.3669
18044W        W34305   8.682   1.386  13.859  0.0808 -0.1286  0.2282
18045W        W34306   4.394  11.985   5.536  0.1433 -0.0514  0.0476
18046W        W34307   2.426   9.131   4.080 -0.2050  0.1667 -0.2796
18047W        W34308  17.394   3.442  13.226  0.1264  0.1539  0.0155
18048W        W34309  10.128  14.779   4.306  0.1656  0.0845 -0.2971
18049W        W34310  17.590  12.392  16.378 -0.2056 -0.2568 -0.0343
18050W        W34311  17.483  13.213  12.379 -0.3734  0.0302 -0.1372
18051W        W34312  12.667   4.203   3.752 -0.1149  0.0661  0.1137
18052W        W34313   8.181  10.027   0.032  0.0658 -0.1174  0.0447
18053W        W34314  15.196   9.547   4.359  0.1560 -0.4426 -0.0676
18054W        W34315   2.664   5.908   5.178 -0.3178 -0.0461  0.0469
18055W        W34316  11.256   3.759   2.381  0.0907  0.0174 -0.0881
18056W        W34317  10.833   6.908   5.681 -0.0266 -0.0693  0.1966
18057W        W34318  16.456   3.971   2.475 -0.0689 -0.0542  0.0086
18058W        W34319   1.769   9.123  12.962 -0.0075  0.4365 -0.1200
18059W        W34320   9.205  11.840  12.469  0.4400 -0.2495 -0.1448
18060W        W34321  13.518   9.747   3.229 -0.0120  0.1347  0.0788
18061W        W34322  14.901  17.270  13.055  0.2974  0.0657  0.3478
18062W        W34323   1.797  12.504   0.155  0.0408  0.0414 -0.0651
18063W        W34324  11.834   1.523   4.134 -0.0731  0.1579 -0.3762
18064W        W34325   9.502  10.336  15.281  0.2690 -0.5022 -0.2492
18065W        W34326   4.521  14.880   5.028  0.0587  0.1112 -0.0225
18066W        W34327   9.793  13.591  12.137  0.0710  0.2138  0.2653
18067W        W34328  11.348  10.007  11.900 -0.0605 -0.0549 -0.0913
18068W        W34329   0.203  10.771   0.469  0.3139  0.2087 -0.0818
18069W        W34330   0.665   4.123  15.318 -0.1802 -0.4329  0.1411
18070W        W34331   6.445  12.236   1.955 -0.2328 -0.0717 -0.0066
18071W        W34332  15.864  10.082  15.655 -0.3714  0.0157 -0.0966
18072W        W34333   7.106   4.398  16.584 -0.0994  0.3205 -0.1985
18073W        W34334   5.565  10.827   1.328 -0.3186 -0.0783  0.1886
18074W        W34335   0.542   7.120  12.045  0.1170  0.1277 -0.4458
18075W        W34336   3.741   7.677   1.321  0.0238 -0.1516 -0.1896
18076W        W34337  14.457   4.910  16.434 -0.0207 -0.0115  0.0298
18077W        W34338  12.546  12.945   0.918  0.0313 -0.0433  0.2787
18078W        W34339  13.378  17.293   3.892  0.1805 -0.1224 -0.0364
18079W        W34340  12.689   6.029   4.990  0.2867 -0.0289 -0.2904
18080W        W34341   9.824   4.535  16.242 -0.0071 -0.3719 -0.2375
18081W        W34342   5.320   8.339   5.151  0.0870  0.1631  0.0111
18082W        W34343  11.410   5.566  13.010  0.2167  0.4108  0.1815
18083W        W34344   4.870  11.739   3.217 -0.4581 -0.0266 -0.0940
18084W        W34345   2.383  15.350   2.010  0.1932  0.0253  0.0130
18085W        W34346  17.932   8.214  15.384  0.3626 -0.0712  0.0613
18086W        W34347   1.119   7.599  13.155  0.1278 -0.1249  0.0039
18087W        W34348  16.932   2.159   5.340  0.0786 -0.3799 -0.1297
18088W        W34349   1.254   2.767   2.840  0.1194 -0.0201  0.0797
18089W        W34350   1.231   9.341  11.984  0.1312  0.0652  0.3209
18090W        W34351   7.816  13.589  12.974 -0.0181  0.0020 -0.0484
18091W        W34352   1.844   3.798   0.253 -0.0861 -0.2139  0.1300
18092W        W34353  15.405  17.896   1.766  0.0298 -0.1607  0.0853
18093W        W34354   8.656  14.232  11.957  0.0013  0.3525 -0.1058
18094W        W34355   0.887  15.176  11.810  0.0668 -0.1169  0.0662
18095W        W34356  12.004  10.108   0.344  0.0062  0.0107  0.0592
18096W        W34357   5.535   9.686  12.647 -0.2796  0.0713  0.2194
18097W        W34358   7.625   2.615  12.893 -0.0854  0.1526 -0.1056
18098W        W34359  15.859   4.921   1.478  0.2248 -0.0718 -0.1967
18099W        W34360  14.542   1.408  11.075 -0.1370  0.0903 -0.0745
18100W        W34361  15.915  13.862  16.422 -0.2453  0.1867 -0.0821
18101W        W34362   4.422   1.300  13.704  0.3460  0.0062  0.0970
18102W        W34363  16.191   4.434  13.599  0.1512  0.1149 -0.1732
18103W        W34364   8.739   0.302   5.764 -0.1191 -0.1916 -0.0592
18104W        W34365   6.526  16.188   3.866 -0.1842  0.1730 -0.2911
18105W        W34366   8.345   1.121   5.258  0.1739 -0.0852  0.1084
18106W        W34367   8.488  16.348  14.845  0.1532 -0.2697 -0.2769
18107W        W34368  15.686  14.563  14.727  0.3014  0.2573  0.0617
18108W        W34369   5.058   7.592   4.831  0.1467  0.2530  0.0525
18109W        W34370   2.323   6.379   2.093  0.2463  0.2539 -0.0347
18110W        W34371  15.455  15.302  15.644  0.2021 -0.2911  0.0346
18111W        W34372  13.470   8.739   3.043 -0.0275 -0.2275  0.2377
18112W        W34373   6.371   0.287   0.288 -0.3243 -0.0060  0.1609
18113W        W34374   9.308   6.556   2.118 -0.0337 -0.0974  0.0366
18114W        W34375   9.410   5.752  16.132  0.1927  0.4731 -0.1400
18115W        W34376   4.092  15.361   1.461 -0.1487  0.1576 -0.3065
18116W        W34377  18.177   7.070  13.266 -0.3857 -0.2578 -0.4157
18117W        W34378   1.465  17.494  12.633  0.3435 -0.0925  0.1790
18118W        W34379  15.678  17.056   2.088  0.0277  0.2264  0.2167
18119W        W34380  10.167  15.425   4.049  0.0703  0.1554  0.2108
18120W        W34381   5.564   5.375  13.309  0.2388 -0.5606  0.2625
18121W        W34382  16.944  11.414  12.310 -0.2330 -0.3637  0.2275
18122W        W34383  15.499   2.027  16.566  0.0174 -0.1259  0.0254
18123W        W34384  11.941   1.416  12.256  0.0358  0.1548  0.5076
18124W        W34385   6.521   8.272  13.971  0.2152  0.0445  0.4206
18125W        W34386  12.107   7.251   3.691  0.0219  0.2852  0.0594
18126W        W34387   3.270   6.778   3.005 -0.0756 -0.1566 -0.1337
18127W        W34388   1.667  13.574  14.548 -0.0908 -0.3005 -0.1755
18128W        W34389  11.715   4.819   3.708  0.0978  0.3761  0.3714
18129W        W34390  10.555  12.073   4.117 -0.2665 -0.0286  0.0710
18130W        W34391  11.760   7.603  13.474 -0.2140 -0.0647  0.2700
18131W        W34392   7.022  14.949  14.286  0.2777 -0.1797  0.0124
18132W        W34393  17.182   2.304   1.364  0.1089 -0.0285  0.2955
18133W        W34394  15.204  17.362  16.499 -0.1696 -0.3357  0.2266
18134W        W34395   6.191  13.238   4.488 -0.3975  0.1782  0.1698
18135W        W34396  15.297  15.479  14.869  0.4685 -0.1355  0.0586
18136W        W34397  17.034  10.638  15.445 -0.1877  0.2297 -0.0413
18137W        W34398   5.432  13.482   3.686 -0.0111 -0.2764 -0.0990
18138W        W34399   5.719  15.085   0.394  0.2912 -0.3765  0.2366
18139W        W34400   1.133   1.986   5.443 -0.2081 -0.0395  0.0150
18140W        W34401   8.329   2.947   1.827  0.1133  0.0052 -0.2454
18141W        W34402  16.628   0.169  14.869 -0.0050 -0.1369  0.0750
18142W        W34403   7.013   1.428  15.348  0.0604 -0.1088  0.1073
18143W        W34404   2.474  13.482  12.705  0.0749 -0.1246 -0.2934
18144W        W34405  16.595  14.107  16.442  0.1676 -0.1137 -0.1053
18145W        W34406  11.059  17.703   2.432 -0.0075  0.0628 -0.0365
18146W        W34407   5.527   4.831  11.736  0.2662  0.0176  0.0658
18147W        W34408  14.430  16.012   3.736 -0.0503 -0.0982 -0.0011
18148W        W34409  13.512   7.161  14.327  0.2366  0.2378 -0.0973
18149W        W34410  17.793  12.968  12.737 -0.1263 -0.0555 -0.1219
18150W        W34411   2.080   3.437  11.629  0.1108  0.4520 -0.0593
18151W        W34412  14.502  15.522   3.543  0.2902 -0.1259  0.0759
18152W        W34413  14.665   8.195   3.397 -0.0367 -0.0037 -0.0452
18153W        W34414   9.134   3.898   4.182  0.2742  0.3112 -0.1512
18154W        W34415   9.453  14.310  16.590 -0.0099  0.2133  0.1535
18155W        W34416   5.835   9.350   2.243  0.2588  0.1665 -0.1668
18156W        W34417  13.280  16.577  13.395 -0.1427 -0.1656 -0.3789
18157W        W34418   6.723   1.991  14.067 -0.0689  0.1981  0.1927
18158W        W34419  17.856   4.624   2.407 -0.1145  0.1099  0.0540
18159W        W34420   4.672   0.413   0.699 -0.2090  0.0380 -0.4562
18160W        W34421   2.367   9.833   1.098 -0.0897  0.3714  0.2223
18161W        W34422  10.099  12.349  13.809  0.0232 -0.0261  0.1616
18162W        W34423   2.161   2.556   3.488  0.1353 -0.1081  0.2778
18163W        W34424  14.483  11.982   3.644 -0.1360 -0.0727  0.0658
18164W        W34425   2.967  13.701  15.109 -0.0299 -0.0028  0.0321
18165W        W34426   4.258  13.663   0.668  0.2628 -0.0432 -0.1203
18166W        W34427  10.101  15.838   5.468  0.0405 -0.2663  0.1903
18167W        W34428  11.704   6.494   2.845 -0.1889 -0.0296 -0.3678
18168W        W34429   2.697   6.513  14.488  0.2299 -0.1312  0.2116
18169W        W34430  13.284   4.065   2.885  0.0532  0.2928  0.1851
18170W        W34431  12.091  11.272   5.079  0.0240 -0.1075  0.0957
18171W        W34432   9.581   3.073   4.865  0.0430  0.0228  0.0358
18172W        W34433   5.534   0.017   4.378  0.0202  0.1380 -0.1294
18173W        W34434   0.860   0.063  13.324 -0.0253 -0.3091 -0.1184
18174W        W34435  14.679   4.896  14.930  0.1179  0.0548 -0.1185
18175W        W34436  15.084   9.559   0.245  0.0259  0.0930  0.1524
18176W        W34437   3.085   3.688   0.639 -0.3130  0.0618  0.3402
18177W        W34438   4.809  17.584  14.314 -0.1482  0.0632 -0.3380
18178W        W34439   7.776  10.500   3.483 -0.0445 -0.3266  0.2220
18179W        W34440   8.681   9.797   0.091  0.2047  0.0403 -0.2127
18180W        W34441   8.760   2.162   1.519 -0.1863 -0.0341  0.2875
18181W        W34442   7.724  13.375   5.659 -0.0602 -0.0851  0.1291
18182W        W34443   9.519  17.238  12.089  0.0051  0.1814  0.1172
18183W        W34444  14.222   2.054   4.564  0.3249 -0.4325 -0.0001
18184W        W34445  17.410   2.232  13.810 -0.1980 -0.0090 -0.3591
18185W        W34446   8.049   2.382   3.596 -0.0845 -0.3307 -0.0515
18186W        W34447   4.630   8.121   4.652  0.1711  0.3396 -0.2011
18187W        W34448  12.403   1.946   3.037 -0.1508  0.4258  0.2364
18188W        W34449   8.875  10.542  16.467 -0.0606 -0.1687  0.1714
18189W        W34450  12.691   6.641  15.183  0.1503  0.0782  0.0756
18190W        W34451   1.775   1.166   0.314  0.0618  0.2168  0.2248
18191W        W34452  13.280   6.999  11.934  0.2176  0.0912  0.0698
18192W        W34453  15.919   8.068   1.812 -0.0896 -0.0023 -0.0664
18193W        W34454  17.449  17.413   3.370 -0.2294 -0.0031  0.1581
18194W        W34455   3.165  16.767   1.278  0.0332  0.2591  0.2090
18195W        W34456   6.969  10.834   2.442  0.0048 -0.1225  0.1403
18196W        W34457   0.927  10.014  16.190 -0.3213 -0.0014  0.1073
18197W        W34458   3.681   9.850  15.648  0.2101 -0.0103  0.0048
18198W        W34459  13.646  17.389   4.520  0.1587 -0.2590 -0.1475
18199W        W34460   1.460   0.494   2.114  0.0355  0.1100 -0.1663
18200W        W34461   9.021   1.104  16.323 -0.0429 -0.1374  0.0548
18201W        W34462   2.735  16.362   6.037  0.0873 -0.3914 -0.0694
18202W        W34463   5.568   4.306  16.644 -0.2733 -0.2086  0.0200
18203W        W34464  11.520   6.425  15.961 -0.0283 -0.0338  0.1001
18204W        W34465   8.884   4.028  14.263 -0.1345  0.1027  0.1849
18205W        W34466  10.391   9.176   2.501  0.0261  0.2222  0.0803
18206W        W34467   6.200  11.133   4.067  0.0216 -0.0127  0.0163
18207W        W34468  11.201  13.811  15.453  0.1885  0.1080  0.0375
18208W        W34469  15.647   6.992   5.320 -0.0506 -0.2855  0.1805
18209W        W34470   4.893  14.297   4.439  0.1226 -0.0259 -0.1761
18210W        W34471   4.410  13.231  14.216  0.5621 -0.0903 -0.0595
18211W        W34472  13.273   8.902   2.564  0.2099 -0.5029  0.2405
18212W        W34473   2.523   3.933   5.218 -0.0588  0.0584  0.1399
18213W        W34474   6.167   6.021  15.226 -0.0201  0.1550 -0.0889
18214W        W34475  13.788  13.916   0.432  0.2259 -0.4257  0.2325
18215W        W34476  17.824   9.796   5.323  0.1461 -0.0943  0.3842
18216W        W34477  15.559  11.879   1.488  0.1274 -0.4425  0.0476
18217W        W34478   6.782  11.073   0.405 -0.1763 -0.0278  0.0346
18218W        W34479   5.689   5.455   4.302  0.2335  0.0838  0.1363
18219W        W34480   2.219   0.789  14.675 -0.1336 -0.0295 -0.0914
18220W        W34481   1.955  11.028   4.562 -0.4907 -0.1406 -0.1931
18221W        W34482   4.901   5.315   2.452  0.2039  0.1925  0.2412
18222W        W34483  17.822  16.803  13.408 -0.1527 -0.1082 -0.1897
18223W        W34484   2.993   5.615   1.311 -0.2764 -0.1440 -0.0158
18224W        W34485  15.545   8.508  16.272 -0.1156  0.0842  0.0056
18225W        W34486  16.100  16.996   4.348 -0.2754 -0.0176 -0.3683
18226W        W34487  16.804  12.164  14.546  0.1065  0.2353  0.0596
18227W        W34488  15.034   9.560   3.033  0.1616  0.3325  0.2429
18228W        W34489   9.309  12.635   0.744 -0.1127 -0.1484 -0.0872
18229W        W34490  14.086   8.474   3.971  0.2755 -0.2702  0.3313
18230W        W34491   5.955  14.380  12.363 -0.5145  0.0484  0.0714
18231W        W34492   4.177   6.921   4.238  0.2087  0.0694 -0.3786
18232W        W34493  16.045   0.686   0.221  0.1304 -0.1197 -0.0878
18233W        W34494  11.597   2.935   2.392  0.3952  0.1757  0.2791
18234W        W34495   8.386   1.455  13.374  0.0488  0.0871 -0.0105
18235W        W34496   9.018  15.055  15.072  0.1975 -0.1670 -0.1694
18236W        W34497  16.634  10.288   0.159  0.0368  0.4018  0.0671
18237W        W34498   0.410  16.869   0.160  0.0755 -0.0766 -0.1852
18238W        W34499   2.547   7.435  13.972 -0.2319 -0.1792  0.1251
18239W        W34500   0.580  17.127  13.750 -0.1246 -0.0066  0.0707
18240W        W34501   9.574   5.728   2.247 -0.0259 -0.1123 -0.0704
18241W        W34502   3.466  16.244  12.932 -0.0630 -0.0803 -0.0098
18242W        W34503  13.226   6.356  12.724 -0.0018  0.1196 -0.2955
18243W        W34504  12.194  15.003  12.862 -0.1297  0.1503 -0.0630
18244W        W34505   6.697  17.566  16.588  0.0322  0.0438 -0.0902
18245W        W34506  12.992  11.620   4.862 -0.2474 -0.1408  0.0695
18246W        W34507  16.563  16.860  11.930  0.2575 -0.1597 -0.0618
18247W        W34508   2.328   5.309   0.012  0.2643  0.1962  0.0277
18248W        W34509  17.657  10.642  14.235  0.1970  0.0873 -0.3375
18249W        W34510  16.099   7.356  12.084 -0.0688  0.2289  0.0272
18250W        W34511   8.501   0.062   3.337 -0.0624 -0.2096 -0.1075
18251W        W34512   1.076   4.880  12.901  0.3877 -0.2920 -0.0380
18252W        W34513   2.617  11.189   4.771  0.4325  0.1686 -0.0154
18253W        W34514   0.312  11.789  13.503  0.0926  0.0699  0.2044
18254W        W34515   1.582   1.667  16.173 -0.0132 -0.2817  0.1722
18255W        W34516  11.861   0.485   3.921 -0.0566 -0.1826 -0.0805
18256W        W34517   5.041  12.451  14.269  0.1192  0.0696  0.1854
18257W        W34518  11.446   0.312  14.925 -0.1515 -0.1055  0.0903
18258W        W34519   4.623   4.328  13.312 -0.0584  0.0157 -0.0389
18259W        W34520  10.074   8.401   1.771  0.0072  0.1382  0.1294
18260W        W34521   1.313   4.089  13.416 -0.1902  0.2116  0.2260
18261W        W34522  11.527  10.631   1.203 -0.0075 -0.0889 -0.0797
18262W        W34523   3.327   1.887   5.383 -0.0960 -0.0474 -0.0687
18263W        W34524  14.542   9.025  13.822  0.2122 -0.0900 -0.0872
18264W        W34525   8.285   6.810  16.122 -0.3150 -0.0329 -0.0401
18265W        W34526   6.285   0.938  12.953 -0.1832  0.0746 -0.0775
18266W        W34527   5.142   8.672  12.535 -0.2375 -0.2187 -0.0013
18267W        W34528  12.387   9.610  15.201 -0.0923  0.1788 -0.0839
18268W        W34529  12.213  11.037  15.657 -0.0600  0.1088 -0.3433
18269W        W34530  10.727   5.274   2.081  0.0597 -0.0074 -0.4020
18270W        W34531   0.854  15.856  14.588  0.1505 -0.2063 -0.0300
18271W        W34532  15.486  11.556   0.282  0.1547 -0.1054 -0.1145
18272W        W34533  12.675  10.472  16.500 -0.0726 -0.1520  0.1352
18273W        W34534  12.129  15.783  12.204  0.1920  0.0532  0.1169
18274W        W34535  12.426   0.914   4.505  0.0678  0.1176 -0.0447
18275W        W34536   1.426  15.024  11.889  0.1298 -0.1425 -0.1101
18276W        W34537  15.091   1.749  12.774  0.0553 -0.2001  0.3421
18277W        W34538  16.538   9.698  15.343  0.3673 -0.3031 -0.0382
18278W        W34539  17.747   3.290   4.823 -0.3429  0.3561 -0.0098
18279W        W34540   4.959  14.899   5.176  0.0234  0.1156 -0.2862
18280W        W34541  18.055   1.139   3.213  0.0678  0.0946  0.0658
18281W        W34542   9.308   5.924   5.288 -0.3089  0.2233 -0.0861
18282W        W34543   2.505  11.293  16.162 -0.2072 -0.0933 -0.0070
18283W        W34544   9.535  16.354   0.668 -0.0927 -0.3716 -0.1093
18284W        W34545  16.772   0.073  11.819  0.1716 -0.5803 -0.2478
18285W        W34546  14.324  16.994   5.776 -0.0501 -0.0449 -0.1342
18286W        W34547   5.581  11.263   0.579  0.2228  0.0066 -0.3752
18287W        W34548  11.576   9.383   5.426 -0.1482 -0.4618 -0.1793
18288W        W34549  15.775  14.290  12.031  0.2436 -0.1983  0.2309
18289W        W34550   3.717   2.773  12.638  0.1558 -0.1981  0.2644
18290W        W34551  10.199  17.818   3.590  0.0481  0.2929 -0.2514
18291W        W34552   4.327   0.371   5.689 -0.0516 -0.3023 -0.1637
18292W        W34553   6.033   2.180  15.502  0.1734 -0.1612 -0.3019
18293W        W34554   1.083  16.381   0.224 -0.1733  0.0753  0.0210
18294W        W34555   4.869  11.658  12.815  0.0182  0.0490  0.0658
18295W        W34556   3.087   8.095  15.074 -0.0778  0.0731  0.0642
18296W        W34557   8.605  16.838  14.767 -0.1793  0.3086  0.1317
18297W        W34558  15.259   0.506   1.978 -0.1426 -0.1533 -0.1043
18298W        W34559  11.176  16.711   3.521  0.0220  0.2326  0.0091
18299W        W34560  11.475   3.161   4.518 -0.0139  0.0653  0.3251
18300W        W34561   7.999   4.576   3.721  0.0577  0.2340  0.1951
18301W        W34562   8.579   0.886  11.559  0.0781  0.0989 -0.2345
18302W        W34563   5.208  15.123   6.166  0.2222  0.2073  0.0319
18303W        W34564  11.206   5.098   4.374  0.0697  0.3362  0.0399
18304W        W34565  11.257  12.516   3.572 -0.0082  0.0237 -0.2227
18305W        W34566   2.613  10.047  12.437  0.3331  0.2103 -0.1621
18306W        W34567  15.465  16.559   2.361 -0.0793 -0.0031  0.1781
18307W        W34568  11.872  15.274  14.361 -0.0017  0.0768  0.0570
18308W        W34569  14.896   1.264  16.470 -0.3266 -0.1861 -0.1575
18309W        W34570  16.274   0.633  13.373 -0.0606 -0.1782  0.2433
18310W        W34571   1.348   0.930  14.741  0.0339  0.0393 -0.2618
18311W        W34572  13.719   3.389   4.109 -0.0940 -0.0021  0.2298
18312W        W34573  13.853  10.786  10.731  0.3057 -0.2132 -0.0034
18313W        W34574   3.976   6.088  16.013 -0.0822 -0.0970  0.1530
18314W        W34575   0.194   2.922  11.892 -0.2806 -0.0108 -0.2054
18315W        W34576  17.104  10.706   0.780 -0.1432  0.2250 -0.1173
18316W        W34577   4.542   5.115   1.352 -0.0433  0.2018  0.2787
18317W        W34578   9.134  11.261  11.607 -0.3817  0.2308  0.0094
18318W        W34579   1.370   4.141   5.533 -0.1195  0.0297 -0.1088
18319W        W34580  10.880   0.328   1.297 -0.1438 -0.1018  0.0192
18320W        W34581  14.912  13.885  13.987 -0.3042 -0.1198  0.1440
18321W        W34582  12.943  10.065  16.344 -0.4112 -0.1848 -0.0836
18322W        W34583   4.639  16.565   2.618  0.2000  0.3370  0.2477
18323W        W34584   5.445   6.946   5.418  0.1431 -0.1847 -0.0696
18324W        W34585  16.465  11.474   3.758  0.0763 -0.0812  0.0872
18325W        W34586   6.610  10.023   2.812 -0.0716  0.3612  0.1810
18326W        W34587   8.201  17.912   2.992  0.1252  0.1535 -0.0214
18327W        W34588   8.123   7.965  12.773  0.3717 -0.0947 -0.1967
18328W        W34589   6.551  10.403  13.355 -0.0363  0.3947  0.2710
18329W        W34590   1.952  14.498  15.204  0.2068 -0.1670 -0.4230
18330W        W34591   8.301  16.342   1.007 -0.1784 -0.3599 -0.3421
18331W        W34592  11.614   7.171   1.073 -0.0745  0.0889 -0.1142
18332W        W34593   1.540   4.348   3.025 -0.1130  0.2697  0.2697
18333W        W34594  11.766  17.572   0.884  0.0858 -0.1790 -0.0334
18334W        W34595  16.878  13.210   1.097 -0.0809  0.1847  0.1418
18335W        W34596  17.010   8.401  14.208 -0.1367  0.0527  0.0672
18336W        W34597  13.213   8.489   3.993  0.3063  0.2523  0.3082
18337W        W34598   6.143   0.532  12.365  0.0174  0.2516 -0.1769
18338W        W34599   5.193  13.064  12.970 -0.0555 -0.0505  0.0401
18339W        W34600  13.272  10.153   3.071 -0.2994 -0.1918 -0.1329
18340W        W34601   8.013   0.375   2.405  0.2740 -0.0366 -0.3541
18341W        W34602   6.384   2.031  11.472  0.1404 -0.0243  0.1506
18342W        W34603   3.913   0.929   5.539 -0.2639 -0.0338 -0.4057
18343W        W34604   5.709  12.220   3.956  0.2167  0.1429 -0.0230
18344W        W34605   2.902   3.545   3.594  0.0979 -0.1010 -0.0368
18345W        W34606  12.446   8.915  16.147  0.1301  0.1535 -0.1686
18346W        W34607  13.587   8.784  13.777  0.2374  0.1110 -0.1010
18347W        W34608  18.046  17.661  16.553 -0.1781 -0.0536  0.1484
18348W        W34609   8.271   3.568  16.429 -0.0845 -0.1839 -0.0874
18349W        W34610  11.820   9.116  15.586 -0.2336 -0.1386  0.1591
18350W        W34611  12.654   2.699   3.663 -0.0019 -0.4039  0.2373
18351W        W34612  15.976   2.679  14.000 -0.0570  0.2623 -0.3225
18352W        W34613   3.482   1.811   0.221  0.1622 -0.0832 -0.1064
18353W        W34614  14.811  17.942   5.005 -0.3759  0.0908  0.0616
18354W        W34615   4.071   4.778   5.438  0.2580  0.0692 -0.0498
18355W        W34616   1.312   2.580  11.929  0.2180  0.2819  0.0010
18356W        W34617  16.267  13.945   5.510  0.0461 -0.0095  0.1698
18357W        W34618  16.368  11.383   2.882  0.0736  0.0163 -0.0773
18358W        W34619  12.744  12.623   3.840  0.2344  0.1613  0.2500
18359W        W34620  16.760  15.300   3.877  0.0266  0.1904  0.1596
18360W        W34621  12.143   7.602  12.923  0.0906 -0.0078 -0.1093
18361W        W34622  16.180   6.049  11.482 -0.0502  0.2412  0.0888
18362W        W34623  15.270   5.884   5.482 -0.3611 -0.1782 -0.0008
18363W        W34624   3.007   6.117  15.545  0.0721  0.1019 -0.4736
18364W        W34625  11.082  17.039   1.384  0.2016  0.1229 -0.0464
18365W        W34626  11.553  15.082  15.913  0.1970  0.1253  0.0418
18366W        W34627  12.458   7.178  15.064  0.2515  0.1558 -0.0597
18367W        W34628   5.251  16.426   3.819 -0.0984 -0.0511 -0.1614
18368W        W34629  15.529   1.582   6.385 -0.0551  0.0430 -0.2316
18369W        W34630  17.022  17.131   0.581  0.1383  0.3107 -0.1463
18370W        W34631   3.305   4.267  14.086 -0.2879  0.0744  0.0050
18371W        W34632  14.734  17.235  12.492  0.0959  0.1304  0.3081
18372W        W34633   8.780  16.503   5.259  0.0015  0.0821 -0.0169
18373W        W34634   7.958   8.857   0.689  0.1858  0.1777  0.2117
18374W        W34635   3.018  17.232  14.400 -0.2048  0.2866  0.0127
18375W        W34636  16.137  17.709  12.519 -0.0829 -0.3625  0.4462
18376W        W34637  11.075   4.443   3.070  0.6155 -0.0868 -0.0238
18377W        W34638  10.652  13.330  12.000 -0.0381 -0.0102 -0.0662
18378W        W34639  14.102  16.980  15.572 -0.1362 -0.0581 -0.0690
18379W        W34640   4.811   5.108   0.172  0.1038 -0.1486  0.1032
18380W        W34641  17.899  13.091   3.808 -0.3273 -0.1403  0.1221
18381W        W34642  12.984  17.643  16.254  0.2926 -0.0576  0.0665
18382W        W34643  13.448   8.629  11.479  0.3814  0.1553  0.0836
18383W        W34644   0.616   9.675   4.431  0.3251  0.1749 -0.0511
18384W        W34645  18.001   0.556  16.011 -0.2746  0.0911 -0.2785
18385W        W34646   4.025   1.640  14.308  0.0628 -0.2526 -0.1845
18386W        W34647   7.248   8.834   4.754 -0.1516 -0.4577  0.2909
18387W        W34648  12.903  15.362  15.120  0.2814  0.0844 -0.2060
18388W        W34649   9.797   2.348   2.688 -0.0940  0.2512  0.1348
18389W        W34650   6.591  15.455  13.713  0.3489 -0.0810  0.1635
18390W        W34651   9.813   2.618  13.432  0.3351  0.1378  0.0578
18391W        W34652  13.079   3.960   3.396 -0.1007 -0.2088  0.4007
18392W        W34653   3.728  10.529   1.807  0.1450  0.1876 -0.0627
18393W        W34654  14.496   2.061   1.060  0.1248  0.4767  0.2061
18394W        W34655   1.687   2.735   1.503 -0.0392 -0.1008  0.2437
18395W        W34656  12.289   6.224   5.450 -0.2888  0.2563 -0.1142
18396W        W34657  11.496   2.466  14.239  0.1302 -0.0628 -0.0016
18397W        W34658   8.393  13.166   0.934 -0.1581  0.2360 -0.1720
18398W        W34659   8.256   4.595  11.577  0.0154  0.2960  0.1178
18399W        W34660   9.300  13.217  14.751 -0.0091  0.1111  0.2016
18400W        W34661   5.756   8.582  13.924  0.0381 -0.0760  0.0121
18401W        W34662  12.453   5.224   5.524 -0.0459 -0.2130 -0.2271
18402W        W34663   5.664  13.974  13.503  0.1732 -0.1597  0.0556
18403W        W34664   3.311   6.136  16.424 -0.0978  0.1465 -0.1400
18404W        W34665   0.528  11.211  13.862 -0.3203  0.1868 -0.0091
18405W        W34666  12.751   5.136  15.208 -0.0175 -0.1910 -0.3193
18406W        W34667   1.703   9.377  13.611 -0.0759 -0.0708 -0.2184
18407W        W34668   1.102  17.271  14.479  0.1596 -0.4446  0.2256
18408W        W34669  16.144   5.608   5.460  0.1294  0.4390 -0.5131
18409W        W34670  16.251  12.503   3.088  0.1914  0.0468 -0.2491
18410W        W34671   0.512   3.137  13.418 -0.1861  0.1817 -0.3001
18411W        W34672  17.718   3.926  12.605  0.2245  0.0315  0.0320
18412W        W34673   4.707   9.755  12.057 -0.1037  0.0786 -0.0132
18413W        W34674  10.191   8.619  14.334 -0.3289 -0.4544  0.2316
18414W        W34675  12.730  10.449  13.119  0.3045 -0.0258 -0.0263
18415W        W34676   6.983  11.167  11.839 -0.1451 -0.0907 -0.3733
18416W        W34677  13.199   6.896  11.429  0.2999 -0.0336 -0.0592
18417W        W34678  17.520   4.913  16.639  0.0272 -0.2229  0.1837
18418W        W34679  11.811  17.999   2.080  0.1541 -0.3386  0.0209
18419W        W34680   2.988   2.464   1.525 -0.0003 -0.1573 -0.2706
18420W        W34681  16.581  15.398  15.671 -0.0782 -0.4027 -0.1180
18421W        W34682  16.642  13.397   5.928 -0.1619  0.0012  0.2242
18422W        W34683  16.423  17.781   3.458 -0.0236  0.0847 -0.0513
18423W        W34684  16.703   5.538  15.380  0.2551  0.0296  0.1427
18424W        W34685  12.709  14.680   4.800 -0.1093  0.2648 -0.0244
18425W        W34686  12.626   0.563  14.589 -0.1173  0.2551 -0.0685
18426W        W34687   6.497  11.827   4.676 -0.1299 -0.3332 -0.1813
18427W        W34688  14.556   7.203   5.028  0.0549 -0.1280  0.3133
18428W        W34689  13.268  11.670   0.343  0.1104  0.1854 -0.2347
18429W        W34690   4.959   5.965   5.559 -0.2634 -0.2734 -0.1628
18430W        W34691   2.962   9.473   6.054  0.1469 -0.0001 -0.1688
18431W        W34692  13.424   9.008   0.335 -0.1524 -0.0264  0.0930
18432W        W34693  11.268   1.891  11.676  0.0748  0.0450  0.0001
18433W        W34694  16.190   1.022  14.559 -0.2846 -0.0272 -0.1890
18434W        W34695  13.948  11.200   0.818 -0.0872 -0.1180 -0.0278
18435W        W34696   8.539  14.194   5.543 -0.0466  0.0277 -0.1095
18436W        W34697  12.340  11.848  13.326 -0.0807  0.2649  0.0795
18437W        W34698  10.434  14.699  10.540 -0.1613  0.1334 -0.2657
18438W        W34699  13.369   7.320  11.069 -0.2696  0.2060  0.1416
18439W        W34700   4.906   5.849   4.849  0.2189  0.1242  0.3242
18440W        W34701  15.116   4.850  16.302  0.1055 -0.0364  0.0626
18441W        W34702  15.217  13.799   2.083  0.1175 -0.1605 -0.2777
18442W        W34703  16.506  11.334   0.342 -0.1919 -0.1779 -0.0958
18443W        W34704   6.714   8.952   3.370 -0.3181  0.0899  0.0656
18444W        W34705   7.724  10.976  16.044  0.0330  0.2269  0.2141
18445W        W34706   5.665  15.201   0.917  0.0685  0.1360  0.4182
18446W        W34707   2.344   5.913  13.521 -0.1926  0.0936  0.0357
18447W        W34708  10.665  16.476   1.847  0.3235  0.0602  0.3759
18448W        W34709  13.916  17.525   3.754 -0.0707  0.0535  0.2008
18449W        W34710  17.764   6.063  15.849  0.0104  0.2190  0.1451
18450W        W34711   1.481  10.959   1.407 -0.0443  0.0740  0.2759
18451W        W34712  18.133   4.826  11.236 -0.1254  0.1159 -0.1182
18452W        W34713   3.665   6.531   0.733  0.0666  0.0444 -0.0508
18453W        W34714   5.033   4.024  13.044  0.0240  0.1271 -0.4585
18454W        W34715  12.821  17.946  13.769 -0.1947 -0.0247  0.2695
18455W        W34716   9.285  12.196   2.675 -0.2059  0.1359 -0.2017
18456W        W34717  10.435  15.109   3.480  0.0579  0.0926 -0.0983
18457W        W34718  10.475   5.660  15.727  0.1066  0.1730  0.0623
18458W        W34719  10.636   2.200  12.728 -0.0436 -0.1076  0.2898
18459W        W34720   0.357  15.603   4.937  0.0215  0.1232 -0.0186
18460W        W34721   4.886   0.195  11.718 -0.0507 -0.3759  0.0724
18461W        W34722  16.045  10.359  12.341 -0.0148 -0.1856 -0.0887
18462W        W34723   5.781  11.829   3.012  0.3485  0.1400 -0.0865
18463W        W34724   7.906  17.995  14.397 -0.2025  0.1013  0.0046
18464W        W34725  13.524  10.699   2.044 -0.2169 -0.1236 -0.0825
18465W        W34726   6.235  17.884  13.764  0.1845  0.0820  0.2795
18466W        W34727   2.194   0.744   0.901 -0.0007  0.2063  0.0329
18467W        W34728  11.410   3.383   5.326  0.3150  0.0799 -0.1300
18468W        W34729  11.406  16.929   0.980  0.0365  0.0973 -0.0035
18469W        W34730   5.465  14.757   0.679  0.3946  0.0857  0.3911
18470W        W34731   4.753  12.643  16.375  0.0850 -0.0659  0.3829
18471W        W34732   6.603  12.249   3.246  0.1684 -0.1734 -0.1006
18472W        W34733  13.360   0.410  12.084 -0.0247 -0.3981 -0.3203
18473W        W34734   6.414  16.636   0.903  0.0425 -0.0551  0.0293
18474W        W34735   8.383  11.865  15.036  0.1522 -0.3538 -0.1788
18475W        W34736  13.965   5.862   5.649  0.1397  0.5531 -0.0202
18476W        W34737   0.366  16.314   4.016 -0.2721 -0.0104  0.3033
18477W        W34738   4.204  14.685   5.365  0.2302 -0.2117  0.1906
18478W        W34739  16.369  14.158   3.239 -0.0095  0.1659  0.0975
18479W        W34740  14.599   6.302   3.645  0.2324 -0.3720 -0.1141
18480W        W34741   3.093  12.578   6.293 -0.3114 -0.0823  0.1473
18481W        W34742   2.500   8.079  12.333 -0.3045 -0.1824 -0.2398
18482W        W34743   5.786   8.251  15.816  0.3215 -0.4850 -0.2412
18483W        W34744  12.108   8.267  15.147  0.0978  0.0598 -0.2858
18484W        W34745   0.387   7.740   2.566 -0.0859 -0.2299  0.2501
18485W        W34746  16.600  15.248   5.191  0.0766  0.0145  0.1507
18486W        W34747  13.920   3.837   0.798  0.0981 -0.2014  0.1872
18487W        W34748   6.538   9.064   4.047 -0.1819  0.1764 -0.0103
18488W        W34749   2.780  13.026  15.332 -0.1457 -0.2582  0.0490
18489W        W34750   4.156  15.881  15.680 -0.2613 -0.0229  0.1492
18490W        W34751   0.711  17.493  14.924 -0.1111  0.0025 -0.1552
18491W        W34752   3.044   9.806  12.288  0.1245  0.3439  0.0731
18492W        W34753   9.637  15.657  15.298  0.1226 -0.2261 -0.0802
18493W        W34754  12.725   1.345  16.318  0.1840 -0.0198  0.0527
18494W        W34755  14.767   4.115   0.756 -0.1787  0.3390 -0.2387
18495W        W34756   3.010   7.650  11.621 -0.2784  0.2307  0.0387
18496W        W34757   2.556  12.752  16.570  0.0871  0.0759  0.2299
18497W        W34758   2.337   7.045   3.181 -0.4179  0.0250 -0.1015
18498W        W34759   8.363   3.720  11.254  0.0258  0.0183 -0.3479
18499W        W34760  13.705   2.031  12.321  0.0900 -0.2577 -0.1816
18500W        W34761  10.294   9.946   1.029  0.1683  0.0217  0.3625
18501W        W34762  10.306   7.446  11.561 -0.2131  0.0690  0.1102
18502W        W34763   6.425   8.064  14.423 -0.4177 -0.2046 -0.1726
18503W        W34764  17.846  10.355   1.707 -0.1018 -0.2050 -0.2053
18504W        W34765   4.199  14.821   6.864  0.2180 -0.0530  0.0511
18505W        W34766  11.462   8.572  13.461  0.0840 -0.0333  0.1570
18506W        W34767  17.143   7.910   1.577  0.2495 -0.1372 -0.2097
18507W        W34768   5.718   0.900   1.127 -0.1735  0.0451 -0.0643
18508W        W34769   3.536  12.586   4.048  0.2525  0.0521 -0.1426
18509W        W34770   7.125   2.870  13.637  0.0116 -0.0936 -0.1783
18510W        W34771   5.232   8.241   0.153  0.0684  0.0119 -0.0680
18511W        W34772   9.845   3.210  12.687  0.3791  0.6172  0.0684
18512W        W34773   3.021   0.419   5.234  0.0559 -0.3420 -0.1149
18513W        W34774  10.787   3.524  11.581 -0.0698 -0.2962  0.1208
18514W        W34775  11.431  14.447  12.267  0.0192  0.1202 -0.0709
18515W        W34776   3.216  15.054   1.387  0.0236  0.2066 -0.1342
18516W        W34777   5.933   5.452  15.758  0.2464 -0.0305 -0.0244
18517W        W34778   9.979   2.940   3.094  0.1428 -0.2020  0.3135
18518W        W34779  14.533   9.108  12.842  0.1624  0.4033  0.1071
18519W        W34780  12.656  10.198   4.837  0.4483  0.0627  0.0736
18520W        W34781   9.821  12.871   4.418 -0.0789  0.3201 -0.2823
18521W        W34782  14.603   1.241   0.510  0.0548  0.2714 -0.1307
18522W        W34783  15.919   9.823   3.232  0.3717  0.1654 -0.2726
18523W        W34784  11.278   8.921   5.445 -0.0172 -0.1336  0.0327
18524W        W34785   0.819   8.222   4.959 -0.3219 -0.2933 -0.1906
18525W        W34786   3.829  15.918   6.064 -0.0386  0.2786 -0.0436
18526W        W34787  11.496  17.649  13.196 -0.0205 -0.1673 -0.1111
18527W        W34788   1.668  10.350   3.921  0.2288  0.0435  0.0775
18528W        W34789   1.613   4.654  11.383  0.2014 -0.4301  0.3321
18529W        W34790   2.197   3.387  12.116  0.0656  0.0097  0.1263
18530W        W34791   0.899  17.381  14.017 -0.1561 -0.0993 -0.1516
18531W        W34792  17.932  12.548   0.090 -0.1474 -0.1510  0.1007
18532W        W34793  15.453  16.730   6.167 -0.1173  0.3356 -0.2356
18533W        W34794   4.674  11.184  14.678  0.1348 -0.0751  0.0834
18534W        W34795  11.689  11.289   4.714  0.0000  0.0308 -0.1394
18535W        W34796   4.755  15.975   6.017  0.1584 -0.1077  0.3387
18536W        W34797  14.972  14.590  13.125 -0.1426 -0.1268 -0.2427
18537W        W34798   5.259  14.009  12.591  0.0557 -0.2899  0.0724
18538W        W34799   8.488   1.168  16.250  0.0766 -0.0749  0.2652
18539W        W34800   9.019  11.893   2.318  0.3458 -0.4744  0.0207
18540W        W34801   3.663   9.386   3.246 -0.1725  0.1974  0.3951
18541W        W34802   8.413  16.186   5.473  0.2966  0.2090  0.0681
18542W        W34803  17.448   0.729  11.834  0.3638  0.0444 -0.1477
18543W        W34804   3.537  14.955  13.329  0.0987 -0.0155  0.0587
18544W        W34805  17.716  12.535  12.449  0.0216 -0.1340  0.0458
18545W        W34806  15.606  14.826  13.813 -0.0267 -0.0679  0.2164
18546W        W34807   2.299   6.732  15.101 -0.1928 -0.3237  0.2913
18547W        W34808  14.927   5.003   1.812 -0.0412  0.2125 -0.1473
18548W        W34809  16.845   2.561   0.492  0.4219  0.0854 -0.2357
18549W        W34810  11.446  12.000   1.097 -0.0671  0.0835  0.0035
18550W        W34811  14.668  13.789   0.325 -0.1117  0.0626 -0.1841
18551W        W34812  15.801   4.600   4.763  0.2135  0.2492  0.3406
18552W        W34813  13.068   4.904   3.988 -0.0743  0.0196 -0.0707
18553W        W34814   2.983  12.558   2.350 -0.0740  0.1352  0.1566
18554W        W34815   7.605   0.471  12.362 -0.2532 -0.2173 -0.0794
18555W        W34816  12.133  10.335  11.808 -0.0250  0.1909 -0.0886
18556W        W34817   7.784  17.625  16.498  0.0744 -0.0738  0.0149
18557W        W34818   0.317  11.831   2.229 -0.0667 -0.2098  0.0022
18558W        W34819  16.447   2.825  14.413 -0.1732 -0.0230  0.0540
18559W        W34820  13.893   5.967   2.192 -0.1831  0.0423 -0.1635
18560W        W34821   6.385   0.878   5.155  0.0563 -0.0229  0.0796
18561W        W34822  16.958   1.939   3.086 -0.1311 -0.1399  0.1687
18562W        W34823  14.875   0.761  13.683 -0.0386  0.1948 -0.1614
18563W        W34824  14.813   6.392   1.135 -0.0157  0.0584  0.0530
18564W        W34825   6.899  15.714   0.149  0.1769  0.0398  0.3132
18565W        W34826  17.776  12.449   3.869 -0.1160 -0.1473 -0.1092
18566W        W34827   2.252  14.500  16.644  0.1967 -0.0719  0.2278
18567W        W34828   5.373  14.379   2.014 -0.2893 -0.0478  0.0875
18568W        W34829   5.855  15.901   3.074 -0.2883 -0.1215  0.0901
18569W        W34830   5.632  10.153  11.772  0.0834  0.0809 -0.0975
18570W        W34831   2.534  17.418   2.334 -0.1614 -0.1576 -0.0899
18571W        W34832  14.384   1.905  15.706  0.0615  0.2176  0.2867
18572W        W34833   6.279  14.722   5.753  0.1221  0.0979 -0.3720
18573W        W34834  15.900   4.807   0.305  0.2039  0.3177 -0.2443
18574W        W34835   6.833   1.507   5.702  0.0668  0.2061  0.1083
18575W        W34836  11.149   9.775   5.670  0.0959  0.2767 -0.1725
18576W        W34837   0.367  13.266  12.408 -0.6918  0.0563 -0.0221
18577W        W34838   2.880   1.047   3.682  0.3800 -0.0423  0.0188
18578W        W34839   1.989  13.609   3.163 -0.1915  0.2274  0.0460
18579W        W34840  15.004   7.133  15.573  0.3742 -0.0048  0.4632
18580W        W34841   2.658   3.100  12.874 -0.0645  0.1259  0.4280
18581W        W34842  15.032  11.433   3.615  0.1427  0.2016  0.1616
18582W        W34843  15.146   1.214   2.992 -0.3418 -0.1457  0.0099
18583W        W34844   4.681  13.303   4.098 -0.1134  0.2244  0.0639
18584W        W34845  11.793   8.429   2.372 -0.3359 -0.1400  0.0991
18585W        W34846   3.077  15.657   3.515 -0.1761  0.0326 -0.1700
18586W        W34847   7.323  11.502   5.340  0.0588 -0.0956  0.0293
18587W        W34848   4.916  10.712  13.354 -0.0082 -0.2344  0.2197
18588W        W34849  11.662   0.093   4.949  0.0648  0.0077 -0.1929
18589W        W34850   8.547   9.160   1.986  0.2243 -0.2252  0.2581
18590W        W34851   2.501  17.860  12.840 -0.0777 -0.3007  0.4072
18591W        W34852  15.656   0.145  10.399 -0.1586  0.0751 -0.0684
18592W        W34853   7.216  15.809   5.280  0.0384 -0.4031 -0.1142
18593W        W34854   9.442  16.919  12.475  0.1148  0.0090 -0.0792
18594W        W34855  14.244  11.607   4.156 -0.1319 -0.0738 -0.0533
18595W        W34856   6.708  15.694   3.597 -0.0348 -0.0804  0.0338
18596W        W34857   3.832   2.789   5.247  0.1018 -0.3174  0.3751
18597W        W34858   1.169   9.901  14.281 -0.0543 -0.2714 -0.0974
18598W        W34859   8.784  11.490   3.823  0.0320 -0.0204  0.1763
18599W        W34860   2.234   2.499  14.500  0.0153 -0.0070 -0.2495
18600W        W34861   6.676   1.471   1.255  0.2246 -0.2008 -0.2709
18601W        W34862   5.016   4.814   5.502  0.0156  0.1233  0.3060
18602W        W34863  13.550  13.564  11.920 -0.1072 -0.1137  0.0025
18603W        W34864  13.552   5.077   4.940  0.1282  0.0013  0.3529
18604W        W34865  15.960  11.567   3.911 -0.0642  0.3172  0.0298
18605W        W34866   1.788   7.873   5.044  0.0097 -0.0060  0.0400
18606W        W34867   9.205  11.178   3.807  0.0571  0.0742 -0.1113
18607W        W34868   6.345  10.982  15.821  0.0482  0.1042  0.1576
18608W        W34869  11.707   0.131  14.498  0.2789 -0.3495 -0.0246
18609W        W34870  14.362  12.561  14.056 -0.1025 -0.0245  0.1541
18610W        W34871  15.982   8.527   3.562 -0.0867 -0.1188 -0.2287
18611W        W34872  14.885   8.196   0.494 -0.1808  0.1431 -0.0669
18612W        W34873  13.392   7.796   2.064  0.1062 -0.1724  0.2197
18613W        W34874   4.133   9.941  12.281 -0.0620 -0.1447 -0.1314
18614W        W34875   6.800   9.804  16.476 -0.3124  0.2033  0.2464
18615W        W34876   4.783   6.791   2.241  0.2012 -0.2338 -0.0715
18616W        W34877  15.793   5.285   3.343  0.0748  0.0220 -0.1628
18617W        W34878   3.797   4.306  11.817 -0.1526  0.1038 -0.2243
18618W        W34879   2.846  15.051  12.145  0.0187  0.0799 -0.1339
18619W        W34880   5.727   3.305  13.445  0.4222 -0.1600 -0.1707
18620W        W34881   5.129   5.893  13.101  0.1313 -0.1021 -0.0345
18621W        W34882  14.468  17.029  12.892 -0.1730 -0.2166 -0.5106
18622W        W34883   0.451  16.229   1.996  0.2873 -0.3206  0.2370
18623W        W34884   1.753   5.440   0.738 -0.0913  0.0430  0.1802
18624W        W34885  17.912   4.639   1.073  0.1701  0.1089 -0.2407
18625W        W34886  17.196  15.489  16.248  0.0721  0.1770  0.2008
18626W        W34887  17.660  10.538   1.065  0.0487 -0.0503  0.0194
18627W        W34888   6.329   8.587  14.351 -0.1319 -0.0646  0.2018
18628W        W34889   7.509  14.869  12.264 -0.4803 -0.0377  0.0850
18629W        W34890   7.145   5.544   2.951  0.2159 -0.4000  0.1413
18630W        W34891  11.256   4.190   0.695 -0.0474  0.0545 -0.1734
18631W        W34892  12.662  14.509  16.048  0.0557  0.2474  0.1317
18632W        W34893  14.609  15.359  12.129 -0.0233  0.0565 -0.4419
18633W        W34894   0.025   3.618  13.170 -0.3251  0.0338  0.0828
18634W        W34895  10.292   3.687  11.765 -0.1124 -0.0057  0.1621
18635W        W34896  10.547  16.968   5.475 -0.1392 -0.1211  0.1069
18636W        W34897  15.266  12.043  11.387 -0.1482  0.1158 -0.2346
18637W        W34898   4.100  17.387   4.519 -0.0642  0.0733 -0.1728
18638W        W34899  14.798   2.680   2.567  0.0754 -0.0388  0.2183
18639W        W34900   6.501  14.975  11.649  0.2324  0.1200  0.2004
18640W        W34901   8.961  15.605   3.781 -0.0985  0.1204  0.3958
18641W        W34902  12.598   1.700  15.357 -0.4166  0.0615 -0.1798
18642W        W34903  18.122   7.308   2.764 -0.0406  0.0525 -0.0439
18643W        W34904   8.824  12.895   2.683 -0.0443  0.1403 -0.0249
18644W        W34905  10.305  14.988   1.323  0.3768 -0.3667  0.0703
18645W        W34906   2.926  18.127   3.110  0.0950  0.0585  0.3763
18646W        W34907  11.902   8.177  12.354  0.0959  0.0342  0.2560
18647W        W34908   1.819   7.426  14.121  0.1456  0.2381 -0.1033
18648W        W34909   9.627  15.346  11.983  0.0112 -0.1385  0.0337
18649W        W34910  13.031  10.438  14.070  0.2153  0.0658 -0.1026
18650W        W34911  17.466  17.660  14.223  0.1116 -0.2414  0.2189
18651W        W34912  11.072   3.263  12.955 -0.4435  0.1498  0.3768
18652W        W34913  13.470   1.494  14.675 -0.2514 -0.2376 -0.1106
18653W        W34914   3.164   6.808  16.293 -0.0109  0.1209 -0.4083
18654W        W34915   0.489   7.282   4.377 -0.1110  0.1113  0.0837
18655W        W34916   3.146   3.824   4.437  0.0633 -0.2475  0.2410
18656W        W34917  13.088   6.498  13.828  0.0471 -0.2092 -0.0307
18657W        W34918   7.441   6.834  14.864 -0.0533 -0.1294 -0.3734
18658W        W34919   8.023  13.472  16.182  0.0273 -0.1214  0.0951
18659W        W34920  11.225   5.033  14.761  0.0097  0.0592  0.2152
18660W        W34921   4.478  10.413  15.839 -0.0434  0.2189 -0.1498
18661W        W34922  17.661   4.383  13.600  0.2321  0.2723 -0.1317
18662W        W34923  11.355   6.924  15.813 -0.0892  0.2641  0.1354
18663W        W34924   3.517  15.938  14.388 -0.1630 -0.4358  0.0444
18664W        W34925   1.616   8.947  13.918  0.4183 -0.2117  0.1703
18665W        W34926   1.810   6.577   4.244 -0.2208  0.3435 -0.1601
18666W        W34927  17.086  17.563  11.476  0.0272 -0.0675  0.2117
18667W        W34928   3.307   7.298  16.416 -0.0401 -0.0013  0.0603
18668W        W34929   7.901  11.104  13.445  0.2293 -0.0774  0.0001
18669W        W34930  13.846  15.694   2.625  0.0019  0.0461  0.1600
18670W        W34931  11.100  13.126   5.059 -0.0235  0.0743  0.0441
18671W        W34932   0.852   6.940  14.923  0.2147 -0.0120 -0.3295
18672W        W34933  11.693   5.166   0.019 -0.1176  0.2068 -0.2090
18673W        W34934  11.664   7.455  12.966 -0.1535 -0.0550 -0.0280
18674W        W34935  13.933  10.840  14.187 -0.1131  0.0199 -0.5037
18675W        W34936  13.322   1.787   1.825  0.2551 -0.0537 -0.2883
18676W        W34937  12.024   9.683  16.153 -0.3995  0.3092  0.0640
18677W        W34938   7.089  12.835   3.614  0.1461 -0.3554  0.0781
18678W        W34939   5.537  14.977  15.614  0.0168  0.2546  0.1741
18679W        W34940  17.930   4.223  10.881  0.0867 -0.1873  0.1506
18680W        W34941  13.907  15.555   4.823 -0.3235 -0.0052 -0.0537
18681W        W34942  11.534  14.609   2.267 -0.0956  0.2596 -0.0876
18682W        W34943  10.908   5.228  12.962  0.0209 -0.4406 -0.0904
18683W        W34944  15.747  16.629  13.815  0.0200 -0.0593 -0.2905
18684W        W34945   3.349   2.893   4.068  0.0856 -0.2614  0.1641
18685W        W34946  13.693   2.465  13.590 -0.2168  0.1349  0.2246
18686W        W34947  16.610   8.412   2.575  0.0726 -0.1031 -0.2680
18687W        W34948  12.604  18.171  14.993 -0.0885  0.1275  0.2657
18688W        W34949  10.218  12.456  12.201  0.1493 -0.0683 -0.0893
18689W        W34950   3.971   3.733  12.941 -0.2470  0.0503  0.0489
18690W        W34951   8.521  15.643   4.029 -0.2322  0.3141  0.0251
18691W        W34952   8.104  16.963  11.695  0.0636 -0.3726  0.0144
18692W        W34953  18.021   3.738  15.016  0.2112  0.0007  0.1326
18693W        W34954   8.478   1.222   4.787  0.0515  0.2034  0.0138
18694W        W34955  14.698  16.028   1.288 -0.1383 -0.4550  0.0114
18695W        W34956  11.323  17.236  11.238  0.1029  0.0323 -0.1584
18696W        W34957   7.121  17.806   2.371  0.0679 -0.1914 -0.2442
18697W        W34958   0.916   4.428   6.457 -0.0428  0.0622  0.0644
18698W        W34959  12.303   1.263   1.018  0.0603 -0.0277 -0.1906
18699W        W34960   1.072  15.046   2.302 -0.3983  0.0880  0.3377
18700W        W34961   3.468   8.678  11.317  0.1064 -0.2761  0.0801
18701W        W34962  13.888   6.092   0.589 -0.1506 -0.1378 -0.1113
18702W        W34963  14.123  17.562   0.407 -0.3368 -0.1650 -0.1841
18703W        W34964   2.632  15.964   1.435 -0.0572 -0.0709 -0.1432
18704W        W34965   8.774   6.220   1.792  0.0498  0.2197 -0.0560
18705W        W34966   5.839  14.922   3.539 -0.1362  0.2581  0.1112
18706W        W34967   1.296   8.999   1.807 -0.0713 -0.1742  0.0610
18707W        W34968  16.248   4.855   2.809  0.1282  0.0033  0.2029
18708W        W34969   0.441   6.417   4.349 -0.0868  0.2191  0.3199
18709W        W34970   6.206  11.073  11.794  0.0202 -0.1631 -0.3346
18710W        W34971   9.184   3.788  15.540 -0.0061 -0.2784 -0.0015
18711W        W34972  10.206   5.825  16.140 -0.0503  0.0255 -0.1384
18712W        W34973   2.327  12.420   0.187  0.2727  0.1718  0.0383
18713W        W34974  11.132   2.341  14.963  0.1163 -0.1606 -0.0372
18714W        W34975   6.048   8.740  13.052 -0.0298 -0.0231  0.2141
18715W        W34976  13.802  13.462  13.399 -0.0777  0.0372  0.0881
18716W        W34977   9.292  17.275  14.840  0.0711  0.1018 -0.0810
18717W        W34978   1.268   1.777  11.948 -0.3557  0.2663 -0.0738
18718W        W34979  18.155   0.641   6.030 -0.0834  0.2065  0.0497
18719W        W34980   7.203   7.559   5.143 -0.0336 -0.1632  0.1250
18720W        W34981  17.145  13.501  16.249  0.0477 -0.2246  0.0287
18721W        W34982  10.151   6.522   5.093  0.1038  0.1259  0.0984
18722W        W34983   8.519  16.292   1.545 -0.3168 -0.1204 -0.0127
18723W        W34984  10.053  14.545  14.303  0.0314 -0.0925  0.1532
18724W        W34985  14.856  16.700   3.165  0.2838  0.1021 -0.0610
18725W        W34986   9.408  16.046   1.556  0.1150  0.2038 -0.1342
18726W        W34987   4.869   1.080   2.660  0.0223  0.2281  0.1444
18727W        W34988   0.069   7.106   1.937 -0.0304 -0.2108  0.0060
18728W        W34989   0.739   5.950   3.054  0.1252 -0.0529 -0.1555
18729W        W34990   5.343  14.560   6.017 -0.0335 -0.0949  0.1277
18730W        W34991   7.389   9.231   4.484  0.1159 -0.2694  0.3120
18731W        W34992  15.911  13.099  15.708 -0.0642  0.1015 -0.0879
18732W        W34993   7.091  17.531  13.009 -0.0532 -0.0609 -0.3379
18733W        W34994  14.616  13.857  14.407  0.1725  0.1385 -0.0592
18734W        W34995   7.182  10.198   1.825 -0.2244 -0.0277 -0.1200
18735W        W34996  10.838   9.395  12.809  0.2294 -0.0876 -0.0640
18736W        W34997  17.042   7.920   0.249  0.1231  0.0696 -0.1572
18737W        W34998  11.261  11.976  11.173  0.0314 -0.1788  0.1427
18738W        W34999   9.412   2.447   0.150 -0.3226  0.0208 -0.0892
18739W        W35000   1.416   2.100  11.601 -0.0231 -0.0650 -0.2237
18740W        W35001   7.455  12.591  13.852 -0.0042  0.1467 -0.1059
18741W        W35002   3.652   3.668   3.522  0.1427  0.0585  0.1118
18742W        W35003   2.692   2.809  14.667  0.1955 -0.0015  0.0482
18743W        W35004   2.172   1.383   1.730  0.2734 -0.1269 -0.1052
18744W        W35005   0.684   1.097   3.829 -0.1154 -0.0232  0.3876
18745W        W35006   7.640   7.661  15.343  0.3360 -0.4415 -0.3660
18746W        W35007   3.948  16.962   1.020  0.0750 -0.0070 -0.0270
18747W        W35008   0.638   8.744   1.061 -0.0027 -0.0594 -0.0152
18748W        W35009   3.597   3.297   1.721  0.2227 -0.1031 -0.1489
18749W        W35010   2.179  12.667   2.840 -0.1353  0.0792 -0.0338
18750W        W35011   9.285  10.051  14.929 -0.0004  0.0769 -0.1717
18751W        W35012  16.409   9.704   2.053 -0.0669  0.0205  0.0292
18752W        W35013   4.974  11.198   3.036  0.0018  0.0250  0.0960
18753W        W35014   0.872   7.597   0.931 -0.2084 -0.0098  0.1168
18754W        W35015   1.046   8.346  11.840 -0.1447  0.1541  0.1978
18755W        W35016   9.714  15.410  13.923  0.1902 -0.1009  0.0842
18756W        W35017   6.080  12.981  14.005  0.3320 -0.1626  0.0313
18757W        W35018   4.243   1.170   3.386 -0.0359  0.0594  0.0056
18758W        W35019   5.461  10.861  13.353  0.0519 -0.1954  0.1206
18759W        W35020   0.943   8.639   1.936 -0.1124 -0.0710  0.1441
18760W        W35021  13.037  10.436   1.262 -0.1238  0.2649 -0.0858
18761W        W35022   2.518  16.159   3.042  0.0639 -0.0359  0.1668
18762W        W35023   2.256  16.462   4.727 -0.1513 -0.2215  0.2732
18763W        W35024   6.389   7.765   1.010  0.0662  0.1835 -0.2594
18764W        W35025  10.837   7.408  13.979  0.0564 -0.0016  0.2493
18765W        W35026  13.583  10.450   4.802  0.3268 -0.0382 -0.0478
18766W        W35027  17.128   6.273  16.510  0.2305  0.0710 -0.0917
18767W        W35028   4.159   6.470   5.124  0.0468  0.2607 -0.0461
18768W        W35029   2.657  18.060  11.750  0.0178  0.1544  0.1469
18769W        W35030  17.419  18.027  16.101  0.0556  0.2348  0.1890
18770W        W35031  11.308  15.189   3.020  0.0782  0.0653 -0.1439
18771W        W35032  16.911  16.796  13.953 -0.0572  0.2028  0.1858
18772W        W35033   2.097  14.762  12.335 -0.1014  0.1885 -0.0698
18773W        W35034   0.892  14.197  15.813  0.1862  0.0707  0.0438
18774W        W35035  10.013   7.827  14.063 -0.3774  0.0495  0.0129
18775W        W35036  14.189  11.720   0.123  0.0195  0.2624 -0.3569
18776W        W35037  10.978  13.671   4.375  0.1294 -0.0513  0.2874
18777W        W35038  10.774  14.410   3.089  0.1208 -0.2317 -0.0535
18778W        W35039   8.631   5.294  12.274 -0.0238  0.1178  0.0361
18779W        W35040   0.381  17.578   5.593 -0.3036 -0.1778  0.1339
18780W        W35041  15.770   7.153  11.764 -0.0910  0.1315  0.0218
18781W        W35042   9.635   0.243   1.570 -0.2533 -0.4104 -0.2145
18782W        W35043   9.398   6.218  12.026  0.0206 -0.0952  0.0916
18783W        W35044  10.454   5.048   5.581 -0.2595 -0.4729  0.2832
18784W        W35045   3.060   3.720   2.788 -0.2124 -0.3622  0.2022
18785W        W35046   0.319  15.449   4.402 -0.5384  0.2660  0.2131
18786W        W35047   8.543  10.731   4.924  0.0525 -0.0564 -0.2296
18787W        W35048  10.731   3.309   3.773  0.1846 -0.0445 -0.1812
18788W        W35049   4.150   4.060  12.090  0.1020 -0.0705 -0.1395
18789W        W35050   3.323   3.910   1.102  0.1502 -0.0040  0.0978
18790W        W35051   2.486   5.756  15.845  0.0182  0.2730  0.2272
18791W        W35052  17.530   4.021  14.447 -0.1727  0.0404 -0.1074
18792W        W35053   2.078  12.088   0.575 -0.1148  0.0044  0.1245
18793W        W35054  15.326   5.380   4.614  0.0567 -0.1136 -0.0445
18794W        W35055   5.980   4.866   1.151 -0.0534 -0.0916  0.0443
18795W        W35056   2.202  14.437  11.855  0.1865  0.0296  0.1203
18796W        W35057  13.717  15.375  15.013 -0.2026 -0.0228 -0.1398
18797W        W35058   5.190   4.703  15.008 -0.1265 -0.2988  0.0452
18798W        W35059  14.494  15.031  15.417 -0.1719 -0.0055  0.1224
18799W        W35060  16.655  17.634  13.421  0.1181  0.0012 -0.0504
18800W        W35061  12.855  17.028   0.208  0.0184  0.1423 -0.0916
18801W        W35062  13.870  14.878   3.957  0.2823  0.3423 -0.2077
18802W        W35063   5.802   1.024   2.896 -0.1525 -0.2321  0.0838
18803W        W35064   0.413   4.004  12.385  0.2349  0.2952  0.4230
18804W        W35065  12.898  13.120   3.173 -0.1216  0.3008 -0.1465
18805W        W35066  13.885   3.574   1.297  0.2065 -0.1796 -0.0049
18806W        W35067  13.393   5.890   2.314 -0.0819 -0.0852  0.1298
18807W        W35068  14.254  11.289   2.644 -0.1970  0.1757  0.0996
18808W        W35069   6.573  15.439  13.218  0.1528 -0.2318  0.0599
18809W        W35070   8.800   0.938   4.159 -0.2936  0.1601 -0.0282
18810W        W35071   4.915   6.117   4.352  0.2836 -0.3983  0.1398
18811W        W35072   1.369   0.061   3.158 -0.2825 -0.2195 -0.2807
18812W        W35073  14.780   3.680   2.353  0.1275 -0.1311  0.1475
18813W        W35074  12.510  14.363   5.499 -0.0094 -0.1513 -0.1895
18814W        W35075  10.306  17.669   1.306  0.2314 -0.3801 -0.0834
18815W        W35076   3.999   7.274  14.573 -0.1904 -0.0661  0.4224
18816W        W35077   3.103   8.927   0.201  0.0174 -0.3944 -0.0003
18817W        W35078  17.742  17.308   1.765  0.2171 -0.0565 -0.0320
18818W        W35079   1.029   0.413  11.776 -0.2605  0.2298 -0.2103
18819W        W35080  17.578   6.846   4.898 -0.0905 -0.1531 -0.1495
18820W        W35081   5.178  12.434   4.461 -0.0503  0.0346 -0.0143
18821W        W35082  17.394   4.440  12.636 -0.3288 -0.0030  0.0454
18822W        W35083   6.193  18.172   0.635  0.3178  0.1705  0.3150
18823W        W35084  15.886  16.906   5.648 -0.0110 -0.1296  0.2236
18824W        W35085   4.209   0.647  14.164 -0.2057 -0.1979  0.1846
18825W        W35086  12.985  13.057   1.724  0.1408  0.0854 -0.4524
18826W        W35087  12.455   2.551  12.547  0.2237 -0.1830 -0.5956
18827W        W35088  15.117  10.897   5.220  0.2489 -0.1117 -0.0010
18828W        W35089  10.332  12.628   4.369 -0.2382  0.0806  0.0429
18829W        W35090   6.283   9.584   5.186  0.2855  0.2244  0.2595
18830W        W35091   1.945  16.054  12.689 -0.1651 -0.4958  0.1330
18831W        W35092  16.667   0.675  14.637 -0.0889 -0.0937 -0.2884
18832W        W35093   4.837   2.736   3.659 -0.0499 -0.0017 -0.3657
18833W        W35094  13.469   3.624  13.671  0.1036  0.1902 -0.3071
18834W        W35095  11.718   0.125  15.423 -0.0217 -0.0276  0.3327
18835W        W35096  11.484  16.716  15.891  0.2695 -0.3856  0.2471
18836W        W35097   5.877  14.696   4.539  0.0015 -0.1423 -0.0517
18837W        W35098   3.845  17.586   2.560 -0.0353  0.0787  0.0079
18838W        W35099  14.194  13.166   1.309  0.0463  0.1531  0.0864
18839W        W35100   1.566   3.941  11.914  0.0369  0.2264  0.0760
18840W        W35101   7.454   9.466   2.523 -0.0931 -0.1956  0.3760
18841W        W35102  16.296  13.828   1.418  0.0238  0.2490 -0.1215
18842W        W35103   0.799  17.412  12.803  0.3235 -0.1079  0.1738
18843W        W35104   8.540  14.359  15.694 -0.0970  0.1624 -0.2298
18844W        W35105   8.047  10.723   1.432 -0.1514  0.1420 -0.3714
18845W        W35106   8.566  14.905  12.506 -0.2188  0.1695 -0.1855
18846W        W35107  11.077   3.174   2.254  0.1216  0.1186  0.1291
18847W        W35108   4.152  16.667   1.327 -0.0703  0.0406  0.1804
18848W        W35109   6.006  13.783   2.551 -0.3569 -0.1374 -0.2697
18849W        W35110  12.276   1.682  13.286 -0.1733  0.1238 -0.1605
18850W        W35111  11.465   8.822  11.270  0.0590  0.0483 -0.3436
18851W        W35112  12.974  10.820   2.903 -0.0264  0.2092 -0.0920
18852W        W35113  14.611   5.069  13.048  0.2295  0.3098  0.0388
18853W        W35114   0.367  11.560   3.838  0.0576  0.0279 -0.3600
18854W        W35115   3.042   2.637  13.837 -0.1386  0.2016  0.0155
18855W        W35116  13.235   7.953   2.789 -0.1744 -0.0423 -0.1321
18856W        W35117  10.943  12.556  14.316 -0.1365 -0.1742  0.0424
18857W        W35118   5.364   8.384  16.155  0.2364  0.0923 -0.4838
18858W        W35119   2.236   7.189  12.570  0.0896  0.1854  0.2663
18859W        W35120   2.886  17.872  16.551  0.1261 -0.0012 -0.0433
18860W        W35121   0.955   4.054   0.438  0.3719 -0.2236  0.1825
18861W        W35122   9.301  12.089   0.755 -0.1836  0.1631  0.1621
18862W        W35123  13.915   2.243  14.770 -0.1304  0.0937  0.1190
18863W        W35124   0.419  15.278  12.897 -0.2537 -0.0309 -0.3423
18864W        W35125   3.842   3.773   0.203 -0.3487  0.1668 -0.0930
18865W        W35126   0.143   8.659   1.104  0.0967 -0.1485  0.0155
18866W        W35127   5.677   1.038   0.420 -0.1261 -0.0626 -0.0205
18867W        W35128   8.121  12.926   4.658 -0.2320 -0.0339 -0.2589
18868W        W35129   1.781   2.780   6.062 -0.2191  0.0845 -0.0573
18869W        W35130  14.190  16.099  13.640  0.0827 -0.1594  0.2131
18870W        W35131   6.960  16.023  15.469  0.1056  0.3857 -0.1156
18871W        W35132  10.687   3.931  13.361 -0.3236 -0.0375  0.0076
18872W        W35133  12.980  14.594   5.264 -0.1287  0.2582  0.3230
18873W        W35134   7.208   6.207  15.403  0.3142 -0.1255  0.0470
18874W        W35135   9.774   9.001  13.651  0.1960  0.2483  0.1108
18875W        W35136  10.985   8.261   0.336  0.0205 -0.0639 -0.1022
18876W        W35137  13.523   6.664   1.525 -0.0528  0.0819 -0.2598
18877W        W35138   8.897   5.660   1.720 -0.3778  0.0716 -0.0196
18878W        W35139  15.111   9.160  10.928  0.5206  0.1881 -0.2572
18879W        W35140  15.028   7.040  10.997 -0.0509  0.2321  0.2735
18880W        W35141   0.516  16.340   1.435  0.1819  0.3405  0.0475
18881W        W35142   9.051  16.808   5.576 -0.1339 -0.0876  0.2445
18882W        W35143   1.767  15.291   3.927  0.0681 -0.4323 -0.1689
18883W        W35144   3.941   7.467   4.978  0.4506  0.1560 -0.0302
18884W        W35145   2.046  13.089  11.640  0.0248 -0.0410  0.0366
18885W        W35146   4.095  10.771   0.153 -0.2315 -0.1553  0.2210
18886W        W35147   4.667  17.240   4.235 -0.3858 -0.0579  0.0952
18887W        W35148  18.126  16.702   3.540  0.0345 -0.1491 -0.1885
18888W        W35149  16.370  14.488  14.115  0.0000  0.4199  0.2389
18889W        W35150   2.602   8.169   1.355 -0.1044  0.0882 -0.0025
18890W        W35151  11.200   8.247   6.630 -0.1113  0.0891 -0.0565
18891W        W35152   8.625   7.954  14.455 -0.2674  0.0704 -0.0376
18892W        W35153   7.539   5.683  14.254  0.0853  0.0342  0.0227
18893W        W35154   9.322  11.209   4.780  0.0769 -0.0058 -0.0659
18894W        W35155  11.365  11.895  14.847 -0.0415 -0.2358 -0.2901
18895W        W35156   6.553   3.590   0.809 -0.0629  0.1813 -0.0497
18896W        W35157   6.681   1.199  14.468 -0.1095 -0.2119 -0.1527
18897W        W35158   3.305   3.658   3.185  0.2010  0.1072 -0.0500
18898W        W35159   0.523   2.099   3.584 -0.0598  0.0313 -0.0819
18899W        W35160   8.003   8.445  11.938  0.0775  0.0915 -0.0054
18900W        W35161   1.795  14.042  14.386 -0.2522  0.0256 -0.1315
18901W        W35162  16.602   7.263   2.780  0.1310 -0.1015  0.0915
18902W        W35163  16.470   0.501   1.740 -0.1032  0.3606  0.0505
18903W        W35164  17.856  14.814   1.261  0.1945 -0.4562 -0.0316
18904W        W35165  11.096   7.886   2.545  0.0998 -0.0781  0.0608
18905W        W35166  11.679   8.385  11.305  0.0869  0.2485  0.1345
18906W        W35167   1.419  13.616   3.990  0.0086  0.1038  0.0149
18907W        W35168   8.193  11.615   1.106  0.0582  0.0915  0.1232
18908W        W35169   2.816   9.981  15.914  0.0201 -0.1744  0.1807
18909W        W35170   4.498   8.009   2.414  0.0674  0.1569 -0.2395
18910W        W35171   5.967   6.528   1.410 -0.1103 -0.0279 -0.1540
18911W        W35172   3.923   6.272   0.370 -0.0670 -0.0665  0.0693
18912W        W35173   4.237  15.012   1.859  0.1009 -0.2111  0.1553
18913W        W35174  10.785  17.116  13.504 -0.0184 -0.1293  0.1335
18914W        W35175   5.143  17.946  14.778 -0.1784 -0.1203 -0.0292
18915W        W35176   2.895  15.221   4.183 -0.1605  0.3289 -0.0511
18916W        W35177  13.392  16.079  16.099 -0.0176 -0.2694 -0.4311
18917W        W35178  10.826   8.704   3.244  0.0268  0.2876  0.0589
18918W        W35179   7.218   8.566   5.158 -0.0186  0.0543 -0.2719
18919W        W35180   0.636   5.932  13.900 -0.1965  0.0945  0.0677
18920W        W35181  18.116   5.442  15.204 -0.2828 -0.1565  0.1599
18921W        W35182  11.243   5.149  11.120 -0.0016 -0.0075 -0.3505
18922W        W35183  13.009  17.379   4.329 -0.0289 -0.1864 -0.1934
18923W        W35184   8.485   0.678  12.052  0.0834 -0.3195 -0.0387
18924W        W35185   9.260  10.960  16.629  0.0716  0.0885  0.0388
18925W        W35186   6.989   7.856   4.118 -0.3560  0.6287 -0.2171
18926W        W35187   7.632   5.566  12.368 -0.0810  0.1568 -0.0330
18927W        W35188   6.842   9.758  12.616  0.1454  0.0019 -0.1108
18928W        W35189  11.093  10.755   3.051  0.0971  0.2015 -0.0678
18929W        W35190   2.484  10.274   2.304 -0.1242 -0.0930  0.2978
18930W        W35191  16.728   0.591  14.136  0.2481  0.1144 -0.1979
18931W        W35192   0.472   5.152   5.951 -0.2006 -0.0151  0.0144
18932W        W35193   4.867  13.803  12.308 -0.1326  0.1883  0.1824
18933W        W35194  10.109   8.850  16.013 -0.0475 -0.2312  0.2738
18934W        W35195  16.450  14.515   0.875 -0.2249 -0.1023  0.1041
18935W        W35196   2.512   7.574   0.059  0.0444  0.0965  0.2462
18936W        W35197  14.075   1.824   0.837 -0.0462  0.1301  0.1605
18937W        W35198   2.809   2.117  13.850 -0.4317  0.2795 -0.0520
18938W        W35199   6.112  10.929  14.841  0.1556  0.0010 -0.1532
18939W        W35200   1.393  17.114   0.645 -0.3498  0.1121 -0.1125
18940W        W35201  15.492   8.099   5.703  0.0378  0.0168 -0.3036
18941W        W35202  13.445  11.566   5.842 -0.3733 -0.2116 -0.4084
18942W        W35203   2.197   0.130   2.018 -0.2675  0.1013  0.2073
18943W        W35204   7.548  17.990   0.095 -0.2486 -0.1152  0.1528
18944W        W35205   0.585   3.122   1.670 -0.2069  0.3005 -0.1434
18945W        W35206   9.063   7.732   3.280 -0.2420 -0.2186 -0.1706
18946W        W35207  15.939  13.627   1.137  0.0117  0.0058 -0.3979
18947W        W35208  13.656   6.850  13.750  0.4792  0.1911 -0.3665
18948W        W35209  10.104   7.955   5.393 -0.2432 -0.1330 -0.0077
18949W        W35210   2.610   8.740   4.336 -0.0557  0.1486  0.0287
18950W        W35211   1.528  13.328   2.928 -0.0736 -0.1231  0.0406
18951W        W35212   9.304  12.797   2.457  0.0138 -0.2057  0.1571
18952W        W35213   6.364  13.093  12.986  0.0715  0.1657 -0.0302
18953W        W35214   9.187  11.616  15.638 -0.0490  0.2421 -0.0657
18954W        W35215  10.515  14.892   4.609  0.0146 -0.1038  0.1059
18955W        W35216   1.620   5.468   1.846  0.4245 -0.1597  0.1953
18956W        W35217  15.045   2.157  12.422  0.0965  0.0947  0.3624
18957W        W35218  18.081  11.591   4.033  0.2901  0.0404 -0.2508
18958W        W35219   8.866  15.831   2.775 -0.0061  0.0409  0.1267
18959W        W35220   4.825  14.615  12.797  0.0361 -0.1653 -0.1773
18960W        W35221  12.136   4.655   5.083  0.1531  0.0048 -0.0921
18961W        W35222   7.411   9.653  14.585  0.0139 -0.0487 -0.1896
18962W        W35223   3.611   9.299   1.305  0.0905 -0.3780 -0.0320
18963W        W35224   2.728  16.527   4.371  0.0497  0.2133 -0.2824
18964W        W35225   5.867   5.040   5.783  0.0120  0.0354  0.1620
18965W        W35226   5.222   5.314   2.027 -0.0838  0.0170 -0.0839
18966W        W35227   2.672   9.503  12.638  0.2584  0.2086  0.0298
18967W        W35228   2.256   4.009   3.048 -0.1029  0.1244  0.3116
18968W        W35229   3.978   4.012  15.771 -0.1501 -0.0566  0.1935
18969W        W35230  12.105   2.825   0.623  0.0471 -0.0990  0.3453
18970W        W35231  16.042  17.061   1.759 -0.2697  0.0361  0.1916
18971W        W35232   3.822  11.557  16.626  0.1818 -0.1546  0.0280
18972W        W35233   2.348   1.304  14.008 -0.2470  0.3235 -0.2289
18973W        W35234   6.361   0.105   5.669  0.0000 -0.1828  0.2004
18974W        W35235  14.431   2.690   5.281  0.0089 -0.0561 -0.0686
18975W        W35236  13.339  14.196  11.544  0.4161 -0.2231 -0.1122
18976W        W35237   7.392   1.273   1.435  0.3065 -0.1442 -0.1962
18977W        W35238  16.177   6.759  15.944  0.0288 -0.1995  0.2776
18978W        W35239   7.925   2.995  12.869  0.0149 -0.1212  0.1420
18979W        W35240   3.365  11.933  12.896  0.0342 -0.0210  0.0440
18980W        W35241   8.293   0.057   4.544 -0.0917 -0.0702  0.0377
18981W        W35242  11.067  16.316  13.842 -0.1172  0.2373 -0.2902
18982W        W35243   3.214   9.996  12.821 -0.2989 -0.0380  0.0258
18983W        W35244   8.867  10.932   4.133 -0.1285 -0.1619 -0.0561
18984W        W35245   2.828   4.163   4.264 -0.0482 -0.0672  0.3544
18985W        W35246   6.163  12.631   4.406 -0.0560 -0.2463 -0.0060
18986W        W35247  12.548   2.206  14.014 -0.2839  0.2466  0.1102
18987W        W35248   6.248  17.089   1.112 -0.1262 -0.1934 -0.0380
18988W        W35249  12.119  12.347  13.268 -0.0421  0.0431 -0.0234
18989W        W35250   2.651  11.643  14.584 -0.0974 -0.2466  0.1603
18990W        W35251  16.436   1.779  16.627  0.0011  0.3564  0.0753
18991W        W35252  16.211   8.815   4.855  0.1415 -0.3565 -0.2962
18992W        W35253   0.961  12.378   2.456 -0.1087  0.0869 -0.0200
18993W        W35254   8.704   6.371  15.035 -0.0901  0.1687 -0.0470
18994W        W35255   3.409   1.140   1.864 -0.0418  0.0741 -0.0823
18995W        W35256   3.415   9.995  11.235 -0.1745  0.4522 -0.1428
18996W        W35257   1.214  13.751   5.425  0.0098  0.2205 -0.2623
18997W        W35258   2.824   1.970   1.819  0.4183 -0.1309  0.2938
18998W        W35259   8.320  17.166  15.315 -0.0040 -0.2249 -0.2433
18999W        W35260  16.624  17.471   1.423 -0.0910 -0.3746  0.1051
19000W        W35261  12.107   9.918   0.945  0.0813  0.1334  0.4225
19001W        W35262   4.016  14.430   1.623  0.2858 -0.2770  0.2684
19002W        W35263   4.630   2.655   4.606  0.1338  0.0816 -0.0907
19003W        W35264   5.999  14.106   0.275 -0.2828 -0.1441 -0.1581
19004W        W35265   9.552   6.182   2.442  0.3398  0.3274  0.1094
19005W        W35266  10.944   0.498   4.303 -0.2865  0.0856 -0.4415
19006W        W35267   4.362   8.564   4.245 -0.0900  0.0726 -0.1403
19007W        W35268   7.289  14.308   3.128  0.1109  0.1358  0.0581
19008W        W35269   8.869   5.693  14.963 -0.1722  0.1421  0.0315
19009W        W35270  13.874   2.318   3.155 -0.1919 -0.1742 -0.2277
19010W        W35271   3.133  16.109   5.136  0.3657 -0.1776  0.0386
19011W        W35272   3.332   5.457  15.861 -0.0483  0.1004  0.2969
19012W        W35273   9.335  12.764   3.189  0.3389 -0.1012 -0.1891
19013W        W35274  15.220  12.139   5.807  0.0416 -0.0966 -0.0142
19014W        W35275  16.588   8.342  15.339  0.0842  0.0656 -0.0698
19015W        W35276   1.694   4.773   4.088 -0.2898  0.1998  0.5510
19016W        W35277  11.364  15.053  16.407 -0.0692  0.4364  0.1024
19017W        W35278   6.858  16.282  12.927  0.2153 -0.1290  0.2080
19018W        W35279  11.044   1.059  12.074  0.1968 -0.1918 -0.1158
19019W        W35280   0.354  18.183   5.632 -0.3708  0.3016  0.3050
19020W        W35281   5.842  14.673  13.742  0.0598  0.1817  0.0276
19021W        W35282   2.972   2.347  12.961 -0.2893 -0.0412  0.1305
19022W        W35283   0.238  17.897  13.293  0.1169 -0.0296 -0.1421
19023W        W35284  10.980   6.306   4.649  0.0047 -0.0987  0.1369
19024W        W35285   8.297   4.498  12.515 -0.0294 -0.1240  0.1369
19025W        W35286   3.356  13.758   1.052  0.3033 -0.3645 -0.1504
19026W        W35287   8.249   5.677  12.138 -0.1448  0.0572  0.5927
19027W        W35288  17.720  17.036   3.502 -0.2285 -0.2474 -0.1550
19028W        W35289  15.753   6.424  15.501 -0.0835  0.0141 -0.1906
19029W        W35290   1.641  10.530  12.921  0.1226 -0.0051  0.0600
19030W        W35291  10.098  11.944   0.546 -0.0461  0.0913 -0.2734
19031W        W35292   4.949   9.301  12.283 -0.1172 -0.2158 -0.3452
19032W        W35293   0.350  12.784  11.511 -0.0803  0.2334 -0.1639
19033W        W35294  14.767  15.519  13.432 -0.4694 -0.0027 -0.0304
19034W        W35295  16.302   8.340   2.140 -0.2191  0.4116  0.1693
19035W        W35296   7.168   5.184   2.462 -0.2010 -0.0559 -0.1241
19036W        W35297   8.426  14.259   1.755  0.4415 -0.0483 -0.2453
19037W        W35298  14.997   0.712   2.831  0.0395 -0.1756  0.2696
19038W        W35299  15.005  11.449  12.699 -0.2787 -0.1562  0.0491
19039W        W35300  18.091   8.935   0.276 -0.0719 -0.0875 -0.0213
19040W        W35301  17.090   8.919   3.241  0.2240 -0.3102  0.0350
19041W        W35302  11.193   7.884  13.965 -0.1221  0.0344 -0.0110
19042W        W35303  12.215  11.325  16.427  0.1415 -0.0722  0.2503
19043W        W35304  11.597   8.702   1.972 -0.1914  0.0290 -0.1333
19044W        W35305   1.872  10.138   5.698  0.1460 -0.1529  0.1522
19045W        W35306   5.268  13.968  15.236  0.0228  0.0625 -0.1603
19046W        W35307   6.338   3.375   0.354 -0.2703 -0.4724 -0.3128
19047W        W35308   2.737  11.733  12.062  0.2535  0.1201  0.0213
19048W        W35309   0.197  11.953   5.555  0.0208 -0.1897 -0.4076
19049W        W35310  12.278  11.439   1.823 -0.0141  0.0085 -0.0044
19050W        W35311  14.293   5.921  11.967  0.3002  0.1921  0.2964
19051W        W35312  14.614  14.663  15.720  0.0423 -0.1197  0.0245
19052W        W35313   4.500   4.245   2.852 -0.1604 -0.3537  0.2463
19053W        W35314  10.733   4.920  15.292  0.4120 -0.6553  0.1500
19054W        W35315   5.254   3.322   0.288 -0.2702  0.1226 -0.2125
19055W        W35316   1.907  10.056   4.380 -0.2300  0.4614  0.0220
19056W        W35317   8.666   4.402   4.014  0.0653  0.1889  0.2295
19057W        W35318  12.957  17.551  15.778  0.1162 -0.0157  0.1022
19058W        W35319   3.851  10.056   4.133  0.0115  0.0012 -0.0662
19059W        W35320  15.356  17.183  13.125 -0.2767  0.0037 -0.3611
19060W        W35321  14.785   6.024   3.298  0.0691 -0.3166 -0.0040
19061W        W35322   7.691  15.248  15.954  0.1827 -0.1527  0.0732
19062W        W35323   1.465  16.288   1.490 -0.1907  0.3142  0.2051
19063W        W35324  16.873  11.998  12.934  0.3823 -0.1409  0.1629
19064W        W35325   0.555  10.114  15.386 -0.2762  0.0166 -0.0320
19065W        W35326   6.808   5.193  12.246  0.2031 -0.1669 -0.1928
19066W        W35327  13.255  16.694  12.148  0.2505 -0.1795 -0.0499
19067W        W35328   8.692  11.316  13.851 -0.0005  0.0862 -0.0734
19068W        W35329   1.516   9.852  15.419  0.3153 -0.0048 -0.0439
19069W        W35330  14.652  12.107  13.629  0.1604 -0.1709  0.0796
19070W        W35331  14.405  14.606   5.356  0.1913 -0.3198 -0.1354
19071W        W35332  10.534   4.124   2.017  0.2730  0.0280 -0.0912
19072W        W35333   4.621  17.600   5.094 -0.0640 -0.1233  0.0211
19073W        W35334  15.356   8.514  15.570  0.2332 -0.1451  0.2050
19074W        W35335   9.758  17.213   4.242  0.0867 -0.0352 -0.2242
19075W        W35336  11.824  13.840  13.367  0.0031 -0.3791  0.0174
19076W        W35337   7.624  17.662   1.425  0.1959 -0.2075  0.1938
19077W        W35338   7.156   3.711  11.910  0.0040 -0.0242 -0.1634
19078W        W35339   6.586   7.250  16.078  0.1521 -0.2549  0.2523
19079W        W35340  15.582  12.828  16.070 -0.0976  0.0679  0.0893
19080W        W35341  16.194   8.339   3.965  0.2061  0.3759  0.4237
19081W        W35342   3.157  12.966   1.325  0.1029  0.1197  0.0293
19082W        W35343   9.462  15.510   1.521  0.3074 -0.0494  0.1630
19083W        W35344   3.241   7.540   4.182  0.1746 -0.0733  0.0672
19084W        W35345   4.359  13.762   2.076  0.3791  0.0369  0.2036
19085W        W35346  12.449  10.091  12.777 -0.1681  0.1965 -0.1926
19086W        W35347   5.012   5.838   2.163  0.0276  0.1565 -0.1680
19087W        W35348   0.962   8.271  14.954 -0.0624 -0.1441  0.0492
19088W        W35349  10.500  16.359  14.735  0.1655  0.0016 -0.0909
19089W        W35350  15.824   4.177  13.367 -0.0228 -0.4074  0.1323
19090W        W35351  15.191   8.862  14.846 -0.2801 -0.5268 -0.0373
19091W        W35352  14.321  15.372  16.474  0.0138 -0.0280 -0.0944
19092W        W35353  13.016   8.730  16.138 -0.2229 -0.1435  0.2218
19093W        W35354   2.402   5.873   2.165 -0.1714 -0.0016 -0.0450
19094W        W35355   0.357  17.499  15.680  0.1142  0.1504  0.0089
19095W        W35356   4.730  17.580   0.589 -0.0444 -0.0896  0.1369
19096W        W35357   0.378   6.817   4.616  0.0987 -0.1276  0.0249
19097W        W35358   1.449  10.396   4.825 -0.2497 -0.0636 -0.2059
19098W        W35359  12.080  12.480  12.543  0.2270 -0.2718 -0.0764
19099W        W35360  17.479   7.239  13.485  0.2719  0.1862 -0.2854
19100W        W35361   4.425  18.047  13.707  0.1501  0.2676  0.3442
19101W        W35362   9.543   8.459  13.754 -0.2058  0.2711  0.3003
19102W        W35363  13.556  16.194   2.609  0.0998  0.0040 -0.0137
19103W        W35364  11.940  17.842  15.304  0.0988  0.0297  0.1012
19104W        W35365  14.887   7.489  11.186  0.3070 -0.4203 -0.0112
19105W        W35366  12.202   5.731  15.827  0.0489  0.0500  0.0648
19106W        W35367   2.741  17.087  16.063  0.0058 -0.1368  0.1248
19107W        W35368  13.261   8.772   3.525  0.0282  0.1196  0.0000
19108W        W35369  15.851  12.917   6.286 -0.1732  0.1805  0.0574
19109W        W35370  15.536   9.918  15.248  0.3269  0.0427 -0.1519
19110W        W35371  12.577  10.663  11.679 -0.2040 -0.0508 -0.2550
19111W        W35372   1.714   6.405   3.288  0.1188 -0.2295 -0.2065
19112W        W35373   4.361   3.816   0.161 -0.3969  0.2346 -0.0323
19113W        W35374   4.564   2.113  14.387  0.1318  0.0253  0.1411
19114W        W35375   5.243   1.786   4.819  0.2331 -0.0643  0.3758
19115W        W35376   4.949   0.006  12.967 -0.0619 -0.3200  0.2535
19116W        W35377  14.227  15.102  14.709 -0.0318 -0.0920  0.3821
19117W        W35378  11.454  15.825   2.233 -0.1438  0.0543 -0.0392
19118W        W35379   1.481   3.988  15.874 -0.0636  0.3435 -0.0408
19119W        W35380  13.774   8.372  13.137  0.4028 -0.1628 -0.0880
19120W        W35381  15.664  13.187   1.296 -0.1313  0.1771 -0.2588
19121W        W35382   1.455  16.764   1.650  0.1423 -0.0753 -0.0044
19122W        W35383  15.296   3.478   4.090 -0.2462  0.1659 -0.0199
19123W        W35384  12.338   9.377   5.114  0.3495 -0.1422  0.1082
19124W        W35385  17.023  15.809   2.918 -0.1556  0.2340 -0.0311
19125W        W35386  17.555   8.368  12.720  0.0979  0.2529  0.4376
19126W        W35387   2.559  15.967   2.315  0.0278  0.2263 -0.0236
19127W        W35388   8.405   0.672   2.816 -0.0479  0.1942 -0.1448
19128W        W35389   9.751  12.268  12.194 -0.1190  0.1394  0.0121
19129W        W35390   2.374  10.703   1.450 -0.0272 -0.2347 -0.1261
19130W        W35391   6.817   2.001   5.531  0.2286 -0.1696 -0.2005
19131W        W35392  13.441  12.069   3.375 -0.0717  0.3126  0.0441
19132W        W35393  13.833   4.602   3.373 -0.4335  0.1457  0.1997
19133W        W35394  13.006  17.987   1.666  0.2244  0.1780  0.0909
19134W        W35395   0.512  18.111  13.653 -0.0981  0.0908 -0.4084
19135W        W35396   8.735  10.505  12.628 -0.2379  0.0699  0.1849
19136W        W35397   3.816   3.510  16.448  0.1187 -0.1413  0.1037
19137W        W35398  12.688  11.071  13.111 -0.2272 -0.3960 -0.1236
19138W        W35399  16.413   5.984   3.901  0.0529  0.0567  0.1275
19139W        W35400   5.566  17.076  12.957  0.2742 -0.0067  0.0322
19140W        W35401   3.086  10.920   0.226  0.0004  0.0097 -0.2293
19141W        W35402  10.600   0.810  12.000  0.0835  0.0650  0.1507
19142W        W35403   6.402  13.900   5.214 -0.0267  0.0324 -0.2764
19143W        W35404  15.352  18.037   3.116 -0.3056  0.2091 -0.3805
19144W        W35405  18.167   7.529   0.781 -0.0334  0.1827  0.1469
19145W        W35406  13.523  15.816   3.019 -0.0142  0.0018 -0.0517
19146W        W35407   4.026  17.939  11.838  0.2426  0.1740 -0.1479
19147W        W35408  12.209   6.733  15.477  0.0250 -0.3045 -0.0173
19148W        W35409   4.850  11.525   3.642  0.1926  0.2801  0.1882
19149W        W35410  15.789  11.088  12.877  0.3306  0.2046 -0.2224
19150W        W35411   6.392   2.434   5.536 -0.4327  0.0282 -0.0443
19151W        W35412  16.892   9.221   1.910 -0.0258  0.1158 -0.0093
19152W        W35413   1.491  13.696   2.357  0.3248  0.0767  0.1052
19153W        W35414  13.407   9.484  15.090 -0.1706 -0.0051 -0.1761
19154W        W35415   7.208  10.785  12.719 -0.4620  0.0871  0.0569
19155W        W35416   3.255   0.226   4.219 -0.0036  0.3194  0.2212
19156W        W35417  16.148   0.438  13.874 -0.2390 -0.2877  0.3427
19157W        W35418   9.241  13.453   1.727  0.0847  0.3070 -0.2703
19158W        W35419   9.155   3.194   2.109 -0.0372  0.0620  0.1285
19159W        W35420   5.079   2.531  11.105 -0.0786 -0.2128  0.0904
19160W        W35421  10.696  11.437  16.442 -0.0691 -0.1631 -0.0201
19161W        W35422  12.485   4.767  11.893  0.1975  0.3280  0.2283
19162W        W35423   1.752   1.614  14.836  0.3377  0.1509 -0.0836
19163W        W35424  10.158  16.384   3.853 -0.0518  0.3272 -0.0968
19164W        W35425  11.414   6.387  11.862 -0.1012 -0.4275 -0.0540
19165W        W35426   0.010  15.491  13.504 -0.1680 -0.0835  0.0682
19166W        W35427   1.262   2.254   4.379  0.0162  0.0232  0.3167
19167W        W35428  10.416  10.111  13.863 -0.0540  0.2224  0.1016
19168W        W35429   1.705  11.273   3.574  0.2267 -0.3079  0.3204
19169W        W35430  11.988   8.763  11.518  0.1253  0.1129 -0.0353
19170W        W35431   1.801   9.236   0.088 -0.2429 -0.1010  0.0104
19171W        W35432   9.454  18.091   0.436  0.1631  0.1357  0.0267
19172W        W35433   0.975  16.411   1.590  0.0569  0.1682 -0.1141
19173W        W35434   1.019  14.829   3.313  0.1315 -0.0904  0.2076
19174W        W35435  11.856   8.126  11.765  0.0306  0.1446  0.1523
19175W        W35436   1.415   3.036  14.298 -0.3166  0.2474 -0.1260
19176W        W35437  15.354  15.402   3.941 -0.4726  0.0317  0.0101
19177W        W35438   6.470  13.804   6.154  0.0846  0.1229 -0.1998
19178W        W35439   4.978   7.057   2.616 -0.1631  0.1610 -0.1220
19179W        W35440  10.187  12.835  13.849 -0.0429  0.0883 -0.1510
19180W        W35441   7.897   9.468   4.721 -0.0582  0.0496 -0.0341
19181W        W35442   1.183  10.581   2.535  0.0036  0.1912 -0.0466
19182W        W35443  10.730  15.581   1.900 -0.0775 -0.1898  0.1071
19183W        W35444   0.022  17.119  15.612 -0.1631 -0.0475  0.2184
19184W        W35445  15.244   3.495   1.524 -0.0960  0.3353  0.0312
19185W        W35446  15.306  11.182  12.404  0.1771 -0.2230 -0.2707
19186W        W35447   5.418  13.091  15.825 -0.0305  0.0849 -0.0252
19187W        W35448  17.676   1.924   0.543  0.1166  0.0995  0.0496
19188W        W35449   7.279  12.639   2.328  0.2028  0.0459 -0.1820
19189W        W35450   9.013  11.123   3.033 -0.0872  0.2518 -0.1170
19190W        W35451  15.010  11.105  16.107  0.1030  0.2359  0.1334
19191W        W35452  13.822   1.933  11.367 -0.2950 -0.0050 -0.1691
19192W        W35453  13.841   5.105  11.252  0.4517  0.0596  0.3139
19193W        W35454  16.089  12.004   2.984 -0.0036 -0.3590  0.0236
19194W        W35455   7.847  16.309  13.985 -0.0676  0.0293  0.1650
19195W        W35456   4.593   5.920  14.636  0.0756  0.0570 -0.1710
19196W        W35457   8.423   8.436   1.045  0.2460  0.1715 -0.0036
19197W        W35458   9.292   1.031  14.462 -0.2324 -0.5636 -0.1438
19198W        W35459   3.219  10.121  10.756 -0.0207 -0.2760  0.0484
19199W        W35460   8.476  11.796   5.720 -0.0177  0.2784  0.0316
19200W        W35461  17.733   5.312   3.565 -0.0323 -0.2041  0.0006
19201W        W35462   6.535  14.472  14.917 -0.3571 -0.2278 -0.1919
19202W        W35463  14.112   7.911   4.824  0.1801  0.2852 -0.1345
19203W        W35464  15.816   9.030   3.869 -0.0178  0.0850 -0.0715
19204W        W35465   6.007   9.793  15.056 -0.1322 -0.1758  0.2424
19205W        W35466  13.155  13.925  13.290  0.5777 -0.1030 -0.2820
19206W        W35467   5.849   1.612   1.591 -0.1617 -0.2787 -0.0201
19207W        W35468   7.267  16.791   2.431  0.1027  0.2354  0.1099
19208W        W35469  15.871   3.169  15.724 -0.1811  0.2293 -0.0226
19209W        W35470  14.700  16.698  12.510 -0.1531  0.0327 -0.0973
19210W        W35471   8.398   3.619   0.277 -0.5374 -0.0225  0.0233
19211W        W35472   6.682   4.759  16.519 -0.1870 -0.0291 -0.2770
19212W        W35473  12.458   0.970  15.063  0.0349  0.0464 -0.1554
19213W        W35474  15.488  14.696   1.849 -0.1005 -0.0041  0.4467
19214W        W35475  14.959  12.637  15.343 -0.4871 -0.2384 -0.3692
19215W        W35476  15.053  17.234  14.052 -0.0190  0.0735  0.1904
19216W        W35477   4.953  18.025   5.166 -0.3011 -0.0315 -0.1958
19217W        W35478  17.349  14.134  15.843 -0.2904  0.0063  0.3767
19218W        W35479   3.522   3.533  12.153  0.0375 -0.0391  0.0645
19219W        W35480   6.991  10.435   4.213  0.1305 -0.2223  0.2154
19220W        W35481  12.936   5.227   2.422  0.0865  0.5061  0.0914
19221W        W35482  10.515  17.374  12.579 -0.2148 -0.1122  0.2364
19222W        W35483  14.350  16.420  11.734  0.3049 -0.0751  0.2121
19223W        W35484  17.084  17.165   3.622  0.0558 -0.0364 -0.0674
19224W        W35485  12.417   7.840  14.926 -0.1797 -0.0462 -0.0866
19225W        W35486  14.228   8.631   4.618  0.0679  0.0392 -0.0724
19226W        W35487  12.743  14.404  12.634  0.2598  0.1751  0.0542
19227W        W35488   8.732   9.395  14.718  0.0752  0.0827 -0.0379
19228W        W35489  11.004   0.220   1.945  0.3549  0.0513  0.1233
19229W        W35490  13.336  10.204  16.035 -0.1123 -0.2837 -0.1779
19230W        W35491   4.317  18.030   5.998 -0.0334  0.1049 -0.4197
19231W        W35492  13.126   2.021   2.605  0.2946 -0.1501  0.0319
19232W        W35493   9.214   0.037   3.858  0.0492 -0.1598  0.0098
19233W        W35494   9.315  17.976  14.233 -0.5206 -0.3197 -0.2452
19234W        W35495  15.065   9.304   1.507  0.0266 -0.1288 -0.0797
19235W        W35496   9.375   7.598  14.854 -0.1671 -0.0552 -0.1304
19236W        W35497  14.273  16.973   1.615 -0.1966  0.0023 -0.0025
19237W        W35498  15.535  16.584  16.159 -0.1536 -0.1459  0.0141
19238W        W35499  11.418  17.644  12.212  0.0112  0.0449  0.1067
19239W        W35500   7.651  11.707  12.961 -0.1899  0.2006  0.0887
19240W        W35501   0.008   3.465   4.898  0.0213 -0.3532  0.1373
19241W        W35502   7.605   0.385  15.445  0.1416  0.2275 -0.2104
19242W        W35503  16.150  13.546  14.327  0.0240 -0.1066  0.0310
19243W        W35504  14.556   7.146   0.818 -0.0140 -0.5311  0.1841
19244W        W35505  15.251  12.305   1.547  0.2289  0.5453  0.1661
19245W        W35506   7.411   4.337  15.437 -0.1410  0.1946  0.0135
19246W        W35507   0.473  13.103   0.880 -0.1339 -0.0628  0.1192
19247W        W35508   3.700  10.653   3.396 -0.1703  0.1188 -0.1918
19248W        W35509   0.751  13.475  16.109 -0.1536 -0.3190  0.0484
19249W        W35510  17.910  12.301  13.442  0.1993 -0.2152  0.2518
19250W        W35511  15.981  16.586   2.009 -0.3118  0.3443  0.0012
19251W        W35512  11.166   3.422  13.387 -0.1847  0.0154 -0.0572
19252W        W35513  14.029  11.423  15.778 -0.0594 -0.2021 -0.0305
19253W        W35514   5.138  15.106   0.879  0.2903 -0.3731 -0.0174
19254W        W35515   7.930  15.420   0.839  0.1666 -0.1278  0.0332
19255W        W35516   6.267  18.136   4.191 -0.1322  0.1495  0.0106
19256W        W35517  12.499  13.110   0.061 -0.3236  0.2321 -0.1046
19257W        W35518  15.994  12.897   2.182  0.2495  0.2143  0.1251
19258W        W35519  16.050  16.406   5.324  0.0769 -0.2728 -0.2368
19259W        W35520   7.285   3.817  15.466 -0.0540 -0.0601  0.0621
19260W        W35521   6.307   9.249   2.058  0.0978 -0.0934 -0.1926
19261W        W35522  13.211   2.643   5.696  0.1599 -0.0271  0.1551
19262W        W35523   2.619  12.922   2.623 -0.2621 -0.2170  0.0273
19263W        W35524   2.889  15.639   4.649  0.0473  0.2143 -0.0348
19264W        W35525   3.302  14.362  16.484 -0.2355 -0.1820  0.2228
19265W        W35526  16.770  16.097   2.236 -0.1029  0.0589 -0.2526
19266W        W35527   3.229   5.340  11.852 -0.1195  0.0414 -0.0643
19267W        W35528  13.347  10.714   0.937  0.0494 -0.0558  0.0337
19268W        W35529  10.877   8.284   2.899  0.2731 -0.0433 -0.1843
19269W        W35530  16.759   3.019   3.835 -0.0277  0.2752  0.2936
19270W        W35531   3.299   1.943  13.054  0.1248  0.2461  0.1863
19271W        W35532   6.265  16.165  14.863  0.1465  0.1634  0.2632
19272W        W35533  12.086   7.172  13.220 -0.2422  0.1504 -0.2307
19273W        W35534  16.480  17.531  15.272 -0.2466  0.0465 -0.1593
19274W        W35535   5.973   8.871   4.683 -0.0188  0.2522  0.1099
19275W        W35536  15.414  12.054   3.018  0.1799  0.0852  0.0284
19276W        W35537   7.956   2.744  16.557 -0.4765  0.1421  0.0786
19277W        W35538  15.236  17.690  13.277  0.1565 -0.2573 -0.1950
19278W        W35539  11.520   2.205  13.353  0.0565 -0.0647  0.0585
19279W        W35540   1.728   2.883  12.766 -0.2353 -0.0185  0.0832
19280W        W35541   8.634   1.465  15.510 -0.1237  0.0489 -0.3462
19281W        W35542  13.274   9.479  12.550 -0.2415 -0.2830  0.2083
19282W        W35543   5.820  11.326   3.820 -0.1389  0.2554 -0.0377
19283W        W35544  15.276   6.884  12.375  0.3075 -0.3284 -0.0704
19284W        W35545  13.554  11.991   6.085 -0.0861  0.0541  0.1560
19285W        W35546   0.189   8.129  15.282 -0.3421  0.2988 -0.1293
19286W        W35547   5.000   7.904   2.600 -0.2134  0.0580  0.2347
19287W        W35548   7.126  17.062  16.502 -0.2784  0.0823  0.0191
19288W        W35549  16.747  11.511  12.832 -0.0424 -0.1045 -0.0399
19289W        W35550  17.907   5.221   5.533 -0.1121  0.0098 -0.3768
19290W        W35551  10.704   7.169  12.952 -0.0257 -0.1534  0.0210
19291W        W35552  10.640  16.084  13.870  0.1614 -0.1513 -0.1447
19292W        W35553  16.344  16.086  14.015  0.1882 -0.0496 -0.1846
19293W        W35554   3.814  13.583  12.756 -0.4435 -0.3520  0.1727
19294W        W35555   8.931   5.617   4.023  0.2192  0.0355  0.0429
19295W        W35556  14.877   8.990   1.062  0.1367  0.0064  0.1086
19296W        W35557  11.532   7.046   0.553 -0.2747  0.0135  0.1248
19297W        W35558   7.682   0.116  15.074 -0.4523  0.1221 -0.1603
19298W        W35559   7.319   1.012  10.700  0.2520  0.2168 -0.1344
19299W        W35560   9.176  10.302   4.206 -0.4847  0.1119 -0.1007
19300W        W35561   1.108  16.854   5.638  0.1327  0.2338  0.1876
19301W        W35562   7.397   1.503  12.866  0.1832  0.3191 -0.1491
19302W        W35563  13.715   3.399   2.369  0.0320  0.1472 -0.3370
19303W        W35564  11.528   9.564  12.031  0.3104  0.1881  0.0060
19304W        W35565   2.643   6.481  13.568  0.1855  0.0677 -0.1948
19305W        W35566  17.965  14.102  12.791  0.1590  0.1563  0.2410
19306W        W35567   0.419   3.519   2.479  0.1114 -0.1905  0.2340
19307W        W35568   9.319   5.535  13.037 -0.0148  0.1489 -0.1017
19308W        W35569  13.748  13.901  13.139 -0.0538 -0.3572 -0.1917
19309W        W35570  12.769  10.035   3.657 -0.1762  0.0705 -0.2931
19310W        W35571  10.290  14.657  16.112 -0.1441  0.0786  0.1508
19311W        W35572  12.983  16.660   4.787 -0.3221  0.1716  0.0468
19312W        W35573   8.808  14.321  13.497  0.1370 -0.0851  0.0890
19313W        W35574  12.227   0.057  16.285 -0.1581 -0.0319 -0.0967
19314W        W35575   0.421  14.997  11.963 -0.4646  0.0799  0.3130
19315W        W35576   8.907   5.684   5.000 -0.0414 -0.2461  0.2017
19316W        W35577  14.597   0.674  15.157 -0.0049 -0.1007 -0.0093
19317W        W35578   7.121   5.790   0.422  0.0613 -0.0288 -0.0533
19318W        W35579   3.904  15.118   5.565 -0.1522 -0.4028 -0.1486
19319W        W35580  16.136   3.383  12.916  0.0876 -0.0039 -0.1345
19320W        W35581  15.605  17.662   0.008 -0.1293 -0.1879 -0.3560
19321W        W35582  17.796   1.053   1.505  0.1491 -0.2073 -0.0834
19322W        W35583   4.436  14.883  15.415 -0.1506 -0.0213  0.0967
19323W        W35584   2.368   0.651   4.406  0.0717  0.1930  0.0509
19324W        W35585   1.696   0.756  13.468  0.2357 -0.0873  0.0224
19325W        W35586  11.624   1.335   2.112  0.2223  0.1485  0.3009
19326W        W35587   3.490   3.961   4.804  0.1468  0.0462  0.0166
19327W        W35588  17.997  17.170   3.994 -0.2223 -0.2417 -0.1286
19328W        W35589  14.723   0.213   4.847  0.0724 -0.0941 -0.0714
19329W        W35590  10.263   0.014   4.718 -0.0099  0.0858  0.1344
19330W        W35591  14.861   1.087  11.252  0.1079  0.0207 -0.3360
19331W        W35592  17.434  10.112   4.500  0.0047 -0.1982  0.0217
19332W        W35593   2.267   7.690  14.883  0.1401 -0.2799 -0.3199
19333W        W35594   2.831   3.863   3.215  0.3558  0.0439 -0.3552
19334W        W35595   5.676  12.712   2.602 -0.0683 -0.2533 -0.1519
19335W        W35596   6.883   7.560  15.191 -0.1471 -0.2025 -0.0282
19336W        W35597  15.689   9.548   4.605 -0.0624  0.1849  0.3135
19337W        W35598  15.386   6.595  16.491  0.0653  0.1258  0.1343
19338W        W35599  15.518  13.909   0.711 -0.1594  0.2022 -0.1493
19339W        W35600  17.376   8.944   4.238  0.2127 -0.2377 -0.1492
19340W        W35601   6.234   5.228  11.541  0.1720  0.0162 -0.1850
19341W        W35602   7.198   5.429  12.024 -0.3740  0.2460  0.0926
19342W        W35603   7.604   5.504   4.348  0.1306  0.2224  0.0137
19343W        W35604   4.948  16.180  13.354 -0.0070  0.1329  0.0252
19344W        W35605   5.217  14.972   2.263  0.1503  0.2426 -0.4144
19345W        W35606   6.898   9.863  11.989  0.0286  0.0847 -0.1769
19346W        W35607   1.791   1.567   3.246  0.0689  0.2595 -0.0249
19347W        W35608  10.409  13.840   5.224  0.1299  0.3441  0.2400
19348W        W35609  15.854   7.689  15.860 -0.2052  0.1272 -0.3011
19349W        W35610   5.680  15.641  14.297  0.0915 -0.1213 -0.1112
19350W        W35611  17.614   7.148  13.995 -0.0959  0.0824 -0.2226
19351W        W35612   4.535  11.033  14.177 -0.0288  0.0504  0.2216
19352W        W35613   6.501  15.985   6.143 -0.0754 -0.1160 -0.1467
19353W        W35614  10.555   4.154   0.229 -0.0074 -0.2646 -0.0667
19354W        W35615   5.896  14.346  11.448  0.0651  0.0467  0.0560
19355W        W35616  12.275  11.873   4.184 -0.4376 -0.0691  0.0966
19356W        W35617   8.967  17.581   1.242  0.1580  0.1781 -0.1697
19357W        W35618   4.852   2.541  14.613 -0.0106  0.0352  0.3377
19358W        W35619  13.850   6.742   4.539 -0.2268 -0.0440  0.2219
19359W        W35620  10.884   2.952  11.703 -0.1418 -0.2098  0.2728
19360W        W35621   1.790  16.800  16.396  0.2820  0.0304  0.2269
19361W        W35622  16.984   8.959   0.012  0.0805  0.2403  0.0739
19362W        W35623  17.250   3.405   3.072 -0.1306 -0.0490 -0.0802
19363W        W35624  12.350  14.687   0.686  0.1789 -0.0993 -0.1704
19364W        W35625  11.650  12.502  13.372  0.0893 -0.2686 -0.0164
19365W        W35626  13.952  15.082   2.150 -0.3953 -0.1123  0.2322
19366W        W35627   5.830   0.131  13.155 -0.0785  0.2403  0.0005
19367W        W35628   4.737   1.807  12.463  0.0345  0.1863  0.1159
19368W        W35629   2.109   8.859   3.775 -0.2275 -0.0455  0.1756
19369W        W35630  12.402   7.427   4.165 -0.1102 -0.1066  0.1097
19370W        W35631  14.915  15.138   3.589 -0.3893 -0.3742 -0.3553
19371W        W35632  13.694   8.005   2.542 -0.1724 -0.1384  0.2249
19372W        W35633  11.315   4.156   4.131 -0.0721  0.3210 -0.1667
19373W        W35634   2.978   7.278  15.574  0.1231 -0.0929  0.1486
19374W        W35635   4.037  16.140   1.956  0.3711 -0.3070 -0.0862
19375W        W35636  18.039  14.795  14.476 -0.1644  0.3173 -0.2558
19376W        W35637   0.730  10.167  12.793  0.0587 -0.0199 -0.1025
19377W        W35638  12.281   4.147  14.763  0.0396 -0.2179  0.0152
19378W        W35639  15.739  13.621   2.602  0.1650  0.0103  0.0280
19379W        W35640  14.051   3.801   3.054 -0.0858  0.1337  0.0652
19380W        W35641   1.079   5.821   4.381 -0.1113 -0.3179 -0.0316
19381W        W35642  10.267  12.861   2.836  0.1452 -0.2358 -0.0430
19382W        W35643  12.274   9.845  15.684  0.2495 -0.0065 -0.0595
19383W        W35644  16.242   2.315   5.304 -0.2019 -0.1421 -0.0877
19384W        W35645   0.389   5.601   2.383 -0.0794  0.0013 -0.2808
19385W        W35646   2.479  16.986   0.015  0.2045  0.4381 -0.1254
19386W        W35647   6.935   4.141   4.903 -0.0880  0.1451  0.0078
19387W        W35648   3.111  11.930  10.526  0.0172  0.0280 -0.1445
19388W        W35649   5.576   5.620  16.614 -0.0570  0.1396  0.2458
19389W        W35650  12.429  16.799  13.569 -0.2374 -0.2919  0.1977
19390W        W35651   1.441   4.657   4.470  0.0610  0.3465  0.0183
19391W        W35652   6.722   0.881  13.450 -0.2837  0.0064 -0.1974
19392W        W35653   5.741  13.219   5.052  0.2977  0.0456 -0.2080
19393W        W35654  17.332   9.057   3.662 -0.2996 -0.1409 -0.0562
19394W        W35655   4.200  16.190   5.136  0.0125 -0.4654  0.1911
19395W        W35656  17.804   9.008  15.801  0.0266  0.3015 -0.0485
19396W        W35657   3.138   3.199  13.132 -0.0335  0.0847  0.0708
19397W        W35658   4.574  10.196  14.765 -0.3806 -0.1577  0.5491
19398W        W35659   4.573   4.899  14.891 -0.1331 -0.2262 -0.1579
19399W        W35660  12.617  11.191   0.687 -0.0911 -0.2674 -0.2129
19400W        W35661   0.302   2.329   6.247  0.2288 -0.2723  0.0776
19401W        W35662  10.727  16.222   1.372 -0.0136 -0.2104 -0.0331
19402W        W35663  18.181  10.762  15.661  0.0471  0.1515  0.2165
19403W        W35664  11.506   9.302   2.571 -0.1807  0.0521  0.0894
19404W        W35665   6.915   5.819   1.771 -0.0685  0.0456  0.1318
19405W        W35666   3.614   8.144   2.373 -0.1515 -0.0068  0.1550
19406W        W35667  13.833  11.387   5.065 -0.1251  0.0907  0.0647
19407W        W35668   4.217  12.513  14.603 -0.2307 -0.1994 -0.0832
19408W        W35669   2.836  17.391   3.856  0.1832 -0.3371  0.1265
19409W        W35670   4.515   8.923  14.367 -0.3707  0.0514  0.0995
19410W        W35671   0.506  12.533   2.772 -0.1023 -0.1900 -0.1163
19411W        W35672   3.942   7.854  16.183 -0.1509  0.0231  0.2925
19412W        W35673   5.115   5.526  13.924  0.0031 -0.0204 -0.0966
19413W        W35674   5.959  17.840  12.145 -0.1320 -0.0210  0.5135
19414W        W35675   3.398  11.374   4.086  0.2255  0.1603 -0.1564
19415W        W35676  12.136  16.793   5.275 -0.0720 -0.2536 -0.6134
19416W        W35677   7.353  17.922  11.200  0.1664  0.0906  0.0924
19417W        W35678   2.619  16.897  12.578  0.0382  0.0355  0.4431
19418W        W35679  12.305  15.844   5.563 -0.1693  0.2220  0.1846
19419W        W35680   5.415   7.050   4.069 -0.5869  0.1464 -0.0148
19420W        W35681   9.813   8.341  11.772  0.0157  0.2331 -0.0052
19421W        W35682   2.802  15.190   2.715  0.2531 -0.1490 -0.3624
19422W        W35683  11.733   6.752   4.327 -0.1846  0.4532  0.3334
19423W        W35684   7.047   1.622   4.799 -0.2576  0.1786 -0.3209
19424W        W35685   3.829  14.091  12.983 -0.2338  0.2937  0.3784
19425W        W35686  17.620  12.632   2.878  0.0909 -0.3384  0.1917
19426W        W35687   1.004  17.457   0.670 -0.1248  0.0265  0.1249
19427W        W35688   7.675  11.772   1.266 -0.0753  0.3079 -0.2189
19428W        W35689  13.866   0.258  16.576 -0.0386  0.2833  0.0779
19429W        W35690   3.137  13.238  13.573 -0.2790  0.1224  0.1569
19430W        W35691  14.704   2.593   2.040 -0.2890 -0.1802 -0.3084
19431W        W35692   6.652  12.127  14.081  0.0846 -0.0481 -0.0406
19432W        W35693   3.940  13.072  12.435 -0.1057 -0.2789 -0.2759
19433W        W35694   5.920  15.284   1.943  0.2499  0.0685  0.0913
19434W        W35695   4.767  17.547  14.809  0.0086 -0.1672  0.0295
19435W        W35696  14.721  12.395   1.756 -0.3756 -0.0323  0.3641
19436W        W35697   3.454   6.042  15.803 -0.2924 -0.4920  0.0111
19437W        W35698   9.772   5.273  15.067 -0.4459  0.2683  0.0737
19438W        W35699   9.652  13.610   3.811  0.1716  0.0522  0.1492
19439W        W35700   3.245  14.695   4.991 -0.0154  0.1047  0.0911
19440W        W35701   8.057  17.603   2.613  0.0762 -0.1459  0.1021
19441W        W35702   8.999  10.704   2.157  0.1028 -0.0356  0.1339
19442W        W35703  16.908   6.105  13.999 -0.1636  0.0079 -0.2492
19443W        W35704   4.838   0.667   5.848  0.0057 -0.0044  0.1106
19444W        W35705   0.628  14.381   2.654 -0.1645 -0.1902  0.1787
19445W        W35706  13.787   0.714  12.115  0.0016  0.2575 -0.2399
19446W        W35707   8.790  16.232  12.492  0.0277  0.2345 -0.2478
19447W        W35708  15.806   6.760  14.032 -0.4249 -0.1346 -0.1651
19448W        W35709  14.010  14.631   1.139  0.1182 -0.1404  0.0487
19449W        W35710   8.395  17.403  16.136 -0.1867 -0.2973 -0.3812
19450W        W35711   3.353  11.905   1.496  0.0531 -0.0967 -0.2824
19451W        W35712  15.792  10.827   4.464  0.0322 -0.1674 -0.3425
19452W        W35713  13.787  12.663   0.445  0.3924  0.2230  0.2175
19453W        W35714   0.600   9.569   3.008  0.0487  0.3125  0.2035
19454W        W35715   4.129   5.728   0.601  0.1362 -0.1158  0.0222
19455W        W35716   0.038  11.831   5.018  0.0256  0.0002 -0.0335
19456W        W35717  13.437  11.734  14.006 -0.1584  0.0229 -0.0792
19457W        W35718  13.448   9.296   2.246 -0.1189  0.0644 -0.0844
19458W        W35719  14.632   0.160  16.641 -0.2654  0.1233  0.2683
19459W        W35720   3.897  13.979   4.245  0.4661 -0.0399  0.0673
19460W        W35721   5.869  11.890  14.456  0.1673  0.2136  0.1476
19461W        W35722  11.087   5.661  13.455 -0.1725  0.1184 -0.2948
19462W        W35723   0.228   5.535  12.710  0.2011 -0.0097 -0.0267
19463W        W35724   7.387   3.947   4.079 -0.0035 -0.1207  0.0217
19464W        W35725   3.354   7.720   5.654 -0.0997 -0.1722 -0.1201
19465W        W35726   7.312  11.209   4.932 -0.0977  0.0519  0.0810
19466W        W35727  12.404  12.327   2.378 -0.0588 -0.2301 -0.3558
19467W        W35728   4.480   3.682  15.831 -0.0134 -0.1086 -0.1891
19468W        W35729  11.906  11.474  11.337 -0.2048 -0.3026 -0.1069
19469W        W35730   4.897  12.975  15.625 -0.0792  0.0190 -0.2170
19470W        W35731  13.889  10.832  14.726 -0.2211  0.1193  0.2166
19471W        W35732   0.482   6.112   2.373  0.2995 -0.3015  0.3071
19472W        W35733  12.151   4.870  13.171  0.2262 -0.1564 -0.0887
19473W        W35734  12.078  13.716  12.853 -0.0413 -0.2499 -0.1678
19474W        W35735  10.902   0.714  11.258 -0.0984  0.0227  0.1417
19475W        W35736   6.053  13.845  13.273 -0.0534 -0.0423  0.1464
19476W        W35737  16.124  16.230   3.682 -0.2481 -0.1305  0.1048
19477W        W35738   9.892   5.532  15.925 -0.0533 -0.2014 -0.1508
19478W        W35739  17.460   4.952  14.552 -0.3901 -0.0929 -0.0164
19479W        W35740   4.944  17.938  16.098 -0.2781  0.1555 -0.1171
19480W        W35741  13.824   1.719   4.493 -0.0083 -0.0019  0.0039
19481W        W35742   6.099   3.884   2.895 -0.2480 -0.2934  0.2031
19482W        W35743  10.350   7.470   2.892 -0.2416  0.1958 -0.0343
19483W        W35744   6.743   7.774   1.860  0.1015  0.1804 -0.0488
19484W        W35745  16.550   3.849  15.968 -0.0659 -0.0366  0.2413
19485W        W35746   2.807  12.650   3.450 -0.1595  0.1628  0.3650
19486W        W35747  10.577   4.292   2.924  0.0334  0.1217  0.1184
19487W        W35748   0.398  15.734  13.870  0.1294 -0.1128  0.0417
19488W        W35749  16.674  17.377  11.672 -0.0265 -0.0047  0.0002
19489W        W35750   4.140  12.817  13.813 -0.1917  0.2237  0.3750
19490W        W35751   4.711  13.411   5.857 -0.2087 -0.3492 -0.1720
19491W        W35752   9.541   5.767   2.831  0.0877  0.0748  0.0485
19492W        W35753   9.588   5.518   3.473 -0.0983  0.0623 -0.5031
19493W        W35754   5.597   8.521   4.061  0.0888  0.1303 -0.1094
19494W        W35755   4.162   5.258  14.074 -0.1057 -0.0777  0.1246
19495W        W35756   5.853   2.103  14.644 -0.2544  0.2917  0.2035
19496W        W35757   7.487   7.478   0.499  0.1691  0.2994 -0.0297
19497W        W35758  17.534   2.897  12.809  0.0026 -0.0039  0.0693
19498W        W35759  12.527  10.881  13.662  0.4687 -0.2583  0.0388
19499W        W35760  11.620  15.625   5.608  0.0667  0.1956 -0.0727
19500W        W35761  17.745   9.654  13.069  0.0730  0.1452  0.2919
19501W        W35762  16.008  14.437   1.859 -0.0491  0.2122  0.0097
19502W        W35763  11.140   7.406   0.743  0.0765 -0.1364 -0.0134
19503W        W35764   3.218  11.121  12.724 -0.1618  0.4382 -0.2367
19504W        W35765   5.556  13.903  13.002 -0.0837  0.4341 -0.3108
19505W        W35766   8.078   0.357  12.180  0.1633 -0.1182  0.1522
19506W        W35767  14.535  14.926   3.457  0.0137  0.0143  0.2631
19507W        W35768  12.823   3.880  11.520  0.1176  0.3267 -0.2514
19508W        W35769   3.194   5.661   2.704  0.1676  0.1127  0.0211
19509W        W35770   5.968  17.788   4.442 -0.0610  0.0493  0.1493
19510W        W35771   8.568   6.693  14.681  0.2547  0.1392  0.1294
19511W        W35772   8.052   2.359  14.622 -0.0885  0.0802 -0.0610
19512W        W35773  12.760   1.306  14.133  0.2073 -0.1837  0.0174
19513W        W35774  13.081  11.424   6.138  0.3246 -0.3220  0.1166
19514W        W35775   7.468  11.306   1.111 -0.3235  0.1718  0.0177
19515W        W35776  17.866  13.657   3.209  0.0897 -0.2772  0.0249
19516W        W35777  14.693   3.094   0.794 -0.0079 -0.5704  0.2420
19517W        W35778  15.301   9.845  13.929  0.1500  0.0415 -0.0412
19518W        W35779  14.221   2.528   1.932  0.0318 -0.4193 -0.0496
19519W        W35780   6.864  18.039   4.864 -0.5055  0.2475 -0.3464
19520W        W35781  16.460  15.410   4.312 -0.1622  0.0884 -0.0567
19521W        W35782  15.668  17.805  14.974 -0.1872  0.1582  0.0139
19522W        W35783  17.068  16.561  12.981 -0.0492  0.2631 -0.4861
19523W        W35784  17.392   6.578   2.616  0.0647 -0.0119  0.0655
19524W        W35785  16.209   3.612  11.799  0.3322 -0.1508  0.3387
19525W        W35786  13.917  17.539   3.049 -0.2302  0.3070 -0.2043
19526W        W35787   1.345   0.400  16.209  0.4194 -0.3735 -0.3401
19527W        W35788   9.568   8.622   1.388 -0.2921  0.0967  0.0161
19528W        W35789  11.997  15.762   5.988  0.1032  0.1859 -0.0897
19529W        W35790  17.733  14.205  12.347  0.2012 -0.1029 -0.0451
19530W        W35791   5.475   9.412  16.335  0.0494  0.3424  0.1155
19531W        W35792  17.364   0.197   0.506 -0.1031  0.3234  0.3201
19532W        W35793   9.516   3.200   1.732  0.0794  0.2357 -0.1523
19533W        W35794   6.103  12.464   4.968 -0.1157  0.1324  0.2875
19534W        W35795   3.602   9.586  16.213 -0.1526  0.3394 -0.1734
19535W        W35796  13.232   5.593   1.091 -0.0307  0.4267 -0.0917
19536W        W35797  10.804  10.463   3.444 -0.3170 -0.2242 -0.2133
19537W        W35798  13.929   5.209   3.970 -0.3004 -0.0311 -0.1996
19538W        W35799   4.356  16.119   5.826 -0.2005 -0.0717 -0.0368
19539W        W35800  16.870   3.192   0.574  0.2793  0.1884  0.0429
19540W        W35801   2.886  17.611   2.675 -0.1515 -0.1107  0.2727
19541W        W35802   3.368   7.122   4.805 -0.1546  0.1262 -0.0810
19542W        W35803   2.344  15.321  15.676  0.1788  0.0975  0.1454
19543W        W35804  13.838   4.690  15.236 -0.2653 -0.0669 -0.2784
19544W        W35805  10.250  12.867   3.448 -0.2137 -0.2097 -0.3778
19545W        W35806  17.885   6.932   3.172  0.3722 -0.0561  0.1251
19546W        W35807   6.435   5.308  15.729  0.1227 -0.0911 -0.0114
19547W        W35808   8.016  16.499   5.535  0.0147  0.0658  0.0500
19548W        W35809  15.681   9.597  12.689  0.1426  0.2475 -0.1778
19549W        W35810   0.669  15.239   5.068 -0.0728  0.4528 -0.0297
19550W        W35811  11.053   4.677  13.819  0.0904 -0.2563 -0.0175
19551W        W35812  17.189   4.760  13.468 -0.1387 -0.0871 -0.0777
19552W        W35813  17.664  11.078  15.523 -0.1484  0.1537 -0.2302
19553W        W35814  13.282  14.041  14.804 -0.0067 -0.0712  0.2474
19554W        W35815  15.011   4.936   5.921 -0.0043 -0.1261 -0.1377
19555W        W35816   8.999  13.943   4.591 -0.1519 -0.3637  0.2259
19556W        W35817   9.574  12.933   4.891 -0.1148 -0.0139  0.1471
19557W        W35818  15.483  11.467  12.019 -0.0036 -0.0813  0.2054
19558W        W35819  16.863  16.657   3.085  0.1969  0.2670  0.0311
19559W        W35820   4.639   2.156   1.068 -0.1318 -0.0721 -0.0513
19560W        W35821  12.596  14.218   2.893  0.0572 -0.1136  0.1530
19561W        W35822   5.249   4.020   1.190 -0.2557 -0.2147 -0.0623
19562W        W35823   2.063  16.992   4.602  0.0640 -0.0524  0.0801
19563W        W35824   2.341   9.892  11.738 -0.1393 -0.2707 -0.2599
19564W        W35825   7.442  11.694   2.037 -0.1723 -0.0459  0.2091
19565W        W35826  12.558   3.821  12.396  0.2834  0.0215 -0.1522
19566W        W35827   7.590   8.127  12.711 -0.0928  0.1538  0.1512
19567W        W35828  12.247  18.074  13.054  0.2183 -0.1654  0.2368
19568W        W35829  12.867  14.275  15.337  0.3290 -0.1849  0.0019
19569W        W35830   0.967   1.980   3.415 -0.0901 -0.1475 -0.1440
19570W        W35831   1.833   9.379  14.244 -0.0493  0.0507  0.0613
19571W        W35832   9.208  14.247   2.405  0.0524 -0.0750 -0.0631
19572W        W35833  13.800  14.888   0.277 -0.0328 -0.0652  0.1845
19573W        W35834   5.253  14.439   3.716  0.2108  0.0582  0.1576
19574W        W35835  13.748  13.816   3.930 -0.3215 -0.4301  0.1968
19575W        W35836  13.405   3.710  12.914 -0.0911  0.1367  0.0443
19576W        W35837   6.859   0.679   4.369  0.0228  0.1530  0.2576
19577W        W35838   7.026   9.421   2.240 -0.1541  0.1720  0.1484
19578W        W35839   5.571  16.273   5.718 -0.1106 -0.0639 -0.0568
19579W        W35840   0.386  11.715  12.264  0.1368  0.2066  0.2481
19580W        W35841   1.152  17.821  12.508 -0.2570 -0.0567  0.3393
19581W        W35842  18.100   3.861  12.227  0.2327 -0.1726  0.0734
19582W        W35843   5.351   2.102  15.179 -0.0897  0.0234  0.0038
19583W        W35844   7.697   5.348   5.677  0.0171 -0.0530  0.0609
19584W        W35845  17.014   5.211   3.764 -0.2327 -0.1702 -0.2460
19585W        W35846  11.739   9.950   5.069 -0.3171  0.1799  0.0579
19586W        W35847   3.440  18.007  13.615  0.1081 -0.4427  0.1586
19587W        W35848  14.397   0.904   1.962  0.0441  0.0887 -0.0359
19588W        W35849   5.328   7.235  12.886 -0.0437 -0.2122 -0.0765
19589W        W35850  15.250  16.097  13.754  0.1675 -0.1840  0.2222
19590W        W35851  14.456  11.178  11.331 -0.0400  0.1658 -0.4240
19591W        W35852   8.296  17.221  14.695  0.0727 -0.2427 -0.1589
19592W        W35853  10.356   5.604  11.374  0.0300 -0.1346 -0.0833
19593W        W35854  15.362   4.161  13.865  0.1991 -0.1868  0.0374
19594W        W35855  17.967   4.754  16.370 -0.1161 -0.2178 -0.0276
19595W        W35856   3.359  12.486  13.036  0.0180 -0.5035  0.0612
19596W        W35857  13.526  14.023  15.357  0.0175  0.1946 -0.0314
19597W        W35858  15.396   1.154  11.072  0.0866 -0.0072  0.0717
19598W        W35859   7.394   5.504   0.705 -0.0228 -0.2310 -0.0098
19599W        W35860  11.337  18.148   3.668  0.0657 -0.0517 -0.0312
19600W        W35861   5.609   0.551  12.134  0.2303  0.0433 -0.1831
19601W        W35862  11.657   2.035   0.125  0.0915  0.1260  0.1190
19602W        W35863   4.408  13.749  13.647 -0.2193 -0.2990 -0.0235
19603W        W35864   5.958   8.485  15.403  0.1346 -0.4874 -0.0336
19604W        W35865   3.484   2.465  16.120  0.0527  0.1215  0.0385
19605W        W35866   4.560   7.955  12.685 -0.0438  0.1088 -0.3663
19606W        W35867  15.381  15.921  14.548  0.1506 -0.0097  0.1447
19607W        W35868  10.386  13.773  15.806  0.0194  0.2124 -0.2899
19608W        W35869   7.877  16.016  15.576  0.1163  0.0248 -0.4179
19609W        W35870  16.413   0.654   2.421  0.1512 -0.2332 -0.2173
19610W        W35871   2.864   2.209   0.664  0.0450  0.1113 -0.1267
19611W        W35872  16.754   0.395   1.281 -0.0263 -0.2497 -0.3550
19612W        W35873   3.779  12.080  15.580  0.3276 -0.1316 -0.0250
19613W        W35874  10.433  12.592  15.675 -0.0177  0.3172 -0.1578
19614W        W35875  12.927  17.468  13.701  0.1719  0.4335  0.0219
19615W        W35876   9.244  16.195   0.217 -0.2677 -0.0787  0.2035
19616W        W35877  16.648  12.451  14.993  0.3165 -0.1639  0.1141
19617W        W35878  11.214  15.867   5.067  0.3722 -0.3325 -0.2070
19618W        W35879   6.700   7.904  12.089 -0.0703  0.5140  0.2460
19619W        W35880  10.250   2.653   0.131 -0.0016 -0.5154 -0.0468
19620W        W35881   0.879   5.798  14.683  0.1347 -0.2031 -0.4411
19621W        W35882  16.139  17.312  15.610  0.1138 -0.3207 -0.0350
19622W        W35883   8.271  16.545  11.881  0.0449 -0.1002  0.4224
19623W        W35884   0.894   5.604  14.211 -0.1027 -0.0536  0.1808
19624W        W35885   9.475  17.487   2.198  0.3134 -0.1019  0.0235
19625W        W35886  11.350   7.880   0.398 -0.1445  0.1137  0.3321
19626W        W35887   6.108   6.529  11.491  0.0945 -0.3119 -0.1101
19627W        W35888  17.238   7.437   1.603  0.1861  0.1062 -0.1898
19628W        W35889  12.865   0.803   5.257 -0.2931 -0.2691  0.0894
19629W        W35890  11.579   8.598  10.822  0.0265 -0.0795  0.0519
19630W        W35891  16.293  14.622  15.193 -0.1615  0.0946  0.5062
19631W        W35892   7.624   3.714  12.519  0.0509  0.0256  0.2058
19632W        W35893  15.509   2.162   1.769 -0.0896  0.0821  0.3551
19633W        W35894   0.875   4.217  13.359  0.0282 -0.3191 -0.1308
19634W        W35895  15.448  14.278  13.841  0.1017 -0.1239 -0.1016
19635W        W35896  13.009  10.695  14.612 -0.0506  0.0980  0.0393
19636W        W35897  14.608   3.740  15.288  0.0994 -0.0826  0.2071
19637W        W35898   5.170  11.018  12.949  0.1964 -0.1304  0.2290
19638W        W35899  16.986   2.486   6.303 -0.1962 -0.2301  0.0723
19639W        W35900  12.360   9.291   0.259 -0.1519  0.0581  0.2532
19640W        W35901   4.454   8.582   2.329  0.0775  0.0470 -0.3848
19641W        W35902   5.619   2.066   5.605 -0.3190 -0.1448 -0.1421
19642W        W35903  10.163  11.859  15.297  0.0236  0.0207 -0.0506
19643W        W35904   5.245  17.968   4.722  0.3288  0.1872  0.1907
19644W        W35905   2.512   3.504   2.938  0.0477 -0.2766 -0.0843
19645W        W35906   1.911   1.903   4.131  0.2815 -0.1347 -0.1649
19646W        W35907   5.795   6.400  15.372  0.0085  0.0408 -0.3315
19647W        W35908   0.906   4.663  13.641  0.0194 -0.3767 -0.2896
19648W        W35909   5.850   1.540  11.429 -0.4249  0.0465  0.1773
19649W        W35910  17.210   5.712   4.035 -0.0585  0.0412  0.0130
19650W        W35911   6.928   7.133   1.163  0.1462 -0.2645  0.0643
19651W        W35912   6.751   0.213  12.821 -0.0492  0.0877 -0.0039
19652W        W35913  16.568   4.960  14.614  0.2646  0.1100  0.1701
19653W        W35914   9.722   7.760   1.010  0.0180  0.1076 -0.0729
19654W        W35915   0.872   3.655   6.444  0.0934 -0.0136 -0.1420
19655W        W35916   7.729   3.349   1.372 -0.2204 -0.2723  0.1643
19656W        W35917   2.053  15.014  16.497 -0.2069 -0.0449  0.0629
19657W        W35918  16.512  15.063   2.713  0.2692  0.0818  0.1630
19658W        W35919  17.374  17.037  12.271  0.0079  0.0373  0.1545
19659W        W35920   8.285  12.777   5.156 -0.1303  0.0716  0.2985
19660W        W35921  14.717   3.812   4.796 -0.0027 -0.1811 -0.0730
19661W        W35922   7.071   5.542  14.410  0.2039 -0.3968  0.0552
19662W        W35923   5.426  12.738   1.340 -0.1965 -0.0649  0.2060
19663W        W35924   0.931   5.134   5.822 -0.1247 -0.0496 -0.0140
19664W        W35925  15.164   4.750   0.171 -0.2066  0.0863 -0.0295
19665W        W35926   9.341   8.088   0.220 -0.0287  0.0786  0.3580
19666W        W35927   1.576  10.326  11.986  0.0280 -0.0850 -0.2873
19667W        W35928   6.471  10.503  11.193 -0.2484 -0.0511 -0.4588
19668W        W35929   4.217  14.892   1.358 -0.2502  0.3511  0.2292
19669W        W35930  10.132  13.696   1.763  0.2544 -0.0609 -0.2488
19670W        W35931  12.008   9.629   4.807  0.2181 -0.1374 -0.0956
19671W        W35932   9.978   4.892   5.410 -0.2175  0.0233  0.3256
19672W        W35933   2.244  11.565   1.445 -0.2030  0.3676  0.1732
19673W        W35934   7.800  12.623   4.844  0.4648 -0.0335  0.3191
19674W        W35935  12.027   1.744  16.052  0.0474  0.0298  0.1295
19675W        W35936   5.669  15.045  11.937 -0.1436 -0.2204 -0.0381
19676W        W35937   7.427   2.595  13.324  0.0107 -0.2520  0.1574
19677W        W35938  17.892  16.836   2.555  0.4118 -0.3174 -0.1268
19678W        W35939   9.385   9.051  11.819  0.1316  0.5030 -0.1241
19679W        W35940  15.900   5.199  16.216  0.1222 -0.1425 -0.3993
19680W        W35941  15.107  15.781   1.209 -0.0800 -0.2468 -0.0963
19681W        W35942   2.903   1.738  15.642 -0.2605  0.1983 -0.0841
19682W        W35943   5.671  16.701   3.551 -0.2570  0.0022  0.1035
19683W        W35944   2.225   7.919   4.723 -0.2573 -0.0477  0.3334
19684W        W35945  15.889   9.005   2.658 -0.2336 -0.0013 -0.6187
19685W        W35946  15.472   8.840   0.888 -0.1383  0.3037  0.1427
19686W        W35947   4.209   6.892   1.682  0.2317 -0.2217 -0.0480
19687W        W35948  12.264  11.398   2.446 -0.3088  0.0202  0.1314
19688W        W35949   1.606  15.301   3.433  0.1689 -0.0109 -0.1070
19689W        W35950   0.396  11.498   4.654 -0.2828 -0.2680  0.1650
19690W        W35951  15.845   1.934   4.553 -0.1554  0.1227  0.2208
19691W        W35952  15.473  18.186   3.971  0.0494 -0.2474 -0.0171
19692W        W35953  17.412  12.867   5.062  0.0016 -0.2512 -0.1266
19693W        W35954  17.713  16.135  14.816 -0.0182 -0.2100  0.0794
19694W        W35955  11.343   7.462  13.816  0.4202  0.0835 -0.1052
19695W        W35956   9.991   1.200   3.016 -0.0893  0.1391 -0.1616
19696W        W35957   9.293  17.604   0.653  0.1324  0.0454  0.1114
19697W        W35958   1.095   7.968   5.411 -0.1607 -0.2093  0.1532
19698W        W35959   7.982   9.153   5.485  0.0680 -0.1959 -0.2790
19699W        W35960  17.648   0.549  13.205 -0.3886 -0.1094  0.2429
19700W        W35961  10.397  17.286   2.256 -0.1735 -0.0188 -0.2362
19701W        W35962   7.310  11.906   4.314 -0.0966 -0.0029 -0.5067
19702W        W35963   8.809  14.102  16.035  0.0648  0.2039  0.1129
19703W        W35964   3.319  11.963   4.992  0.5257  0.1217 -0.1874
19704W        W35965  14.344   7.803   4.319  0.0895 -0.4856 -0.0105
19705W        W35966  17.353  13.204  11.497 -0.0034  0.0776 -0.1328
19706W        W35967  11.614   3.831  15.209 -0.1121  0.2586 -0.0505
19707W        W35968   0.472   3.499  16.350 -0.3103 -0.3173  0.1651
19708W        W35969  17.021   6.802  15.735  0.0906 -0.1940  0.0346
19709W        W35970   3.244   7.121   2.019  0.1234  0.1193  0.2638
19710W        W35971   7.163  16.826   0.272 -0.1324  0.0445  0.2206
19711W        W35972  15.240   7.087   5.636  0.0467 -0.0744  0.0201
19712W        W35973   4.575   9.091  13.261  0.0509  0.2137  0.0184
19713W        W35974  12.288   3.402   0.012 -0.2027 -0.2036  0.1157
19714W        W35975  13.932   8.051  14.151  0.3773  0.0935 -0.1134
19715W        W35976   0.842  16.692  11.918 -0.0859  0.1696 -0.0389
19716W        W35977   5.349  15.689   2.525 -0.0908  0.1078  0.0447
19717W        W35978   2.938  16.316  16.642 -0.0453  0.1564 -0.0102
19718W        W35979   2.882  13.548   4.350  0.0331  0.0025 -0.0578
19719W        W35980  10.393   0.854  16.146 -0.0960  0.1980 -0.1363
19720W        W35981  12.909   9.696   3.228 -0.0351 -0.1032 -0.0834
19721W        W35982  13.461  14.828  12.823  0.6694 -0.0246 -0.2070
19722W        W35983   7.137  11.516   0.113 -0.0676 -0.1968 -0.0216
19723W        W35984   5.015   6.312  13.338 -0.3529 -0.2957 -0.0201
19724W        W35985  13.183   9.681   5.028 -0.2731 -0.1252  0.1410
19725W        W35986   0.317  14.166   5.651 -0.0177 -0.0402 -0.4520
19726W        W35987  14.119  10.878   3.468  0.0389  0.1449  0.1445
19727W        W35988  15.411  14.097  14.777  0.0746  0.1355  0.1587
19728W        W35989   8.154   0.056   1.917  0.0874  0.2817 -0.0250
19729W        W35990  18.146  10.442  14.185  0.0129 -0.1870 -0.2477
19730W        W35991  15.661   1.899  13.131 -0.1263  0.4011  0.1146
19731W        W35992   5.897   6.903  12.056  0.0902 -0.4107  0.1472
19732W        W35993  13.758   3.848  16.468  0.0375  0.0403 -0.3075
19733W        W35994   7.480   8.099   5.790  0.1529 -0.0939  0.3758
19734W        W35995   3.544   1.392   4.907 -0.0707 -0.2011 -0.0207
19735W        W35996   3.835  14.485  13.271  0.0966 -0.1419 -0.3412
19736W        W35997  17.486  17.870  14.673 -0.0678 -0.0023  0.0643
19737W        W35998   7.990  10.963   0.892 -0.1669  0.0602 -0.0238
19738W        W35999   8.367  11.338  14.420 -0.0278  0.1759  0.3442
19739W        W36000   0.715   5.516  12.696 -0.0549 -0.0064 -0.2715
19740W        W36001   1.958  14.025   2.875  0.1121 -0.0162  0.0169
19741W        W36002  10.413  13.727   0.270  0.1791 -0.3238  0.1481
19742W        W36003  10.250  12.475   0.320  0.0410  0.1157  0.4499
19743W        W36004   0.680   9.214   0.819 -0.1691 -0.1327  0.0431
19744W        W36005   8.442  14.210   0.251 -0.1053  0.0375  0.1878
19745W        W36006   0.006  14.342   0.856 -0.1976 -0.1232 -0.2276
19746W        W36007   3.192   8.600   2.882 -0.1058  0.1906 -0.0338
19747W        W36008  15.603  10.414  12.087 -0.0130  0.1306  0.2445
19748W        W36009  13.464   9.318  16.511 -0.2816  0.2034 -0.0238
19749W        W36010  18.065   8.370   1.451 -0.0244 -0.0507  0.1393
19750W        W36011   1.967  13.515   2.118  0.0610 -0.2259 -0.0818
19751W        W36012   6.767  16.786  15.622  0.2237  0.0868 -0.0466
19752W        W36013   1.028  17.944   2.740  0.0288  0.2185  0.0010
19753W        W36014  18.166  15.948   4.026  0.1887  0.1141 -0.0715
19754W        W36015   0.864   1.748   3.828 -0.0047 -0.1439  0.1948
19755W        W36016   3.737  17.728   3.715 -0.2112 -0.0310 -0.1730
19756W        W36017   3.575   7.415   3.814 -0.1638  0.2442 -0.1664
19757W        W36018  12.338   2.695  15.828  0.1678 -0.0381  0.0107
19758W        W36019   3.341   2.151  15.343  0.2853  0.1427 -0.0797
19759W        W36020   3.832   6.623  13.795  0.0386 -0.1443  0.4145
19760W        W36021   8.573  16.246   2.466 -0.3596 -0.0119 -0.0777
19761W        W36022   7.969  10.575  11.603  0.1185  0.0572 -0.2591
19762W        W36023  15.802  16.088  10.960 -0.1807  0.1267 -0.0416
19763W        W36024  10.273   5.289  10.575  0.0515  0.2613 -0.4312
19764W        W36025  14.204  17.489   0.920  0.0407 -0.0375  0.3010
19765W        W36026  11.632  13.155   3.202  0.1355 -0.1730 -0.0674
19766W        W36027   0.180   4.548  14.779  0.1829  0.0804  0.1141
19767W        W36028   1.019   7.665  14.250  0.1875  0.0685 -0.0753
19768W        W36029   0.864  13.347  12.620 -0.2411  0.3298 -0.0918
19769W        W36030   8.031  14.821  16.333  0.1543  0.3133  0.2757
19770W        W36031   3.877  10.675  15.294 -0.0107  0.1487  0.0522
19771W        W36032  10.233  13.080  13.407  0.0635 -0.0748 -0.2000
19772W        W36033   4.587   1.038   3.751 -0.1333  0.1544  0.0708
19773W        W36034   4.048  14.868  12.446 -0.0005  0.1205  0.1457
19774W        W36035   5.910  14.999   4.143 -0.2647 -0.2153 -0.0559
19775W        W36036   2.646  10.054  14.885 -0.0227 -0.3279 -0.2818
19776W        W36037   4.716   0.044   6.605 -0.1280  0.4715  0.1592
19777W        W36038   9.536   0.360   4.115 -0.2906  0.0794 -0.0576
19778W        W36039   3.723  17.837  11.514  0.1678  0.1739 -0.0801
19779W        W36040  13.673  11.065   3.509 -0.1297 -0.0343  0.0225
19780W        W36041   0.837   1.495   4.709  0.0527 -0.0909 -0.1090
19781W        W36042  12.997   3.371  13.681  0.0406  0.1090 -0.0124
19782W        W36043   2.325  12.977  13.805  0.2752 -0.3225  0.0403
19783W        W36044   7.240  17.971  12.326  0.1609  0.0028 -0.1105
19784W        W36045   5.235   7.785  13.847  0.2452 -0.0892  0.2669
19785W        W36046  11.111  15.314   1.107 -0.0769  0.1885 -0.0018
19786W        W36047   7.799  18.113  13.677  0.1233 -0.0876  0.0912
19787W        W36048  11.304   9.216  15.517 -0.0389 -0.0628  0.4380
19788W        W36049   8.814  15.320  12.166  0.0946 -0.1434 -0.2487
19789W        W36050   2.207   5.506  11.778 -0.1516  0.0898 -0.0407
19790W        W36051  13.684  17.616   2.144 -0.1021 -0.0440 -0.5013
19791W        W36052   0.326   5.097  12.411 -0.0018  0.1702  0.2035
19792W        W36053  14.926  16.319   5.487 -0.0023  0.2837 -0.1805
19793W        W36054   6.597   4.893  14.012 -0.2135 -0.0230 -0.1434
19794W        W36055   3.588   1.255  11.828  0.1809  0.2288  0.1257
19795W        W36056   0.281  12.797  12.752 -0.2181  0.3205 -0.1007
19796W        W36057  14.058   9.258  12.612  0.1620  0.1088  0.2132
19797W        W36058   4.437  11.193   4.948  0.0848 -0.2295  0.2873
19798W        W36059   4.842  15.337  12.413 -0.1896 -0.0447  0.1382
19799W        W36060   6.209   4.002   0.938  0.2877 -0.1004 -0.0144
19800W        W36061   2.204  10.631   0.938 -0.2867 -0.0095  0.1218
19801W        W36062   2.901   5.427   5.287  0.1864 -0.1819 -0.2106
19802W        W36063   1.487  15.632   4.574 -0.0793  0.2527  0.2865
19803W        W36064  12.172  16.498  13.873 -0.0921  0.1127  0.0387
19804W        W36065  12.001  10.626  13.650  0.0305 -0.1742 -0.2352
19805W        W36066   1.137  12.568   5.906  0.0331  0.2172  0.0108
19806W        W36067  12.614   7.549  11.862  0.1169  0.1521 -0.0418
19807W        W36068  11.719  10.151   1.240 -0.0885 -0.2418 -0.2586
19808W        W36069   6.289  15.687  14.655  0.0104 -0.2224 -0.0289
19809W        W36070  10.264   1.884  12.908 -0.0265  0.1245 -0.0107
19810W        W36071   6.672   0.589   3.779 -0.0971 -0.0592 -0.4484
19811W        W36072  11.691   0.806   5.786 -0.4856 -0.1978  0.2496
19812W        W36073  10.148   7.825   5.888 -0.2319  0.0021  0.4393
19813W        W36074   3.024   1.660  16.158  0.3236  0.2077  0.1714
19814W        W36075   8.158  14.055   5.875  0.0979 -0.0194 -0.1264
19815W        W36076  15.672   3.298   1.110  0.1875 -0.1306 -0.2660
19816W        W36077   2.777   2.947   2.156 -0.3558  0.0263  0.1389
19817W        W36078   6.655  10.782  12.541  0.1171  0.2683 -0.2769
19818W        W36079  16.529   5.117   3.892 -0.1019 -0.0341  0.0764
19819W        W36080   9.755   5.724  16.429 -0.0475 -0.0660 -0.2472
19820W        W36081   3.154   5.328  16.283 -0.2607  0.0986  0.1037
19821W        W36082   8.104  12.072   3.292  0.1719 -0.1010  0.0922
19822W        W36083   4.895   1.689   5.958 -0.3399 -0.2611 -0.1008
19823W        W36084   2.850  16.927  13.389  0.2281  0.1478  0.2334
19824W        W36085   0.252  17.449  13.974 -0.0446 -0.0074 -0.0677
19825W        W36086   5.771   0.583   1.800  0.0547 -0.2409 -0.1010
19826W        W36087   0.378  17.817  12.622 -0.1012  0.0795 -0.3540
19827W        W36088  16.408   2.773  12.143  0.2595  0.2221 -0.3623
19828W        W36089   9.408   2.667  12.232 -0.2792  0.1657  0.4538
19829W        W36090  11.312  15.209  10.570  0.1053  0.1463 -0.0574
19830W        W36091  12.307   9.327  15.711  0.0555 -0.0519  0.1306
19831W        W36092   5.625  15.329  15.310  0.0271 -0.3531  0.0092
19832W        W36093  17.827   1.150  15.538 -0.1934  0.1469 -0.1412
19833W        W36094  13.606  16.265  14.530 -0.1321  0.0306  0.0543
19834W        W36095   5.642   1.426   5.157 -0.4521 -0.1200 -0.0065
19835W        W36096   0.394   9.067   0.141 -0.0895  0.0493 -0.2777
19836W        W36097   6.172   8.034  15.321 -0.1462  0.0127  0.1035
19837W        W36098  16.621  15.338  16.222  0.2458  0.1688 -0.1295
19838W        W36099   2.312  14.524   5.038 -0.2137 -0.2267  0.0798
19839W        W36100  11.793   3.937  11.881  0.4316  0.1080 -0.0674
19840W        W36101   3.066   6.607  10.843 -0.0508 -0.1725  0.1733
19841W        W36102  11.421  12.607  16.132  0.1079  0.0624  0.1887
19842W        W36103   6.324  11.725  14.194  0.2457  0.0632 -0.1950
19843W        W36104   5.400   9.222  14.211  0.0204 -0.0285  0.1236
19844W        W36105   5.734  10.216   0.649  0.0591  0.1475 -0.0124
19845W        W36106   1.796  10.617   5.278 -0.0838 -0.0034 -0.1408
19846W        W36107   9.994   4.291   4.590  0.3622 -0.0015 -0.0520
19847W        W36108   1.606   5.567  12.146  0.4722 -0.2639 -0.1386
19848W        W36109   0.374  13.979   3.932  0.0565  0.2128 -0.1337
19849W        W36110  17.727  15.379   3.557  0.0878  0.2508 -0.0297
19850W        W36111  14.787   1.344  12.805  0.0965  0.0406  0.0158
19851W        W36112   7.097  12.217  11.076  0.0383 -0.1762  0.3826
19852W        W36113   2.208   6.213   5.177  0.0289  0.1415  0.4125
19853W        W36114  11.585  11.264  13.872  0.1665 -0.0483 -0.2226
19854W        W36115   2.921   7.523   2.162  0.0990  0.0336 -0.1999
19855W        W36116  15.106  11.177   5.896  0.0641  0.1840  0.0335
19856W        W36117  13.570   9.239  12.166  0.0575 -0.1834  0.0276
19857W        W36118  14.328   0.543   2.326  0.0510  0.1571 -0.2134
19858W        W36119   2.782  11.110  14.732  0.0379 -0.0420  0.3292
19859W        W36120   7.758   5.094  15.845  0.2774  0.0302 -0.4021
19860W        W36121   7.467   0.833  15.559  0.0002  0.1093  0.0393
19861W        W36122  17.775   8.491   1.836 -0.0269 -0.1317  0.0625
19862W        W36123  16.804   5.686   1.240  0.1072 -0.0130 -0.3133
19863W        W36124  14.989   3.083   3.733  0.1231  0.3878 -0.2113
19864W        W36125  14.040   0.051  15.897 -0.1306 -0.0082 -0.1447
19865W        W36126   9.297  13.198   2.829 -0.0035 -0.1270  0.3381
19866W        W36127   0.388   3.748  11.910 -0.0187  0.1447 -0.3500
19867W        W36128  14.432   2.399   3.898  0.1332 -0.1445 -0.2265
19868W        W36129  14.090  10.074   5.446 -0.1022  0.0597  0.1810
19869W        W36130   9.508   3.383  13.367 -0.0044 -0.2920  0.0112
19870W        W36131   0.133   0.861   5.214  0.1562  0.0927  0.0575
19871W        W36132  13.438  11.161   2.694 -0.0898 -0.1509  0.1949
19872W        W36133  16.599   4.337  14.953  0.2310 -0.2999  0.1171
19873W        W36134   5.789  16.090  13.974 -0.0150 -0.0786 -0.0190
19874W        W36135  13.082   7.572   0.366 -0.1706  0.1007  0.1616
19875W        W36136   9.146   9.241  15.799  0.0434  0.1992 -0.3017
19876W        W36137  17.069   8.228  15.144 -0.4465 -0.1246  0.1138
19877W        W36138  13.945   2.732  15.372  0.2112 -0.0534 -0.0259
19878W        W36139   3.778  12.624   3.631  0.2369 -0.0479  0.1099
19879W        W36140  16.038  18.127  13.997 -0.1866  0.6154 -0.2182
19880W        W36141   3.113   1.515   0.011  0.1318  0.1719 -0.2403
19881W        W36142  15.065   9.537   2.428  0.0629  0.0212  0.0702
19882W        W36143   8.586   3.814  13.328  0.0150 -0.3051  0.0556
19883W        W36144  13.116   1.103   1.452 -0.0775  0.0581 -0.1584
19884W        W36145   4.312   3.549  12.605 -0.2041 -0.0715  0.0658
19885W        W36146   3.856  17.574  14.148 -0.0824 -0.0421 -0.4207
19886W        W36147   6.197  16.083   4.189 -0.0471  0.1750  0.1558
19887W        W36148   6.154   4.071  13.781 -0.3214 -0.2320 -0.2591
19888W        W36149   2.582  16.636  13.078 -0.2154  0.0723 -0.2184
19889W        W36150   4.220  11.831   1.499  0.0104  0.3784 -0.2478
19890W        W36151  11.151   6.013   3.435  0.0723  0.1001 -0.2037
19891W        W36152  11.309   2.023   4.613 -0.1297  0.1795  0.1873
19892W        W36153   2.990   4.999   5.530  0.1940  0.2198 -0.0409
19893W        W36154  16.850   4.804   1.340 -0.0294 -0.0590  0.0934
19894W        W36155   2.472  11.136   2.311  0.3447  0.2604  0.3911
19895W        W36156  17.249   2.725   1.679  0.0477  0.0283 -0.2310
19896W        W36157  18.020   9.145   5.754 -0.0171 -0.3165 -0.0688
19897W        W36158  15.906   1.766   3.114 -0.0194  0.1883  0.0206
19898W        W36159  13.810  16.402  13.536 -0.0042 -0.2138 -0.1132
19899W        W36160   7.770   6.122  14.030 -0.1503  0.1042 -0.1941
19900W        W36161  10.204  16.052  14.279 -0.1196 -0.0260  0.1689
19901W        W36162   9.291   2.043   1.426 -0.0269 -0.1967 -0.1674
19902W        W36163   3.204  15.411   2.499 -0.0412  0.2173  0.0254
19903W        W36164   2.181   0.778  16.256  0.1288 -0.0313  0.1300
19904W        W36165   9.464   8.389   3.882 -0.0034  0.3197 -0.3401
19905W        W36166  18.162   7.660  15.683 -0.2625  0.0254  0.0482
19906W        W36167   6.217   6.459  14.596 -0.1466  0.0752 -0.0406
19907W        W36168   5.715  18.085  15.731  0.2404  0.2246 -0.3158
19908W        W36169   1.224  12.414  13.874  0.2302 -0.0746  0.1047
19909W        W36170  14.085   4.303  12.739 -0.2168 -0.3327 -0.0508
19910W        W36171  16.718   3.241  14.528  0.0734  0.1527 -0.1989
19911W        W36172  13.687  12.281  14.298 -0.0844 -0.0428 -0.2736
19912W        W36173  14.790  15.599   4.309  0.0687  0.1125  0.0005
19913W        W36174   6.264  10.434  15.716 -0.2023 -0.2248 -0.2343
19914W        W36175   0.954  15.603   2.017  0.3208 -0.2899  0.3188
19915W        W36176  12.186   4.256   2.596 -0.2098 -0.0102 -0.0921
19916W        W36177   3.703  17.512  15.556  0.2416 -0.0201 -0.0318
19917W        W36178   7.891   3.224  16.250 -0.1176 -0.0160  0.0038
19918W        W36179  14.017   0.047  13.789  0.1506 -0.1463 -0.2565
19919W        W36180   6.819   8.565   1.136 -0.1052  0.2156 -0.0752
19920W        W36181   0.678  17.895   1.355  0.0807 -0.2263  0.3668
19921W        W36182   0.536  18.026  15.977  0.0193 -0.0681 -0.1073
19922W        W36183  16.828   9.343  15.496 -0.2068  0.1514  0.0260
19923W        W36184   1.131   6.401   5.139 -0.4491 -0.0965 -0.0719
19924W        W36185  17.923   6.903  16.373 -0.0889  0.2756  0.0950
19925W        W36186  12.676  17.624  14.200 -0.1822 -0.0782  0.1480
19926W        W36187  15.138   3.271  13.338 -0.0504 -0.1576 -0.0976
19927W        W36188  10.683  12.265   0.237  0.1617  0.2851  0.0797
19928W        W36189  12.826  15.686  12.771 -0.2807 -0.0181 -0.0145
19929W        W36190  12.807  12.407  12.324 -0.0095 -0.2651  0.1252
19930W        W36191   5.464  10.408  13.472  0.1013 -0.1351 -0.1762
19931W        W36192   4.176   8.444  15.911 -0.2622  0.2121 -0.0114
19932W        W36193   5.201   1.115  13.181 -0.2786  0.0320 -0.1283
19933W        W36194  11.437  14.063  12.565  0.0349 -0.1373 -0.0466
19934W        W36195  13.250  16.690   4.039 -0.1857  0.1256 -0.0424
19935W        W36196  14.201  12.932  11.659  0.0987 -0.1831 -0.0292
19936W        W36197  12.655  15.587   5.280  0.1881  0.0807 -0.1095
19937W        W36198  14.492   2.332  11.580 -0.2138 -0.2012 -0.0604
19938W        W36199   8.683   1.925  15.299 -0.2902 -0.1313  0.1004
19939W        W36200  18.141   0.443  14.892  0.0355 -0.1007  0.3163
19940W        W36201   5.968   2.068  16.031  0.3129 -0.0824  0.2887
19941W        W36202  11.268  11.599  12.523 -0.1129  0.0592 -0.1536
19942W        W36203  16.323  11.915   4.018  0.0178  0.3003  0.0666
19943W        W36204  12.302  12.278   5.511 -0.4394 -0.0832 -0.2028
19944W        W36205   1.586   4.783  14.708  0.2189 -0.1057  0.0666
19945W        W36206   8.832  10.889   1.699  0.0428  0.1614 -0.1576
19946W        W36207  13.733   7.507   3.834  0.1049  0.4900 -0.0067
19947W        W36208  10.253  16.346   1.514 -0.0489 -0.2553 -0.0827
19948W        W36209   3.343   7.621   2.417  0.0041  0.4083  0.1423
19949W        W36210   6.275  14.216   2.264  0.0942  0.0515 -0.2049
19950W        W36211   1.257   2.277   3.674  0.0223 -0.0666 -0.2152
19951W        W36212  18.013  17.812   1.750 -0.2657 -0.1567 -0.0738
19952W        W36213   8.087  10.055  16.222 -0.2648 -0.0921 -0.1343
19953W        W36214  14.317   4.801  11.880 -0.1701  0.2980 -0.0375
19954W        W36215   1.064   6.555  15.968  0.0211 -0.1800  0.3806
19955W        W36216  16.770  14.003   1.433 -0.0376 -0.0320 -0.2156
19956W        W36217  14.932  10.164  11.096  0.2486 -0.1768 -0.4282
19957W        W36218   1.405   2.555   5.724 -0.0828  0.1415 -0.3496
19958W        W36219  12.120   3.135  15.807  0.2496  0.0561  0.0745
19959W        W36220  14.838  18.031  16.267 -0.0469 -0.0441 -0.0396
19960W        W36221   9.298   0.267   0.149  0.0171  0.3908 -0.1525
19961W        W36222   6.978   5.806   2.424 -0.0881  0.4041  0.2963
19962W        W36223  17.278  15.742  12.103 -0.1539 -0.1801  0.0433
19963W        W36224  11.397   8.388  13.974 -0.3176 -0.0343 -0.0483
19964W        W36225  13.435  13.211   3.333 -0.2163 -0.3550  0.2097
19965W        W36226  16.305   0.957  12.973  0.1566 -0.0041  0.1153
19966W        W36227   7.260  18.166  15.390  0.0143 -0.0599  0.2224
19967W        W36228   5.590   3.585   4.338  0.2578  0.3111 -0.0579
19968W        W36229   1.011  17.034   4.713 -0.3428  0.2354  0.2289
19969W        W36230   1.394  10.772  13.763 -0.0319 -0.2660  0.2510
19970W        W36231   1.456  17.389   3.379 -0.4358 -0.0243 -0.0223
19971W        W36232   0.916   9.502  16.025  0.3111 -0.0416  0.1228
19972W        W36233  14.971  12.595  13.491  0.1127  0.0414  0.0229
19973W        W36234   5.576  13.992   4.787  0.0559 -0.0243 -0.1218
19974W        W36235   2.077   1.675  16.371 -0.3731 -0.2275  0.0234
19975W        W36236   8.161  11.787   0.620  0.2373  0.1209 -0.0203
19976W        W36237   8.045  16.077  11.696  0.0547  0.0076 -0.0468
19977W        W36238  16.263   4.742  11.540 -0.1009 -0.0106 -0.1383
19978W        W36239   4.136  16.670  13.706  0.1148 -0.1386 -0.1928
19979W        W36240   9.211   8.683   2.318 -0.1009 -0.2060 -0.3731
19980W        W36241   8.407  17.496  11.896 -0.2161  0.0210 -0.2057
19981W        W36242  12.131   5.366   5.843  0.0381 -0.0056 -0.2126
19982W        W36243   4.125   8.882   2.836  0.1640  0.2680 -0.0635
19983W        W36244  17.926   8.928   2.696  0.0355 -0.2969 -0.1940
19984W        W36245  10.475  16.990   3.050  0.0509 -0.0724  0.0127
19985W        W36246   1.974  17.124  13.128  0.1399  0.5669 -0.0396
19986W        W36247   8.321   0.166  11.216  0.2579 -0.2912 -0.0507
19987W        W36248  16.221  14.102  13.731  0.1924  0.0017  0.0201
19988W        W36249   9.445   7.896   3.012  0.2892 -0.0917 -0.3035
19989W        W36250   0.400   3.003   4.852 -0.0435  0.0484  0.2778
19990W        W36251  10.380  16.207   4.981  0.0466  0.0626 -0.1337
19991W        W36252   2.030  13.189   1.307 -0.0146 -0.1075  0.1348
19992W        W36253   3.202   9.134   0.667  0.0679 -0.1270  0.2899
19993W        W36254   6.497  12.084   3.742 -0.3259  0.0042 -0.1770
19994W        W36255   3.276   2.414   4.353  0.2846 -0.0123 -0.0835
19995W        W36256  16.679  13.851  10.959  0.0289  0.0747  0.1579
19996W        W36257  16.545   3.656  14.180 -0.0488 -0.0448  0.0601
19997W        W36258   8.136   3.418  15.543 -0.1657 -0.2723  0.0079
19998W        W36259   8.625   8.074   5.131 -0.2320  0.1732 -0.1743
19999W        W36260  15.908   4.923   2.369  0.1024  0.2786  0.1096
20000W        W36261  16.695  12.622   4.253  0.0303  0.0707 -0.2056
20001W        W36262   9.129   8.792   3.207 -0.2263 -0.0729 -0.1986
20002W        W36263  17.450   5.122  15.798 -0.0878 -0.5292 -0.2635
20003W        W36264  15.768   7.097   2.248 -0.2015  0.0151  0.0620
20004W        W36265  12.075   0.602  16.015 -0.4999  0.0822  0.1197
20005W        W36266   4.829  13.416   4.997 -0.2843  0.4427  0.1594
20006W        W36267  17.411   0.458   3.739 -0.1013 -0.2175 -0.2692
20007W        W36268   5.119   2.579   1.825  0.1259  0.1512  0.1102
20008W        W36269  16.886   2.325  12.195 -0.3541  0.4472 -0.0989
20009W        W36270   4.375   6.465   2.496 -0.0833 -0.2880  0.1829
20010W        W36271  15.188   5.740  12.299 -0.0177 -0.3517 -0.2398
20011W        W36272  12.284   7.408  15.642  0.1607 -0.2284 -0.1104
20012W        W36273   9.944  16.630   4.794  0.1099 -0.4059 -0.2164
20013W        W36274   7.356   2.114   0.411 -0.0845  0.2483  0.0212
20014W        W36275   3.279   2.086   1.537  0.1129 -0.0211  0.0171
20015W        W36276  15.605  15.272   2.938  0.1604  0.3269  0.0632
20016W        W36277   3.817  12.020  16.501 -0.5119 -0.1104  0.0817
20017W        W36278   8.432  17.796  11.487  0.0135  0.1021 -0.0936
20018W        W36279   2.597   5.317   1.616 -0.0477 -0.1599 -0.0032
20019W        W36280  10.687   5.404  13.464  0.0312 -0.3018  0.2720
20020W        W36281   5.485   2.639  12.361 -0.2974  0.5131  0.1898
20021W        W36282   3.559   1.177  15.411  0.3653 -0.0200 -0.2179
20022W        W36283  13.080   2.102   4.629 -0.0786  0.2070  0.1288
20023W        W36284   0.710   8.262  16.558  0.0181  0.1994  0.0064
20024W        W36285   9.684  14.806   1.711  0.2076  0.0470 -0.2759
20025W        W36286  12.091   2.557  11.590 -0.2445 -0.0286 -0.0684
20026W        W36287  12.856  11.474   1.008  0.2565 -0.0346  0.1070
20027W        W36288   0.549  14.541  14.999  0.3034  0.1119 -0.0863
20028W        W36289  15.285  17.936   1.146 -0.1128 -0.0721  0.1789
20029W        W36290  14.280  15.538  14.406 -0.2485 -0.1407 -0.2378
20030W        W36291  17.835  13.174   5.143  0.1545  0.2136 -0.0988
20031W        W36292   5.005  11.947  14.447  0.4371 -0.0020 -0.3694
20032W        W36293  15.453  14.951  13.310  0.0521 -0.0149 -0.4861
20033W        W36294   3.775   7.984  15.729  0.1645  0.0134 -0.6280
20034W        W36295   1.674   8.454  13.210  0.0633 -0.0527 -0.0080
20035W        W36296   4.346  14.013   4.478 -0.4128  0.2612 -0.4637
20036W        W36297   2.616   7.063  14.360  0.1831 -0.0760 -0.2219
20037W        W36298   2.435   9.326   1.764  0.0178 -0.0407  0.1131
20038W        W36299   5.661  10.613  14.795 -0.0299  0.0116  0.1705
20039W        W36300   9.382   7.006  11.569  0.1260  0.3459 -0.0300
20040W        W36301  13.797   5.710   1.389 -0.2614 -0.2296 -0.0771
20041W        W36302   1.074  17.878   0.902  0.0802  0.0972  0.1050
20042W        W36303   0.370  10.491   0.861  0.1085  0.0364 -0.2456
20043W        W36304  16.357   0.654   0.682  0.2215 -0.0595 -0.1520
20044W        W36305   1.814   7.229   5.521 -0.1140  0.0455 -0.2106
20045W        W36306  10.007   4.004   1.106 -0.1405 -0.1160 -0.1077
20046W        W36307   1.812  17.097  12.679  0.0303  0.2447  0.0114
20047W        W36308   8.944  17.254  13.775  0.0159  0.2117 -0.1706
20048W        W36309   8.741   7.165  12.987  0.1523  0.4624 -0.0424
20049W        W36310  11.257   0.404   4.852 -0.0099  0.0640  0.0069
20050W        W36311   7.479  15.241   1.164  0.2504  0.0183 -0.4067
20051W        W36312   8.985  15.969  13.461 -0.1066 -0.1245 -0.2361
20052W        W36313  16.822   3.775   0.632  0.0803 -0.0722 -0.3595
20053W        W36314  17.724   2.109   4.172  0.1903  0.1152  0.0463
20054W        W36315  14.864  14.657   5.630  0.0406 -0.0864 -0.1030
20055W        W36316  14.521   1.600   5.134 -0.0622 -0.1432  0.0579
20056W        W36317   7.245  15.272  12.505  0.2249 -0.0717  0.2656
20057W        W36318   2.782   0.345   5.687 -0.2179 -0.1625 -0.1114
20058W        W36319   6.384   9.412  12.524 -0.1120 -0.0345  0.1795
20059W        W36320   8.254  13.240   3.668 -0.1395 -0.3661 -0.2219
20060W        W36321  13.458   1.848   4.871  0.0772 -0.1165  0.3369
20061W        W36322  16.176  16.597  12.572 -0.0651  0.0090 -0.2493
20062W        W36323  13.747   2.885  11.224  0.1894  0.2234  0.1615
20063W        W36324   5.163   4.558   1.408  0.0030  0.4631 -0.1787
20064W        W36325   4.381   9.226  15.511 -0.1274  0.0324 -0.1308
20065W        W36326  12.546   8.519  12.759  0.2187 -0.1359  0.0222
20066W        W36327   4.372  18.155  15.172  0.1283  0.2179  0.0631
20067W        W36328  16.396  10.730   2.237 -0.3340  0.0427  0.0222
20068W        W36329   8.111  10.564  15.938 -0.0256  0.0369 -0.0347
20069W        W36330  16.992  13.544  11.717 -0.0063 -0.1103  0.0489
20070W        W36331   4.802  15.404   5.242  0.1227 -0.0266 -0.3069
20071W        W36332   8.105  13.856   0.361 -0.1972 -0.2393 -0.3572
20072W        W36333   3.747   1.641   4.528 -0.1151  0.0972 -0.1409
20073W        W36334  16.737  17.207   2.781  0.0747  0.1423 -0.1380
20074W        W36335   2.725  11.351  13.558 -0.0585 -0.1108 -0.1988
20075W        W36336   9.811   0.708   2.823 -0.3048  0.1826  0.3423
20076W        W36337  16.201  12.675  15.652 -0.0303 -0.0435 -0.0242
20077W        W36338  14.173  12.577   3.127 -0.0884  0.0354 -0.0196
20078W        W36339   3.712  12.132  12.208  0.1662 -0.1431 -0.0910
20079W        W36340   2.673  17.606   1.706 -0.1880 -0.1519 -0.1804
20080W        W36341  15.135   8.040   2.489  0.0589  0.0923 -0.0220
20081W        W36342  10.523   7.146  16.192 -0.1166  0.0843  0.7723
20082W        W36343  10.351  16.900   3.891 -0.1621 -0.1609  0.1844
20083W        W36344  17.665  15.125  16.411 -0.0555 -0.3259 -0.4368
20084W        W36345   0.921  13.813   3.900 -0.0662 -0.1416  0.2913
20085W        W36346  17.510  14.464   1.547  0.2492  0.0516  0.2338
20086W        W36347   8.732   3.851  15.765  0.1292 -0.0977 -0.0373
20087W        W36348   8.107   7.944   4.224 -0.0321 -0.0590 -0.2896
20088W        W36349  11.345  16.289   0.368  0.1358  0.0096 -0.1654
20089W        W36350   9.962  16.257   1.964  0.1637  0.0364  0.2000
20090W        W36351  10.485   3.342  14.688  0.0035  0.3880  0.0152
20091W        W36352  17.381  15.104  15.979  0.0394  0.1181 -0.0012
20092W        W36353  18.070   5.395  12.148 -0.3695  0.0032  0.2614
20093W        W36354   3.561   6.599   4.875 -0.0393 -0.0729  0.3369
20094W        W36355   9.872  17.797   2.239 -0.1139 -0.1949 -0.0447
20095W        W36356   8.905   2.610   1.399  0.0448  0.0305 -0.2263
20096W        W36357   7.351  16.358  16.240  0.0375 -0.2537  0.0160
20097W        W36358   5.379   9.123   3.762  0.2159  0.3992  0.1487
20098W        W36359   5.740  12.231  12.168  0.0252 -0.0177  0.0816
20099W        W36360   9.391   3.095  13.867  0.0723 -0.1428  0.4106
20100W        W36361  14.255  17.420  12.634  0.1051  0.1853 -0.1831
20101W        W36362  10.289   7.831  11.956 -0.2183 -0.3946  0.0168
20102W        W36363   2.851  12.539  13.191  0.1165  0.2233 -0.1579
20103W        W36364  17.362   1.778  12.677 -0.0965 -0.3676 -0.3368
20104W        W36365  10.107   7.799  13.120 -0.3664 -0.0553 -0.0503
20105W        W36366   0.535  17.913   0.871  0.0671  0.1095 -0.5616
20106W        W36367   1.839   4.325   4.268 -0.1566 -0.3161  0.2780
20107W        W36368   6.433  16.561  16.562  0.2381 -0.3987  0.0010
20108W        W36369  13.239   7.850  15.745 -0.2326 -0.0739 -0.0666
20109W        W36370   3.424  12.505  15.647  0.0228 -0.1103 -0.0050
20110W        W36371  10.750  12.472  12.690 -0.1112 -0.1251 -0.2859
20111W        W36372  10.432   3.173  11.589  0.1869 -0.0132 -0.0658
20112W        W36373   1.923  11.384   0.186  0.2716  0.0655  0.2656
20113W        W36374  15.237  10.495   2.857  0.2425  0.1654  0.1201
20114W        W36375   4.761   3.233   2.883 -0.2463 -0.1442 -0.0757
20115W        W36376   4.090   0.242   0.135  0.0257 -0.0553 -0.0329
20116W        W36377   5.648  15.216  12.857 -0.4016  0.0716 -0.1702
20117W        W36378   8.334   0.180   2.850  0.1019 -0.1000  0.1321
20118W        W36379   3.217   6.137  13.777  0.0941  0.0050 -0.1703
20119W        W36380  13.219  16.693  15.656  0.1007 -0.0589  0.0954
20120W        W36381  17.694   4.865  12.657  0.1546 -0.2633  0.0158
20121W        W36382  11.205  12.079  14.280 -0.0944  0.0653  0.2758
20122W        W36383   1.827  16.276  16.382 -0.3140  0.1320  0.1802
20123W        W36384   1.304   3.008   1.183  0.2444  0.1954  0.1472
20124W        W36385   6.475  10.240   2.260 -0.2648  0.1265  0.3609
20125W        W36386  12.182  13.392   0.905 -0.2876 -0.2473  0.0140
20126W        W36387  12.784   6.505  15.733 -0.0342 -0.0694  0.0414
20127W        W36388  13.309  15.641   1.944  0.0454 -0.4070 -0.1957
20128W        W36389  15.554   9.125   4.318  0.2897  0.1171 -0.0706
20129W        W36390   6.644   7.890  13.018 -0.4135  0.0064 -0.3237
20130W        W36391  13.006   0.779  12.595  0.0229 -0.0488  0.2093
20131W        W36392   4.617   0.817  13.817 -0.1226  0.0189  0.0470
20132W        W36393  14.265  13.476   3.456  0.0595 -0.2047 -0.3802
20133W        W36394  11.884   6.151  15.714 -0.0171  0.1230  0.3676
20134W        W36395   2.801   3.940  15.377  0.0140 -0.1105 -0.1601
20135W        W36396   3.508  10.936  15.334  0.2068 -0.2694  0.2970
20136W        W36397  16.192  10.761   5.215 -0.1589  0.2139  0.2854
20137W        W36398   7.095  14.135  14.952 -0.1157  0.1015  0.1343
20138W        W36399   1.350  17.077  16.357  0.0414 -0.2206 -0.0596
20139W        W36400  14.260  12.981  14.844  0.1613 -0.1186 -0.0959
20140W        W36401   5.671  17.745  11.668 -0.0606 -0.2968 -0.0448
20141W        W36402   4.548   8.094   0.899  0.2212  0.1190 -0.3656
20142W        W36403  11.239   2.875  14.059  0.1038 -0.0578  0.0381
20143W        W36404  15.373   8.284  14.012  0.1759 -0.0907  0.1027
20144W        W36405  13.630   6.029  11.644 -0.1727  0.0006 -0.0359
20145W        W36406  18.166  10.017  11.595 -0.0249  0.3981  0.0123
20146W        W36407  16.311   0.958  15.375 -0.2985 -0.1721 -0.2197
20147W        W36408   4.328  14.605   6.438  0.1449 -0.1077  0.0280
20148W        W36409  13.023   6.555  14.865 -0.1095 -0.3473  0.0441
20149W        W36410  14.398  15.265   1.464 -0.1197 -0.0481  0.0483
20150W        W36411  12.749   0.159  15.436  0.0964  0.0251  0.0210
20151W        W36412  10.190  17.663   0.805  0.2606 -0.1991  0.1983
20152W        W36413   8.426  15.127   3.966 -0.2123  0.0854  0.1193
20153W        W36414  16.947  10.766  14.916 -0.2163 -0.0304 -0.4254
20154W        W36415   1.304   9.479   2.037 -0.0212 -0.0484 -0.3622
20155W        W36416   0.221   5.855  13.117  0.0565 -0.1031  0.0009
20156W        W36417   0.998  10.901   3.320  0.0897  0.2090 -0.1286
20157W        W36418   6.704  14.927  12.937  0.3384 -0.0080  0.1003
20158W        W36419   1.051   9.085  16.279  0.1048 -0.0467  0.1937
20159W        W36420   0.200   0.407  15.805  0.0971 -0.1499 -0.0261
20160W        W36421  10.523  17.784  12.227 -0.0909 -0.1191  0.0109
20161W        W36422   6.724   7.674  13.416 -0.0508 -0.0335  0.1181
20162W        W36423  13.934   0.778  13.667 -0.0406  0.1664  0.0173
20163W        W36424  17.205  17.557  16.078  0.2612 -0.0776 -0.1647
20164W        W36425  15.216   7.354  15.143  0.4477 -0.1001  0.2815
20165W        W36426  11.105  17.758   5.522  0.2586  0.0678 -0.0995
20166W        W36427  14.852  15.271   0.576 -0.2695  0.1880  0.2591
20167W        W36428  13.439   8.211   1.767 -0.0318  0.1807 -0.2769
20168W        W36429  12.896   8.471  13.099 -0.2541  0.1097 -0.0598
20169W        W36430  10.644  17.998  15.994  0.2155 -0.1797  0.3997
20170W        W36431   8.540   9.640   4.457 -0.0425 -0.3466  0.3107
20171W        W36432   1.706   4.971  16.558 -0.1991  0.1057  0.0385
20172W        W36433   3.823   4.708  15.394 -0.0175  0.1268  0.1269
20173W        W36434  16.651   1.733   5.245  0.1954  0.1892  0.2462
20174W        W36435   9.807   3.268  15.568 -0.1243 -0.0630 -0.1919
20175W        W36436  10.695   7.104   6.211  0.1053 -0.1943 -0.0680
20176W        W36437   2.874  16.258   3.959  0.0250  0.0247  0.0517
20177W        W36438  15.275   3.653  11.331  0.1802 -0.1408 -0.0209
20178W        W36439  12.312  16.354   3.873  0.0117 -0.1224  0.2503
20179W        W36440   9.422   6.225   0.577  0.0615 -0.0929  0.0084
20180W        W36441   9.087   3.389  11.815 -0.0151 -0.3870 -0.3806
20181W        W36442  16.739  17.668  14.822 -0.2348 -0.2788  0.1368
20182W        W36443  13.973  16.656   1.113  0.1889 -0.2082 -0.0526
20183W        W36444  12.461   9.820   4.476 -0.0777 -0.0289  0.1658
20184W        W36445   2.633   3.200   3.300 -0.4301 -0.1257 -0.3508
20185W        W36446  16.650  11.689  14.810  0.3443  0.0430  0.2932
20186W        W36447   7.634  17.483  13.969  0.0842 -0.0887  0.2922
20187W        W36448  18.009  16.360   2.821 -0.1003  0.2100  0.2776
20188W        W36449   7.039   5.418  12.929  0.1036 -0.1422  0.1742
20189W        W36450  11.909   5.388  11.526  0.1537 -0.3293 -0.1929
20190W        W36451  11.461   6.553  12.707  0.2369 -0.0420  0.2498
20191W        W36452   7.064   7.645  14.665  0.1423 -0.1102 -0.1093
20192W        W36453  17.103   1.770   5.011 -0.2142 -0.0901  0.3273
20193W        W36454  11.668   5.972   2.655  0.1948 -0.3075 -0.1013
20194W        W36455  15.579  16.280   0.918 -0.1251 -0.0910  0.0218
20195W        W36456   9.755   8.136  13.454  0.1323 -0.1465  0.5213
20196W        W36457  13.787  13.940  11.648  0.2043 -0.2351 -0.0857
20197W        W36458  17.430   0.875  11.326  0.3213  0.1304  0.1483
20198W        W36459   8.245  12.426  13.506  0.2232 -0.2315 -0.2845
20199W        W36460   4.468   4.132  15.032 -0.4805  0.0814 -0.0359
20200W        W36461  13.140   9.284   1.078  0.1126 -0.2593  0.1154
20201W        W36462   3.788  10.678  14.338  0.1356 -0.0843 -0.0610
20202W        W36463  10.281  15.522  14.428 -0.0556  0.0819  0.1154
20203W        W36464  10.922   9.118  16.451 -0.3201  0.3498 -0.0318
20204W        W36465  14.672  15.930   5.155 -0.2874 -0.0091  0.1459
20205W        W36466   9.027  15.823   1.314 -0.1101  0.1899 -0.2493
20206W        W36467   4.318   9.430  14.438 -0.0991  0.0592 -0.1028
20207W        W36468   3.321   0.922   4.825 -0.0961 -0.2479  0.0147
20208W        W36469   2.465  16.333   5.594 -0.1463  0.1761  0.2989
20209W        W36470  14.867  16.433  13.021 -0.0675  0.0229 -0.2251
20210W        W36471  11.865   2.933  13.765 -0.0231  0.2959 -0.1509
20211W        W36472   2.617  10.257   2.800  0.1060 -0.1978  0.1296
20212W        W36473  13.112   1.554  15.084  0.2207 -0.1139  0.1703
20213W        W36474  12.625  10.208  11.963 -0.4543  0.2116  0.2392
20214W        W36475  15.805   9.571   1.242 -0.2334  0.0390  0.0957
20215W        W36476   3.837   4.152  16.283 -0.2177  0.2943  0.1158
20216W        W36477  12.452   8.269  14.144  0.1441 -0.0905 -0.0442
20217W        W36478  14.400  11.024   0.832 -0.0925  0.0753  0.0243
20218W        W36479  11.748  10.506  11.471  0.1108  0.3002  0.0903
20219W        W36480   0.401   4.509   6.497 -0.1069  0.2391 -0.1774
20220W        W36481  15.740   0.648  16.456 -0.4477  0.1882 -0.0358
20221W        W36482  15.927  13.550   2.099 -0.2917  0.1471  0.1797
20222W        W36483   7.389   3.402  13.720 -0.1266  0.0588  0.2169
20223W        W36484  13.318  16.557   1.347 -0.2936  0.2213  0.2742
20224W        W36485   3.015   3.436   0.172 -0.1702 -0.2492 -0.0871
20225W        W36486  17.322   4.194   5.007 -0.0213  0.2055  0.1270
20226W        W36487  12.725   6.247  14.102 -0.1864 -0.3824 -0.0857
20227W        W36488   4.092   3.268   2.127 -0.0096 -0.0300 -0.0708
20228W        W36489  14.001  14.085   3.586 -0.0288  0.2717  0.2266
20229W        W36490   0.360   0.394  16.505  0.1333  0.2194  0.2366
20230W        W36491  14.707  11.534  11.748 -0.2257  0.1041 -0.0685
20231W        W36492  12.535   9.323   2.855  0.1830  0.2620  0.1234
20232W        W36493   9.047   7.970   2.518 -0.1809  0.1979 -0.0531
20233W        W36494  16.558   5.538  13.074 -0.0568 -0.1262 -0.0619
20234W        W36495  11.429  14.328   1.804 -0.1408 -0.4347  0.3550
20235W        W36496  16.556  11.222  11.493  0.1996 -0.0351  0.2247
20236W        W36497   8.466  15.863   1.270 -0.2763 -0.0436 -0.2506
20237W        W36498  13.235   5.777  11.291 -0.1731  0.0482 -0.1003
20238W        W36499   6.159  16.128  12.573  0.0823 -0.0195  0.1862
20239W        W36500  16.650   4.928  14.058  0.2020  0.2669 -0.0643
20240W        W36501   8.691   5.313   0.669  0.2008 -0.0152 -0.2180
20241W        W36502   1.033   7.117  15.365  0.2336  0.1481 -0.0456
20242W        W36503   4.366   3.266  13.638 -0.1990  0.0299  0.0476
20243W        W36504   3.042   9.115  16.147 -0.3556 -0.2243 -0.3877
20244W        W36505  12.155  14.642  13.669  0.0620 -0.1900 -0.2290
20245W        W36506   5.470  13.214   2.793  0.2500  0.1720 -0.4293
20246W        W36507  14.924  13.614  11.765  0.2493 -0.1910  0.1590
20247W        W36508   9.087  16.806   4.501  0.0571 -0.0733  0.2091
20248W        W36509  16.867  14.928  16.052  0.1973 -0.1906  0.1313
20249W        W36510   8.958   8.502  15.147 -0.0571  0.0289  0.0029
20250W        W36511   9.252   8.559   4.443  0.1606 -0.0573  0.0036
20251W        W36512  14.129   7.390  15.046 -0.0104  0.3709  0.1416
20252W        W36513   7.440   3.409   2.988  0.2481 -0.1018  0.0033
20253W        W36514  10.627   6.693  11.224  0.2600  0.1259 -0.1670
20254W        W36515  12.759   1.528  14.655 -0.3984 -0.2855 -0.0706
20255W        W36516   6.132  13.650  15.019 -0.1690 -0.1356  0.0606
20256W        W36517   7.890   5.739   2.837 -0.1323  0.1209  0.3959
20257W        W36518  17.855  11.146   5.478  0.0408 -0.2043  0.0698
20258W        W36519   2.766   0.393   4.237  0.0101  0.1393 -0.1061
20259W        W36520  16.133  16.098  12.681 -0.1038  0.1567 -0.1160
20260W        W36521   5.264  16.429   1.472  0.2014  0.1063 -0.2124
20261W        W36522   7.284  13.606   2.503  0.0084  0.1629  0.1835
20262W        W36523  10.077   3.997  13.149  0.0281  0.1043 -0.0094
20263W        W36524   6.592  14.509  13.257  0.2551 -0.0774 -0.0194
20264W        W36525   1.958   9.263   1.978  0.1005 -0.0965  0.0476
20265W        W36526   7.601   0.543   3.409 -0.0284 -0.1705 -0.0368
20266W        W36527   2.347  14.417   4.502 -0.3267 -0.1147  0.0192
20267W        W36528   3.287   5.449   0.158 -0.1823 -0.0777  0.0127
20268W        W36529   8.587   4.835   0.713 -0.0613 -0.0097 -0.2594
20269W        W36530   2.635  17.645  15.863 -0.1517 -0.0242  0.0787
20270W        W36531   0.180   7.836  12.051 -0.0040  0.1919  0.1626
20271W        W36532   2.737   0.873   0.569 -0.0963  0.1077 -0.1223
20272W        W36533   8.199   5.856  15.821 -0.2106  0.1642 -0.0921
20273W        W36534   2.860  11.264  14.129 -0.2087 -0.0061 -0.0855
20274W        W36535   6.257  12.645   3.212 -0.0008 -0.0195  0.0427
20275W        W36536   5.151  15.026   0.353  0.2428  0.0958 -0.0255
20276W        W36537  14.921  13.196  12.092  0.0502  0.2986 -0.0332
20277W        W36538  11.401  16.335  14.374 -0.1394 -0.1187  0.1760
20278W        W36539  11.930   8.253   0.550 -0.2790 -0.0837  0.1836
20279W        W36540   7.049   7.428  15.984 -0.4639  0.2202 -0.1375
20280W        W36541  13.760  11.276  12.073  0.2563  0.0965 -0.1853
20281W        W36542  16.159  12.614  14.973 -0.1229  0.1475 -0.4986
20282W        W36543  11.504  13.017   4.720  0.2268 -0.2880 -0.1025
20283W        W36544  10.016  15.415   3.577  0.0484 -0.0356 -0.0579
20284W        W36545   9.997   9.652  13.658  0.1710 -0.0555  0.3895
20285W        W36546  10.271   4.322  16.435  0.2425 -0.1400  0.3825
20286W        W36547   6.769  10.341   1.109  0.1041  0.1027 -0.3416
20287W        W36548   3.275  16.352   0.358 -0.1182  0.1158 -0.0096
20288W        W36549   7.544   6.904   3.348  0.1017  0.0498 -0.0668
20289W        W36550  16.066  10.732   4.065  0.0244 -0.2101  0.1563
20290W        W36551   8.336  12.399  14.479  0.0441 -0.0614 -0.2352
20291W        W36552   8.413  11.137   1.164  0.1050 -0.1003  0.0762
20292W        W36553  17.854   6.540   2.798  0.0914 -0.2476 -0.1418
20293W        W36554   2.141   4.725   5.243 -0.2444 -0.0579 -0.2710
20294W        W36555   7.154  16.853  16.061  0.2272 -0.1447  0.0245
20295W        W36556  15.077   1.903   4.360 -0.0003 -0.1871 -0.4636
20296W        W36557  15.376   3.002   1.504  0.3677  0.0212 -0.0120
20297W        W36558  15.645  16.715   5.258 -0.1174  0.4048  0.3729
20298W        W36559  17.853  13.065   0.072  0.2709 -0.3961 -0.1449
20299W        W36560  12.135   3.636   0.918 -0.1946  0.2972 -0.3737
20300W        W36561   6.990  10.442   3.712 -0.1577 -0.3916  0.0329
20301W        W36562   6.466   3.747   1.782  0.0089  0.1405  0.1182
20302W        W36563   4.140   5.375   1.851  0.0583  0.3200  0.4034
20303W        W36564  17.210   8.905  15.717 -0.0244 -0.0956 -0.2049
20304W        W36565   2.906   0.617   2.397 -0.0860  0.0750  0.3305
20305W        W36566   9.040  11.115  14.889 -0.1583  0.0948  0.2246
20306W        W36567  15.916  12.098   4.284  0.2156  0.0174 -0.3471
20307W        W36568   8.388   5.807  16.285 -0.1938  0.2856  0.0824
20308W        W36569  11.289   4.803   3.963  0.1904 -0.0593  0.0297
20309W        W36570   6.155  16.549   3.831 -0.2404  0.3288  0.0624
20310W        W36571   0.865   6.783   4.436 -0.1331 -0.0279 -0.1704
20311W        W36572   3.499   1.910   3.180 -0.3522  0.0283  0.0218
20312W        W36573  12.552   5.279   4.605  0.1348  0.0635 -0.2774
20313W        W36574  16.428   6.504   3.752  0.2354 -0.2684  0.0287
20314W        W36575   8.560  10.909   2.155  0.0595  0.2257 -0.0958
20315W        W36576   3.202   0.033  16.278 -0.1825  0.1422  0.1309
20316W        W36577  15.546   5.072  13.137  0.3742 -0.0602 -0.0144
20317W        W36578   5.613  17.000  14.262 -0.0629 -0.0391  0.1007
20318W        W36579   8.603  11.435   2.949  0.1202 -0.2088 -0.3105
20319W        W36580   0.175  16.204  15.745 -0.0894  0.0397  0.0975
20320W        W36581   0.686  15.274   4.076 -0.0562 -0.3317 -0.2401
20321W        W36582   0.922  12.627  11.402  0.0061 -0.4908  0.2113
20322W        W36583  14.633  10.118  15.174  0.3133  0.3124 -0.0775
20323W        W36584   8.398  10.888  14.747 -0.2476  0.0831 -0.2863
20324W        W36585   2.601   1.100  11.889 -0.1852  0.2065 -0.1887
20325W        W36586   5.200  14.577  15.347  0.1218 -0.1014  0.0584
20326W        W36587   3.438   8.237  16.472  0.1200  0.0377  0.0604
20327W        W36588  10.385  16.081  16.457 -0.0540 -0.0951  0.1874
20328W        W36589   1.983  15.284  14.916 -0.1105  0.0619  0.1100
20329W        W36590   6.631  11.971  12.236  0.0585  0.1090 -0.0507
20330W        W36591  17.913   3.204  12.983 -0.0273  0.0872  0.1250
20331W        W36592  15.647   6.183   1.320  0.0007 -0.2563 -0.1093
20332W        W36593  14.403  13.823   5.924  0.2144  0.0125 -0.2444
20333W        W36594  11.278  18.115   4.721  0.1234 -0.1602  0.2269
20334W        W36595   0.714   9.070   1.490 -0.0600 -0.0734  0.1436
20335W        W36596   5.274  17.392  14.687 -0.0130 -0.2693  0.1523
20336W        W36597  10.196   8.053   1.010 -0.0106 -0.2419  0.3930
20337W        W36598   8.050   8.223   1.394  0.0390 -0.0315  0.0833
20338W        W36599   6.729  11.280  16.206 -0.0234 -0.3194  0.0015
20339W        W36600   3.889  15.659  14.510 -0.3057  0.1003  0.0214
20340W        W36601   2.127  17.624   4.208 -0.0892  0.2285  0.1013
20341W        W36602   5.915   6.273   3.176 -0.0567 -0.0970  0.0901
20342W        W36603   8.573   9.506  11.752  0.0455 -0.0390 -0.0248
20343W        W36604   9.233  12.202  14.890 -0.1454  0.0198  0.2930
20344W        W36605  16.183   6.192  16.227 -0.0589  0.1435 -0.0019
20345W        W36606  17.628   9.448  14.020 -0.2818 -0.1794 -0.1846
20346W        W36607  17.625  12.709  15.878 -0.1682  0.0530 -0.1530
20347W        W36608  12.713  14.557   0.969  0.1864  0.0218 -0.3085
20348W        W36609   8.687   7.486  16.629 -0.1168 -0.2968  0.2748
20349W        W36610  14.481  13.359  12.079 -0.0902  0.2576 -0.2240
20350W        W36611  12.417   6.867   1.420 -0.1441 -0.0965 -0.1247
20351W        W36612  12.645  13.785   2.000  0.2763 -0.1077  0.0086
20352W        W36613  12.174  13.836   2.266  0.1774 -0.2471 -0.1840
20353W        W36614  17.396  15.049  12.582  0.0592  0.3244  0.0315
20354W        W36615  13.118  10.226   5.034  0.0032 -0.0878  0.3495
20355W        W36616  14.760   7.465   3.997  0.0315  0.1095 -0.1445
20356W        W36617   7.655   4.036   0.064  0.2224  0.2946  0.4754
20357W        W36618  17.124  13.737  15.602  0.1254  0.0961 -0.4727
20358W        W36619   3.102  11.464   2.966 -0.1778  0.2192 -0.2349
20359W        W36620   3.622  18.037  15.574  0.2422 -0.1578  0.0320
20360W        W36621  14.950  12.162   3.293  0.0749 -0.3048 -0.0055
20361W        W36622   2.021   8.890  14.231 -0.0664 -0.0831  0.0216
20362W        W36623  15.356  12.624  14.955  0.0988 -0.2843 -0.0044
20363W        W36624  16.951   3.316   1.856  0.2463 -0.0324 -0.0638
20364W        W36625  11.533   3.067  10.542 -0.1102  0.3615 -0.1911
20365W        W36626  16.139  10.394   4.410  0.3200  0.3560  0.2188
20366W        W36627   0.663   1.860  13.232  0.2142  0.0109 -0.0113
20367W        W36628   2.517  11.279  12.286 -0.0142 -0.3337  0.2286
20368W        W36629   5.285   1.972  13.680 -0.2718  0.1391 -0.2109
20369W        W36630  14.878   6.439  16.288 -0.0079  0.0492  0.2732
20370W        W36631   3.184   1.452  13.233  0.3177  0.0476 -0.1784
20371W        W36632  16.008   0.153  13.460 -0.2327 -0.2006 -0.1556
20372W        W36633   5.302  15.287  13.288  0.4250  0.1247  0.1497
20373W        W36634   9.353  13.338  16.543 -0.0443  0.1642 -0.0559
20374W        W36635  11.112  14.986   5.407  0.1391  0.1786  0.2894
20375W        W36636  15.854   3.403  12.033 -0.0594  0.3176 -0.0624
20376W        W36637  14.504  17.815   2.087  0.0995 -0.0385 -0.0672
20377W        W36638  13.921  16.152   2.284 -0.1155 -0.0643  0.0849
20378W        W36639   0.688  14.426   5.339 -0.1260  0.0282 -0.1721
20379W        W36640   1.511  12.144  12.027 -0.6745 -0.1393 -0.1525
20380W        W36641  18.173   7.675   4.235  0.2464 -0.0807  0.3856
20381W        W36642   7.204  11.414   0.645 -0.2288  0.0726 -0.1866
20382W        W36643   8.210  11.367   6.362  0.1896 -0.0091 -0.4902
20383W        W36644  10.301  17.171  13.475 -0.1310  0.0461 -0.0707
20384W        W36645   5.598   5.455   0.466  0.5055 -0.1187  0.1143
20385W        W36646   7.641   9.312   1.494  0.0940  0.0758  0.1838
20386W        W36647  12.852  17.575  12.990 -0.0657 -0.3895 -0.1460
20387W        W36648  15.906  11.133   5.034  0.2227 -0.1583  0.3031
20388W        W36649  11.221   0.059   1.526 -0.0972  0.0195  0.2138
20389W        W36650   9.441   4.716  12.103 -0.0867 -0.1022  0.1523
20390W        W36651   3.723  16.738  15.257  0.5225 -0.0570 -0.3504
20391W        W36652   6.549   8.071   2.957 -0.0000  0.0302  0.0833
20392W        W36653  18.134   6.843   2.279  0.0596  0.0424  0.2460
20393W        W36654  14.414  12.698   4.172  0.0552 -0.1282  0.0381
20394W        W36655   5.194   9.731   2.531  0.1611 -0.0705  0.1453
20395W        W36656  11.444   2.130   2.961 -0.1648  0.0674  0.0056
20396W        W36657  15.245  15.117   1.510 -0.1547 -0.2155  0.1592
20397W        W36658   4.476  12.858  12.893 -0.1647 -0.0631  0.0943
20398W        W36659  14.535  11.097  11.929  0.1351 -0.0385 -0.1186
20399W        W36660  15.254  16.919  15.908  0.0769  0.3175 -0.2334
20400W        W36661  13.135   2.589   3.809  0.0515  0.1727 -0.0593
20401W        W36662  12.022  10.619  15.920  0.3860  0.0947  0.2589
20402W        W36663  12.202   8.727  14.938 -0.3717 -0.1990 -0.2667
20403W        W36664  13.913  11.033  13.214 -0.3331  0.1598  0.0739
20404W        W36665  17.984   7.086   0.294  0.0045  0.2209  0.0954
20405W        W36666   0.174   3.396  15.881 -0.2302 -0.0405  0.0497
20406W        W36667   2.876   7.919   0.962 -0.1563  0.3038 -0.0013
20407W        W36668  13.921  14.067  16.292  0.1048 -0.2477  0.2795
20408W        W36669  11.848   3.397   0.579  0.0056 -0.0227  0.0656
20409W        W36670  13.906   9.138   2.937 -0.1002  0.1072 -0.0980
20410W        W36671   9.377   6.590  16.368  0.2086  0.0781 -0.1869
20411W        W36672   8.705   3.882   3.598 -0.0032  0.2640 -0.4085
20412W        W36673   3.310   4.358  11.930  0.0981 -0.0328  0.2550
20413W        W36674  16.652  12.396  14.102  0.1552 -0.1380 -0.0557
20414W        W36675  16.472  16.962  15.609  0.0621 -0.1126  0.0508
20415W        W36676   3.761   2.124  12.216  0.0913  0.1206  0.1928
20416W        W36677   0.206  16.205  14.050 -0.0768  0.0864 -0.0062
20417W        W36678   2.383   8.696  15.967  0.1234  0.2338  0.1465
20418W        W36679   8.712   2.706   2.793  0.1428 -0.2324 -0.1880
20419W        W36680  11.708   8.696   0.219 -0.1748 -0.1661 -0.0622
20420W        W36681  11.121   0.901   5.030  0.0801 -0.0283  0.1667
20421W        W36682   3.498  16.352  13.934 -0.2365  0.1594  0.1050
20422W        W36683   8.171   6.900   5.436  0.1741 -0.3386  0.1127
20423W        W36684  14.369  11.866  15.586  0.1685  0.2558  0.2879
20424W        W36685  17.806  11.440   3.122 -0.1838 -0.3348  0.0244
20425W        W36686  16.685  15.855   3.741  0.1322 -0.1242  0.0057
20426W        W36687  15.900   3.801  16.077 -0.0452 -0.0050  0.2342
20427W        W36688   0.573  13.877   2.216  0.0834 -0.1003 -0.1406
20428W        W36689   5.026  10.564   0.003 -0.0574 -0.0117 -0.0705
20429W        W36690  10.817   7.663   2.950 -0.0631 -0.0762 -0.1332
20430W        W36691   2.384   5.857  12.688 -0.2522  0.0296  0.0355
20431W        W36692   7.562   2.291   2.709  0.1571 -0.0288 -0.0327
20432W        W36693   7.894   1.566  16.180 -0.0762  0.0375  0.1087
20433W        W36694  15.136  15.809  14.156 -0.0486 -0.3628  0.0215
20434W        W36695   7.900   9.634  14.310 -0.0665 -0.3679  0.1595
20435W        W36696  17.201   5.611   2.132  0.2546 -0.1332 -0.0013
20436W        W36697   1.833   7.837   1.009 -0.0108 -0.1518  0.0805
20437W        W36698  16.233   9.208   0.869  0.1839 -0.1878  0.1410
20438W        W36699   6.635  14.830   3.293 -0.3025 -0.1357 -0.2121
20439W        W36700  17.122  11.415   2.438 -0.0756 -0.0947 -0.0069
20440W        W36701  14.506  13.318  10.350  0.2435  0.1329 -0.1170
20441W        W36702  15.184   3.145   5.133  0.1249  0.1068  0.2873
20442W        W36703  13.984  14.622   5.076  0.0054  0.0490  0.1949
20443W        W36704   0.583   8.711   2.506 -0.0649  0.0767  0.4398
20444W        W36705  10.430   2.247  16.501 -0.0384 -0.1357  0.2367
20445W        W36706  15.536  10.276  12.614 -0.0782  0.0321  0.1925
20446W        W36707  10.510   5.474  12.796 -0.1277 -0.0896 -0.0794
20447W        W36708  14.660   8.695  12.093 -0.0801 -0.0576 -0.0176
20448W        W36709   1.143   0.187   4.578  0.0434  0.2850 -0.2574
20449W        W36710   6.620   8.241  13.421  0.0698 -0.0896 -0.1632
20450W        W36711   3.421  15.477  11.868  0.0437 -0.1023  0.4420
20451W        W36712   0.878   1.321  13.961 -0.0242  0.1455 -0.1170
20452W        W36713   5.709   7.746   0.717  0.4733 -0.0068 -0.0057
20453W        W36714   0.005   5.029   1.526 -0.1339 -0.3250 -0.0515
20454W        W36715  15.830   7.271  14.020 -0.0302 -0.0303  0.0011
20455W        W36716  11.296   7.213   4.499 -0.1614  0.1413 -0.2253
20456W        W36717   6.729   5.322   4.141 -0.0467  0.0341 -0.4885
20457W        W36718   2.364   4.524  14.164 -0.4831 -0.0842 -0.1574
20458W        W36719   2.798  10.331  13.952 -0.1553 -0.3056 -0.2554
20459W        W36720   9.924  17.905   2.732  0.1526 -0.0664 -0.2407
20460W        W36721   5.570   3.778   0.309 -0.1427  0.0488 -0.0461
20461W        W36722  10.413   1.003  13.795 -0.0656 -0.0339 -0.1875
20462W        W36723   7.989  13.064   2.652 -0.1780  0.3564 -0.0227
20463W        W36724   5.062   8.355   0.930 -0.3817 -0.0837 -0.1116
20464W        W36725  11.288  17.407   4.007  0.3172 -0.1737  0.1668
20465W        W36726  17.765   0.824   6.385  0.2969  0.0514  0.2520
20466W        W36727   5.122   5.746  12.058  0.0191  0.1132 -0.3204
20467W        W36728   6.180   8.907  15.348  0.1007 -0.5154  0.2011
20468W        W36729   6.630   7.985  11.561  0.2043 -0.2221 -0.0425
20469W        W36730   7.873  15.152   2.403 -0.0838  0.2640  0.0514
20470W        W36731   9.407   2.882  14.759 -0.0383  0.1525 -0.0154
20471W        W36732  18.042   6.596  13.227 -0.0834  0.2151 -0.1027
20472W        W36733   6.421  14.693   2.822  0.3445 -0.1246 -0.0173
20473W        W36734   7.928   1.493  13.607  0.0583 -0.0621 -0.0750
20474W        W36735  10.066  12.794  16.541 -0.2128 -0.0036  0.0539
20475W        W36736  14.186   7.250   1.164 -0.1835  0.0144 -0.0908
20476W        W36737  17.307   3.075  13.632  0.0870 -0.2888 -0.0391
20477W        W36738   6.956   5.382   1.556  0.0105  0.0186  0.4509
20478W        W36739   9.625   1.168  12.096 -0.2118  0.1236 -0.1143
20479W        W36740   3.575  18.160   2.395 -0.1079 -0.0118 -0.1330
20480W        W36741  13.166   5.756   3.935 -0.0139 -0.3213  0.0666
20481W        W36742  11.479  12.694   0.355 -0.0328  0.1212 -0.1547
20482W        W36743  14.481  11.213   3.877  0.2754 -0.1758  0.0934
20483W        W36744   2.610  16.971   2.606  0.3383  0.0099  0.1473
20484W        W36745   4.943   1.165  13.607  0.3540 -0.1314 -0.0790
20485W        W36746  14.862  13.350   2.038  0.2323  0.1776  0.0291
20486W        W36747   8.241  14.719  15.467  0.1882 -0.0593 -0.2753
20487W        W36748  15.982   4.019   4.496 -0.2910  0.0822  0.0523
20488W        W36749   0.654   1.810   5.668 -0.2710  0.3273  0.3046
20489W        W36750  14.400  12.395  12.029  0.0620 -0.0929  0.1302
20490W        W36751   5.618   5.853   3.177  0.0461 -0.0595 -0.1777
20491W        W36752   3.572   2.622  13.506 -0.2465 -0.2702  0.2032
20492W        W36753   6.455  13.909  15.348  0.2603 -0.1945  0.2329
20493W        W36754  17.972  11.647   5.423  0.1954  0.2603  0.0054
20494W        W36755  15.013  16.428   2.789  0.0230  0.1828 -0.1084
20495W        W36756   3.444  17.056   5.557  0.2337  0.1374 -0.1026
20496W        W36757   8.085   5.607   3.357  0.5417 -0.0987  0.3343
20497W        W36758   8.201  17.492   3.269  0.1264 -0.1034  0.1213
20498W        W36759   8.421   1.014  15.614 -0.0050 -0.2147  0.3177
20499W        W36760  14.605   9.342  14.250  0.2547 -0.1235 -0.0258
20500W        W36761  11.431  14.362   3.580 -0.1803 -0.1130  0.0330
20501W        W36762   7.985  13.663   3.501 -0.3164 -0.1323  0.0890
20502W        W36763   2.354   9.682  12.200  0.1596 -0.0454 -0.2272
20503W        W36764   8.596   3.379  15.714  0.2805  0.1274 -0.0976
20504W        W36765  10.153  14.405   2.422 -0.1182  0.2467 -0.0405
20505W        W36766   5.982  16.282  16.543  0.0600  0.0339  0.3765
20506W        W36767   4.605   0.056   4.686  0.1721  0.2538 -0.1561
20507W        W36768   2.302  16.608   2.766  0.0020  0.0718 -0.1398
20508W        W36769  18.142  17.472   4.399  0.0747 -0.1630 -0.1971
20509W        W36770   1.264   5.462   0.913 -0.1544 -0.2741 -0.1262
20510W        W36771   6.540   4.698  12.501  0.0664 -0.1331 -0.2663
20511W        W36772   3.633  15.643   2.153 -0.0646  0.0466 -0.0401
20512W        W36773   4.978   9.176  16.261  0.0755  0.2357  0.0115
20513W        W36774   6.492   3.472   2.244  0.4377  0.0736  0.3231
20514W        W36775   5.066  11.027  11.910 -0.0923  0.1245  0.0720
20515W        W36776  12.391  12.153  11.194 -0.1896  0.1862 -0.0492
20516W        W36777  10.538   9.164  15.959  0.3960 -0.2956  0.4141
20517W        W36778  15.860   8.679   5.208  0.0675  0.3737  0.1816
20518W        W36779   6.204  14.966   0.414  0.1526 -0.0892 -0.0593
20519W        W36780   6.713   3.664  12.333  0.1789 -0.0665 -0.1328
20520W        W36781   5.759   5.003   4.496  0.0535 -0.0794  0.1443
20521W        W36782   4.442   3.111  12.348  0.1167  0.2786  0.1923
20522W        W36783  15.204   0.542   6.164 -0.0967  0.1265  0.0475
20523W        W36784  15.796   5.903   2.298  0.0791 -0.0848  0.2151
20524W        W36785   4.631   1.841  12.945  0.3119  0.1071  0.1350
20525W        W36786   9.476   8.202   1.687  0.0581 -0.1263 -0.3504
20526W        W36787   7.757   0.166  14.140 -0.1564 -0.2610 -0.0463
20527W        W36788  11.581  12.662   3.203  0.2030  0.1777  0.3225
20528W        W36789   1.601   7.225   3.701  0.0262  0.0019 -0.0329
20529W        W36790   3.721  12.585   2.647 -0.2712 -0.1967  0.0679
20530W        W36791   7.150  13.612  16.156 -0.0144  0.3604 -0.0602
20531W        W36792   1.948   3.070  14.524 -0.2167 -0.1019  0.2129
20532W        W36793  10.104   7.476   1.633 -0.1521  0.0363 -0.0089
20533W        W36794   9.207   0.991  15.016 -0.0679  0.0771 -0.1613
20534W        W36795  13.034  16.639  14.523 -0.1588  0.0789  0.2011
20535W        W36796  15.075   0.834   1.358  0.1075 -0.1033 -0.2090
20536W        W36797  13.499  17.646  15.466  0.0972  0.1179 -0.1071
20537W        W36798   2.478  11.933   5.162  0.3335  0.0004 -0.1666
20538W        W36799   9.340  17.449   4.407  0.0232 -0.1199  0.1033
20539W        W36800   2.398   7.473   3.479  0.2372  0.1006 -0.4081
20540W        W36801  17.799   8.769  16.427 -0.1041  0.1162 -0.1865
20541W        W36802  10.348   8.312  12.156 -0.0564  0.3068 -0.1393
20542W        W36803  13.108   6.302   1.530  0.1103  0.1746 -0.0812
20543W        W36804  16.562  10.064  11.103  0.1131 -0.4102  0.0382
20544W        W36805  10.617   1.297   1.554 -0.2375 -0.0156 -0.0541
20545W        W36806   4.082  14.608   4.887  0.0291  0.0220 -0.0986
20546W        W36807   7.808   9.302  13.439 -0.1464 -0.0508 -0.1080
20547W        W36808  16.570  16.293   3.887 -0.0490  0.3217 -0.1782
20548W        W36809  13.086   3.289  16.142  0.2781 -0.1941 -0.2407
20549W        W36810   9.436   6.210  13.656  0.0959  0.2858  0.0495
20550W        W36811  17.283  15.726   3.842 -0.0136 -0.0455 -0.1608
20551W        W36812   9.890  14.755  15.284  0.2025 -0.0151 -0.1163
20552W        W36813   0.286   1.524  12.141  0.1783 -0.0387  0.1046
20553W        W36814   5.096   5.814  16.088  0.0059  0.0777  0.2602
20554W        W36815  15.005  14.892   3.150  0.2018  0.1041 -0.1194
20555W        W36816  14.508  11.891  15.105  0.2314  0.1571 -0.2173
20556W        W36817  13.497  12.100   5.558 -0.0415 -0.1660  0.1862
20557W        W36818   5.029  15.132  13.816  0.1298  0.1330  0.1642
20558W        W36819  12.791  13.559  16.508 -0.0020 -0.3277  0.0983
20559W        W36820   7.861  12.673  15.336  0.0193  0.1491  0.1188
20560W        W36821  13.888   4.165   0.301 -0.1605  0.0128 -0.0220
20561W        W36822  11.510  16.832  14.539  0.0481  0.5685  0.0930
20562W        W36823   8.938   6.344   0.685 -0.2795 -0.1557  0.0106
20563W        W36824   1.265   0.456   1.213  0.1696 -0.1792 -0.1419
20564W        W36825  16.447   3.233   4.176 -0.1932 -0.1379 -0.4959
20565W        W36826  15.704   0.907  11.459  0.0278  0.0332 -0.3123
20566W        W36827  16.659   5.713  11.584 -0.5134 -0.2665 -0.2582
20567W        W36828  13.360  13.060  15.318  0.2519  0.1150  0.2430
20568W        W36829   9.778   2.199  11.093 -0.1276  0.2201 -0.1040
20569W        W36830   3.049   9.710   3.962 -0.0683 -0.1601 -0.0040
20570W        W36831  14.794  15.166   1.769  0.0162 -0.0862  0.0060
20571W        W36832   6.176   4.681  12.980  0.1146 -0.3732 -0.0067
20572W        W36833   3.452   4.696  13.722  0.1904 -0.2494 -0.1216
20573W        W36834   8.370  16.256  15.401  0.0452  0.2062 -0.0463
20574W        W36835   2.415  12.039  14.368  0.0826  0.1386  0.2306
20575W        W36836  10.838   9.369   4.179 -0.0981  0.1920 -0.0962
20576W        W36837   1.232  10.457  11.614 -0.0455 -0.4171  0.0932
20577W        W36838  10.073  17.368  14.710 -0.0186 -0.2366  0.0477
20578W        W36839  13.494  14.024  16.649 -0.0754  0.1191  0.0892
20579W        W36840  14.415  17.985   0.773 -0.1124  0.1353  0.0937
20580W        W36841  11.439   0.884  11.470  0.3596 -0.1740  0.3457
20581W        W36842  12.716   0.457   1.528  0.4234 -0.1654 -0.1003
20582W        W36843  12.718  10.197   4.163  0.0018 -0.0632  0.0461
20583W        W36844  13.000   7.100  14.573 -0.5075 -0.1325 -0.1378
20584W        W36845   3.222   2.206  12.092  0.0422 -0.3593 -0.0908
20585W        W36846  17.420   2.094   5.304  0.0140  0.1618  0.2235
20586W        W36847  10.056  13.929  11.853  0.1078 -0.3538  0.0721
20587W        W36848   3.996  16.022  12.974  0.1729 -0.2730  0.0947
20588W        W36849   8.683  18.027   3.766 -0.1663  0.2104  0.1313
20589W        W36850   8.218   3.722   5.461 -0.2176  0.1816 -0.0971
20590W        W36851  17.901  18.092   6.198 -0.1048  0.2624 -0.0675
20591W        W36852   8.723   8.953   2.477  0.1708  0.0123 -0.0167
20592W        W36853   6.577  12.581   5.213  0.0888  0.1272 -0.1080
20593W        W36854  16.516   6.461  11.970 -0.1270  0.0245 -0.0598
20594W        W36855  12.473   4.785  16.362  0.0641 -0.1871 -0.1793
20595W        W36856   2.677  11.467   3.780 -0.0241 -0.0957 -0.0568
20596W        W36857  10.956  15.112   4.441 -0.3701 -0.3694 -0.0648
20597W        W36858   6.707  15.477  12.780 -0.5398 -0.2728  0.3283
20598W        W36859   5.177   8.282   4.194  0.0450  0.1156  0.1123
20599W        W36860  12.674   3.794   1.474 -0.0226 -0.0963  0.1671
20600W        W36861  16.442  15.802  13.265 -0.1486  0.2699  0.3147
20601W        W36862  10.423   7.942   2.696  0.0387  0.0016  0.2347
20602W        W36863  17.056   0.199  15.809  0.0120  0.1845  0.0770
20603W        W36864  16.218   1.126   2.421 -0.2210  0.4316 -0.1086
20604W        W36865   7.459  16.237  14.606  0.2460  0.0475 -0.0306
20605W        W36866   9.745  16.951   2.488 -0.1727 -0.3630  0.3419
20606W        W36867   9.993  13.363  16.334 -0.2461  0.1186  0.1374
20607W        W36868  10.124   2.845  15.477 -0.0388 -0.0843  0.0633
20608W        W36869   1.276  17.381  15.981  0.0190 -0.0564  0.1093
20609W        W36870  13.203   4.999  14.259  0.1170 -0.0234  0.1528
20610W        W36871   3.222  10.017  15.408  0.0983  0.1732 -0.0346
20611W        W36872  17.590   0.583   1.618  0.1171 -0.2361  0.3869
20612W        W36873   5.023  12.727   4.952  0.0373  0.0469 -0.0577
20613W        W36874   9.221  10.869   2.557  0.2874  0.0887 -0.1856
20614W        W36875  17.466  15.581   3.208 -0.0112 -0.0550 -0.0099
20615W        W36876   2.633  12.858   0.380  0.1404  0.1763  0.1325
20616W        W36877  17.647   3.491   3.726 -0.3391 -0.1318 -0.0311
20617W        W36878   6.177   9.432   2.586 -0.1727 -0.0485 -0.0468
20618W        W36879  13.986   8.348   5.175 -0.0732 -0.0257 -0.1997
20619W        W36880  12.971  16.382   0.924 -0.1567 -0.0252 -0.2888
20620W        W36881  11.583  17.923   1.591  0.4964  0.0184 -0.2351
20621W        W36882   8.814   0.259  15.717 -0.0125 -0.2239  0.1154
20622W        W36883  11.132  14.866  15.536  0.0921 -0.4512 -0.0905
20623W        W36884  14.846   4.510  13.463 -0.0714  0.1963 -0.2191
20624W        W36885  17.767   2.587  13.102 -0.0622  0.0351 -0.0675
20625W        W36886   5.013  10.365  13.769 -0.4679  0.1309 -0.1046
20626W        W36887  14.632   2.975  13.573 -0.0212  0.1019  0.1352
20627W        W36888   2.296   7.765  12.893 -0.2622 -0.0069  0.2803
20628W        W36889  11.195   2.307  12.001  0.3973  0.1557 -0.0994
20629W        W36890  17.712  13.257  11.831 -0.1561 -0.1804 -0.0028
20630W        W36891   8.264   8.151  15.867 -0.2752 -0.2458 -0.3990
20631W        W36892  14.000   5.635  11.039 -0.0789 -0.0981  0.3011
20632W        W36893   0.040   9.513   4.220  0.1253 -0.0681  0.2245
20633W        W36894   7.617  10.410   5.013 -0.1958 -0.1090 -0.2195
20634W        W36895   2.443   9.355  13.864  0.2174 -0.0204  0.0270
20635W        W36896   7.506  13.500   4.390 -0.3223  0.1910  0.1617
20636W        W36897   2.153  14.102   4.825 -0.2167 -0.0845 -0.0246
20637W        W36898   4.538   1.433  11.819  0.3000 -0.2233  0.3724
20638W        W36899  17.372  11.033  13.952  0.2797  0.1151 -0.0422
20639W        W36900   1.812   0.263  15.003 -0.1108 -0.1308 -0.0654
20640W        W36901  17.495   1.456   4.033 -0.2318  0.2054  0.0458
20641W        W36902  10.574  13.681  14.310  0.0310  0.0953 -0.3392
20642W        W36903  14.910   5.839   2.549  0.0539 -0.0654  0.2382
20643W        W36904  11.671   9.650  15.787 -0.0170 -0.3415  0.0427
20644W        W36905   2.256   9.794   2.664 -0.1828 -0.0476 -0.0674
20645W        W36906   1.642   8.547  11.654  0.0282  0.1701  0.0784
20646W        W36907   9.898   9.713   4.059  0.0295  0.2864 -0.0508
20647W        W36908   5.945   1.313   4.255 -0.0566  0.2924  0.0393
20648W        W36909   9.567  10.721  13.790 -0.0156  0.0239 -0.0752
20649W        W36910  11.321  13.841   1.710  0.1131 -0.1278  0.0952
20650W        W36911   0.352   9.979   5.678  0.0981  0.3054 -0.1134
20651W        W36912  12.975   7.394  16.241  0.2858 -0.0709  0.0711
20652W        W36913   6.061   2.743   2.492  0.1238  0.0399  0.0088
20653W        W36914   9.811  11.661   5.640  0.0387  0.3612  0.0358
20654W        W36915  10.633  16.366  10.356  0.2012  0.5801  0.3047
20655W        W36916  10.720   5.028   5.060 -0.2777  0.1750 -0.1213
20656W        W36917  14.508  16.074  13.195  0.0167  0.0919  0.0500
20657W        W36918   1.713  10.916  11.183  0.1263  0.0363  0.1209
20658W        W36919   6.638   0.149   3.550  0.1480 -0.2178 -0.1452
20659W        W36920   6.064   1.858   4.961 -0.1702  0.0662  0.1874
20660W        W36921   2.908   5.963   4.645 -0.1695 -0.0991  0.3555
20661W        W36922  16.572  11.821   3.043  0.0620  0.2094 -0.3253
20662W        W36923   3.690   8.699  16.562  0.0617  0.2145 -0.0598
20663W        W36924  10.869   4.488   2.616 -0.0895 -0.1324 -0.2673
20664W        W36925  14.167  13.729  11.873  0.1990  0.0850 -0.2494
20665W        W36926   2.206  14.580   3.331 -0.2737  0.2354 -0.1339
20666W        W36927  11.009  12.022   3.771 -0.3838 -0.0295 -0.0382
20667W        W36928  10.203  11.477   0.709  0.0674 -0.1557  0.1573
20668W        W36929  10.490   8.792  13.995 -0.0716 -0.0212 -0.1794
20669W        W36930   5.859  10.920   4.403 -0.1346  0.2671  0.1081
20670W        W36931  11.770   1.556  13.210 -0.3540 -0.2585 -0.2645
20671W        W36932  10.651   2.294   1.777 -0.0971 -0.0951  0.1026
20672W        W36933  17.373   1.339   1.350  0.0635  0.3153  0.0762
20673W        W36934   2.270  15.275   2.903 -0.0126  0.0227 -0.2767
20674W        W36935  13.502   3.201  12.054  0.0405 -0.3870 -0.3629
20675W        W36936  13.755   7.087   2.965  0.2162 -0.1494 -0.3002
20676W        W36937   2.978  16.788   0.379 -0.0386 -0.0360  0.0777
20677W        W36938   6.944  16.681   0.965 -0.1268 -0.2323 -0.0979
20678W        W36939   7.408   9.285   4.970 -0.3775 -0.1948  0.0278
20679W        W36940   4.825   7.634  14.040  0.0659  0.2136 -0.2044
20680W        W36941  16.208  15.921   4.063  0.3128 -0.0468 -0.3199
20681W        W36942  13.883   5.054   5.677  0.3887  0.0609  0.0751
20682W        W36943   8.497  14.202   2.295  0.0517  0.0882  0.0361
20683W        W36944  16.720  11.858  12.423 -0.0457  0.1947 -0.3338
20684W        W36945   4.673  15.445  13.749 -0.2033  0.2431  0.1249
20685W        W36946   9.960   0.251   0.669  0.1452 -0.3525 -0.3327
20686W        W36947   1.470  15.290  15.800 -0.0565  0.0042 -0.1809
20687W        W36948   0.690   8.130   0.438  0.1622 -0.0730  0.0859
20688W        W36949   8.173  16.139  16.592 -0.1244  0.0320  0.0814
20689W        W36950   9.387   7.212   4.503 -0.1680  0.1524  0.1124
20690W        W36951  15.883   0.209   0.395 -0.1749 -0.1656  0.1704
20691W        W36952  13.704  10.226   3.993  0.1038  0.0617 -0.0477
20692W        W36953   3.080  14.161   1.126  0.5187  0.2110  0.1538
20693W        W36954  13.975   7.626   3.234 -0.2488 -0.3782 -0.0743
20694W        W36955  11.368   7.238   5.018 -0.3662  0.0661  0.1238
20695W        W36956   2.224  10.274   1.826 -0.2615  0.1893  0.3077
20696W        W36957  17.256  18.013  11.559 -0.0398 -0.3237 -0.1815
20697W        W36958   3.915  11.557  11.511  0.1428  0.0834  0.1074
20698W        W36959  11.993  16.087   4.742  0.0999  0.1436 -0.1528
20699W        W36960   4.709  11.579  11.884  0.2059  0.1867  0.1738
20700W        W36961   0.319   2.899   5.771 -0.1181 -0.0118  0.0821
20701W        W36962  16.844   3.209  15.064 -0.4713  0.0529 -0.0832
20702W        W36963   6.554  12.348   4.569 -0.0783 -0.0430  0.1331
20703W        W36964  12.574  12.688  13.102 -0.0435 -0.1753 -0.0955
20704W        W36965   4.192  11.331  13.401  0.1888 -0.1739 -0.1858
20705W        W36966  14.414   1.635   1.925 -0.2234  0.0881  0.0331
20706W        W36967  17.067   0.026  16.496 -0.0126  0.0323  0.0378
20707W        W36968   4.052  15.682   0.330  0.0596  0.0334 -0.1326
20708W        W36969   7.310   3.110   2.256 -0.2184 -0.2708 -0.3482
20709W        W36970  10.768  10.985   1.543 -0.1450 -0.2009  0.2109
20710W        W36971   1.263  11.137  16.126 -0.0780  0.4010 -0.3021
20711W        W36972   6.681  13.351   5.264  0.1463  0.1818  0.5659
20712W        W36973  17.765  17.329   0.215  0.2642  0.1301  0.2594
20713W        W36974   1.664   5.105   3.649 -0.0770  0.2869  0.0044
20714W        W36975  15.965  10.949   1.515 -0.2822  0.3134 -0.1426
20715W        W36976   6.209  10.657   1.833  0.2604  0.0258 -0.3264
20716W        W36977   5.387   0.431  13.743 -0.1951 -0.0659 -0.2390
20717W        W36978   8.564  11.775  15.486  0.0936  0.2494  0.0656
20718W        W36979   7.785   3.423   2.334  0.0978 -0.0401  0.2034
20719W        W36980  16.315  11.428   1.459 -0.1293  0.2078 -0.1986
20720W        W36981  12.256   4.221  12.559 -0.3813  0.0266 -0.0850
20721W        W36982  15.893   5.813   6.427  0.0494  0.2087 -0.1109
20722W        W36983   3.980  14.924   6.328  0.4020 -0.1534 -0.2563
20723W        W36984   6.420  14.221  15.889 -0.3085  0.0411  0.1777
20724W        W36985  13.639   8.154  11.491 -0.0414 -0.0616  0.2264
20725W        W36986  14.872   7.453   5.312  0.1267 -0.0241  0.0541
20726W        W36987   0.520   0.637  13.093 -0.1537  0.0826 -0.1364
20727W        W36988   7.832   1.324   0.320 -0.1579 -0.3602 -0.2757
20728W        W36989  16.042   3.432   3.919 -0.0703  0.4700  0.2407
20729W        W36990  11.696   1.261   2.882 -0.4705  0.0489 -0.1039
20730W        W36991   4.618  12.802   2.950 -0.1015  0.3195  0.1475
20731W        W36992  13.449  11.808   1.790 -0.1415 -0.1251  0.0971
20732W        W36993   3.240  18.147   3.809  0.0524 -0.0938 -0.1619
20733W        W36994  15.220  14.383   0.378  0.0184 -0.3662  0.2261
20734W        W36995  12.281  10.876  13.227 -0.0245 -0.0028 -0.1549
20735W        W36996   0.627   6.833   2.951 -0.0643 -0.2717 -0.4180
20736W        W36997   1.048   1.507   0.772 -0.4584 -0.3710  0.0581
20737W        W36998   6.625   0.617  12.571  0.0412  0.1302  0.2134
20738W        W36999  16.018   2.052   5.907 -0.4250  0.0472 -0.0396
20739W        W37000   6.985   0.362  13.736  0.2036 -0.2271 -0.0923
20740W        W37001   0.782   6.683  16.640 -0.1989 -0.1837 -0.0714
20741W        W37002  11.147  13.796  14.617  0.2132  0.1069  0.1818
20742W        W37003   1.463  16.225   0.990 -0.3597  0.1907 -0.0174
20743W        W37004  13.843   1.136  14.884  0.0756  0.0574  0.0988
20744W        W37005   2.533  13.941  13.899 -0.1249  0.1469  0.0120
20745W        W37006  14.846   1.474   5.445 -0.1084  0.3224 -0.3067
20746W        W37007   4.900  15.541   1.044 -0.2137 -0.0969 -0.0279
20747W        W37008   8.773   9.493   2.280 -0.0774  0.3610  0.0721
20748W        W37009   1.971   3.897   6.227  0.3076 -0.2247  0.1774
20749W        W37010   4.600   6.837   1.318  0.1651 -0.0530  0.0055
20750W        W37011  11.992   7.632   2.886 -0.1480  0.1280  0.0546
20751W        W37012  14.852   3.788   1.130  0.0320 -0.0647  0.0627
20752W        W37013  14.077  13.769  12.709 -0.0259 -0.3484 -0.2021
20753W        W37014  14.287  14.800   2.362  0.3184  0.2401  0.1236
20754W        W37015   3.657   2.883   0.974 -0.1521 -0.0944 -0.0744
20755W        W37016   6.631   6.866   2.580 -0.2208  0.1737 -0.5372
20756W        W37017   5.928   2.205   2.277  0.1127 -0.2476  0.1768
20757W        W37018  15.563  12.097  11.971  0.1785 -0.0134 -0.1174
20758W        W37019   1.058  15.583   0.437  0.3891  0.3391  0.0632
20759W        W37020  16.947   9.257  12.655 -0.0393 -0.0485 -0.1587
20760W        W37021  16.044  10.135   2.879  0.0276  0.3078  0.1460
20761W        W37022  12.588   3.477  16.102 -0.3389 -0.0810  0.2250
20762W        W37023   0.621   0.528   0.821  0.0078 -0.1509  0.0041
20763W        W37024   5.234  18.145   6.543 -0.2975  0.0750 -0.1486
20764W        W37025   1.457   0.114   3.703 -0.2443 -0.1568 -0.2754
20765W        W37026  12.387   7.878  15.436  0.0106 -0.3039  0.1154
20766W        W37027  15.969   6.982   1.271  0.1498  0.0124  0.1201
20767W        W37028   8.902   6.262   5.276 -0.2167  0.2152 -0.1737
20768W        W37029   1.167  18.000   1.426 -0.2727 -0.3862  0.2245
20769W        W37030   0.121   1.193  15.306  0.0905 -0.2060  0.1315
20770W        W37031   0.236   4.693   1.979 -0.0852 -0.0291  0.0132
20771W        W37032  16.642  12.851   3.321 -0.1285 -0.0969 -0.5078
20772W        W37033   5.156   9.465  14.812  0.0022  0.1215 -0.1277
20773W        W37034  12.583   7.127  13.097 -0.1311  0.1084  0.2666
20774W        W37035   4.031  11.358   3.506  0.0772 -0.0020 -0.4079
20775W        W37036  16.142  10.086   1.826 -0.0578  0.3117 -0.2734
20776W        W37037   1.172  11.188  15.571 -0.0031 -0.1774  0.2475
20777W        W37038  17.992   4.159  15.884  0.0407 -0.0210 -0.0573
20778W        W37039   7.157  14.917   5.272 -0.2401  0.0627 -0.1307
20779W        W37040   0.841  16.787  14.609  0.0395 -0.4154 -0.3118
20780W        W37041  15.131   6.469   2.510  0.0197 -0.0916  0.0020
20781W        W37042   9.026   4.169   0.989  0.0764  0.1594  0.1970
20782W        W37043  16.027   3.575   2.863 -0.2987 -0.0359  0.0289
20783W        W37044   9.585   1.905   3.218 -0.0735 -0.2040 -0.0082
20784W        W37045  17.961   4.431   1.938 -0.0024 -0.0213  0.1753
20785W        W37046   8.010  13.303  12.570  0.2180  0.0981 -0.1724
20786W        W37047   5.480   8.214  12.296  0.1062 -0.0996 -0.1521
20787W        W37048  14.638   4.072   3.193 -0.1620 -0.0657 -0.0625
20788W        W37049  16.962   4.373  16.160 -0.2390  0.0197  0.2767
20789W        W37050  11.017   0.148  15.854 -0.2366 -0.0869 -0.1111
20790W        W37051  12.775  11.915   0.153  0.1316  0.0488 -0.1642
20791W        W37052  14.816   2.779  11.681  0.0318  0.2001 -0.2303
20792W        W37053   9.083  17.079  11.520 -0.0489 -0.0023 -0.0424
20793W        W37054   1.531  16.874  15.888 -0.0126  0.4187 -0.1098
20794W        W37055   4.196   9.133   4.418 -0.2424 -0.2173 -0.1089
20795W        W37056  13.451  15.262   2.263 -0.0252 -0.1077  0.2017
20796W        W37057  12.029   9.599   4.251 -0.1631 -0.3320 -0.0627
20797W        W37058  17.488   8.535   1.431 -0.0309 -0.1802  0.0062
20798W        W37059   5.787   6.679   0.967 -0.0787 -0.0434  0.0373
20799W        W37060  13.931   5.222   1.614 -0.0548 -0.0193  0.1257
20800W        W37061   1.695   0.971   6.093 -0.2134 -0.3302  0.3476
20801W        W37062  12.780   9.308   0.700  0.1753 -0.1055  0.3088
20802W        W37063  16.464   2.321  16.308  0.2090 -0.1140 -0.2184
20803W        W37064  11.952  10.615   2.908  0.2420  0.2521 -0.1598
20804W        W37065   8.496   2.175  11.854 -0.2328 -0.4103 -0.0112
20805W        W37066   0.926   2.229  11.682  0.1086  0.5883 -0.3245
20806W        W37067   6.078   4.405   2.090 -0.0530  0.0399  0.0940
20807W        W37068  12.054  12.954   0.689  0.2146  0.2656  0.0783
20808W        W37069  14.896   2.196  14.882 -0.1161 -0.1561  0.3425
20809W        W37070   5.744   8.151  11.219 -0.2146 -0.0938  0.4663
20810W        W37071  16.086  11.176  11.308 -0.2974  0.0355  0.3409
20811W        W37072  11.821   0.524   0.873 -0.3512 -0.1662 -0.1012
20812W        W37073   5.875   4.512   0.356  0.1565 -0.2721 -0.1291
20813W        W37074   4.384   9.846  15.263  0.1660 -0.0867 -0.1894
20814W        W37075  16.013   8.946   1.723  0.0284 -0.2585 -0.1714
20815W        W37076   9.239   5.130   3.293 -0.3763  0.2309 -0.0164
20816W        W37077  14.884   4.893   3.471 -0.2946 -0.1382  0.0326
20817W        W37078  12.336   4.192  15.700  0.2180  0.0252 -0.0058
20818W        W37079   9.523  13.315   3.415  0.2630  0.2631  0.1517
20819W        W37080   4.189  17.582  15.518 -0.1256  0.0284 -0.2341
20820W        W37081   7.726   9.720  13.777  0.0860 -0.2443 -0.1159
20821W        W37082   8.443   5.662  14.514  0.0509  0.0754 -0.2393
20822W        W37083  15.890  11.917  14.617  0.0221  0.1518 -0.2225
20823W        W37084   1.784   2.732   5.518  0.1407  0.2424  0.2042
20824W        W37085  10.493  18.078   3.871  0.0729  0.2006  0.0244
20825W        W37086  11.742  18.189   3.975  0.0292  0.1206  0.2099
20826W        W37087   3.866  16.959  13.404 -0.4556  0.1539  0.0294
20827W        W37088  14.674  13.351  14.610 -0.0469 -0.2077  0.1095
20828W        W37089   3.754   1.421  13.651 -0.0386 -0.1083  0.0004
20829W        W37090  12.931   9.065   1.548  0.0014  0.1939 -0.3061
20830W        W37091  12.002   9.517  11.724 -0.0119 -0.0707 -0.1051
20831W        W37092   4.572  16.300  11.332  0.3135 -0.4356  0.3467
20832W        W37093   9.394  12.706  13.904  0.4148  0.0087 -0.4059
20833W        W37094  17.603   5.924  15.082 -0.1973  0.3037  0.1131
20834W        W37095  10.032   2.178   0.915  0.0290  0.0193 -0.3836
20835W        W37096  14.253  12.737  16.312  0.2119 -0.2103  0.1804
20836W        W37097   9.705   2.520  11.445  0.1745  0.1429  0.1237
20837W        W37098   0.539  13.774  15.640 -0.0857  0.2268 -0.1652
20838W        W37099  15.769   2.682   3.484 -0.3114 -0.0233  0.1207
20839W        W37100  17.178  12.280   1.205 -0.0529  0.2934 -0.2808
20840W        W37101  10.569   3.919  12.325 -0.1886  0.0045  0.0604
20841W        W37102   0.165  16.651   2.672 -0.1570 -0.2168  0.0596
20842W        W37103  12.774  12.205   2.053 -0.0912 -0.0061  0.0651
20843W        W37104   8.039  14.159  14.878 -0.1544 -0.1254  0.0933
20844W        W37105   6.811  12.335  12.550  0.4175 -0.0831  0.0914
20845W        W37106   1.230   6.411  12.272  0.1854  0.1728  0.0793
20846W        W37107  11.087   2.174  15.992 -0.0983 -0.0806  0.2044
20847W        W37108  10.965  12.928  12.893 -0.1351  0.0819 -0.0086
20848W        W37109   5.751   6.216   1.093  0.1261 -0.0996 -0.0046
20849W        W37110   8.647  13.805  15.659  0.0371  0.0885  0.0525
20850W        W37111  15.300  13.103   0.517  0.0826  0.1113 -0.2517
20851W        W37112   3.395   9.907   5.804 -0.2725 -0.1130  0.0892
20852W        W37113   0.765   1.605  12.013  0.2199  0.0191 -0.6377
20853W        W37114  13.922   5.827  13.090 -0.2242  0.1249 -0.0511
20854W        W37115  16.541  17.214   0.280  0.0844  0.1382  0.0962
20855W        W37116  17.012  11.053  11.643  0.0356  0.1106 -0.2039
20856W        W37117   5.611   2.174  15.676  0.1606 -0.2881  0.0466
20857W        W37118   2.889  16.081   0.444 -0.5407  0.4168 -0.0567
20858W        W37119   4.156   3.896   1.563 -0.2234 -0.1340 -0.1783
20859W        W37120  14.791   0.560   4.242 -0.0311 -0.0222  0.1368
20860W        W37121   7.341  14.067  16.352 -0.1190 -0.2098  0.2567
20861W        W37122   8.274  13.768  12.687  0.1656 -0.0933  0.1405
20862W        W37123   3.163  17.299  13.375  0.0433  0.2323 -0.0553
20863W        W37124   2.810  12.303  12.154  0.2188  0.3019 -0.2135
20864W        W37125   2.476   4.802   2.915 -0.3102 -0.1481 -0.3128
20865W        W37126   2.225  15.933   4.506 -0.0387 -0.0447  0.0523
20866W        W37127   3.002   5.984   0.939 -0.0264 -0.0628  0.1027
20867W        W37128   8.561  12.345  12.772 -0.0314  0.1415  0.0121
20868W        W37129   2.269   8.419   2.902 -0.3680 -0.4337  0.0193
20869W        W37130  10.707  14.132  11.768 -0.0545 -0.1755  0.0854
20870W        W37131  15.052  13.153  11.598  0.0258 -0.1185 -0.2502
20871W        W37132  14.863   4.151  13.052  0.4509  0.0290 -0.0398
20872W        W37133   2.410  17.286   2.922  0.0957  0.2485  0.0141
20873W        W37134  11.907   6.666   1.313 -0.0370 -0.0268  0.2588
20874W        W37135  16.655   3.014  16.248  0.0341  0.2631  0.0939
20875W        W37136  11.584  16.802   4.390 -0.1396  0.0838  0.1519
20876W        W37137   6.812  11.441  14.384 -0.3307  0.3300 -0.2215
20877W        W37138   6.519  11.721  14.718  0.1655  0.0903 -0.1551
20878W        W37139  17.741   6.629   4.123  0.0223 -0.0112  0.1483
20879W        W37140  15.847   2.195   3.431  0.1792  0.1689 -0.0062
20880W        W37141  13.246   9.209  13.814 -0.1236  0.0983  0.4246
20881W        W37142   2.596   7.888   4.430 -0.0526  0.0291 -0.0947
20882W        W37143   8.969   3.366   5.507 -0.2377 -0.2551  0.2931
20883W        W37144  17.834   8.163   0.499 -0.0261  0.1973 -0.2263
20884W        W37145   6.791  15.991  14.534 -0.1397 -0.1037 -0.1702
20885W        W37146   4.184  12.273   5.075  0.3184 -0.1829 -0.0542
20886W        W37147  10.223  17.422  12.135  0.1382  0.0393 -0.0530
20887W        W37148   6.366   6.416  15.060  0.2605 -0.3282  0.2492
20888W        W37149   9.698   5.128  12.298 -0.2087 -0.2439 -0.0633
20889W        W37150   3.388   4.178  16.011 -0.2143  0.0199  0.0123
20890W        W37151   3.778   9.492  12.135  0.1572  0.0278 -0.0957
20891W        W37152   1.460   7.788  12.669  0.1124  0.1651  0.2279
20892W        W37153  11.953   8.652  15.377 -0.1242 -0.0891 -0.1815
20893W        W37154  13.680   7.211   4.355 -0.1532 -0.0356  0.3463
20894W        W37155   0.529  10.505   6.374 -0.1661  0.0347 -0.2319
20895W        W37156   2.449   0.587  10.976  0.0922 -0.0778  0.0470
20896W        W37157   8.084   4.129  11.297  0.0158  0.2724 -0.1463
20897W        W37158   2.970   4.071   3.747  0.0841  0.2391 -0.1299
20898W        W37159  10.697   1.916  13.193  0.2851 -0.1359  0.1044
20899W        W37160   5.687  12.340   3.036 -0.2993  0.0617  0.1161
20900W        W37161   6.995   4.323   0.506  0.2753 -0.2140  0.2958
20901W        W37162   7.732   7.158  13.466  0.0813  0.2469  0.1116
20902W        W37163   5.755   5.949  13.991 -0.0352  0.1048  0.2889
20903W        W37164   5.221   4.997  13.211 -0.1297 -0.0321 -0.0077
20904W        W37165  11.285  18.092  13.455  0.0598 -0.0169 -0.2757
20905W        W37166  17.280   9.753   4.203  0.2243 -0.1063  0.0034
20906W        W37167  17.604  15.246  14.220 -0.0721  0.2464  0.2198
20907W        W37168  12.972   6.360   0.048 -0.1861 -0.2685  0.1015
20908W        W37169   4.428  16.611  15.627 -0.2847 -0.3067  0.0905
20909W        W37170   6.957  12.658  13.534 -0.1227 -0.2259 -0.0172
20910W        W37171   1.675  13.866   4.498 -0.0436  0.3100 -0.3417
20911W        W37172   4.072   5.214  14.942  0.0717  0.0947 -0.2325
20912W        W37173   0.621   5.048  12.850  0.0532 -0.0002 -0.1130
20913W        W37174  18.146   8.264  11.897 -0.2511 -0.1152 -0.0425
20914W        W37175   0.480  13.499   4.008  0.3795 -0.0037 -0.0147
20915W        W37176  16.761  15.842  14.210 -0.0176 -0.3108  0.0140
20916W        W37177   4.097   0.743  16.613 -0.0377 -0.0580  0.1716
20917W        W37178  16.553  13.111   2.101 -0.2886 -0.1145 -0.1827
20918W        W37179   5.863   5.485   5.602 -0.3786  0.3492  0.4064
20919W        W37180   5.679  14.413   5.052 -0.0147 -0.2752 -0.2352
20920W        W37181   5.051   6.726   5.140  0.2341  0.1930 -0.3214
20921W        W37182   4.552   3.881  13.076 -0.0910 -0.3731 -0.2785
20922W        W37183   0.736   2.740  13.692 -0.2937 -0.2660  0.2150
20923W        W37184   0.292  17.676  16.268  0.2713 -0.2175 -0.0065
20924W        W37185  16.196   9.427   3.152 -0.1123 -0.4202  0.1698
20925W        W37186   8.965   0.141  14.512 -0.1568 -0.0598  0.1498
20926W        W37187  15.644  11.261  14.105 -0.3269  0.0906 -0.0580
20927W        W37188   7.211  12.850   1.894 -0.1517  0.1453 -0.1162
20928W        W37189   8.943   5.305   2.115 -0.2651 -0.0143  0.1679
20929W        W37190   9.402   4.548   1.141  0.0383  0.1123 -0.0602
20930W        W37191  13.271   5.803   1.585 -0.0371  0.0633  0.0303
20931W        W37192  15.740   2.910  12.780  0.6082  0.1275 -0.0253
20932W        W37193   1.444  12.883  15.403 -0.1358  0.0634 -0.3208
20933W        W37194   8.975   6.147   3.623 -0.1557  0.0376  0.0557
20934W        W37195  10.948   6.576  15.156  0.2397  0.1026  0.0362
20935W        W37196   0.872  14.237  12.153 -0.0755 -0.4275 -0.2213
20936W        W37197  10.803  17.533   2.047  0.0935  0.2399 -0.0821
20937W        W37198   5.353  10.250  12.513  0.1054  0.0294  0.0957
20938W        W37199   0.725   4.058   5.034  0.3384  0.0925 -0.2080
20939W        W37200   7.957   5.833   5.713  0.0804  0.0003 -0.0339
20940W        W37201  13.238  12.950   2.803 -0.1542 -0.0255 -0.1765
20941W        W37202  12.992  11.345   2.792 -0.0752  0.0122 -0.1486
20942W        W37203  10.058   6.974  13.654  0.1832 -0.3480 -0.2760
20943W        W37204   8.705   4.117   0.198  0.2426  0.2127 -0.0669
20944W        W37205   2.668   1.126   4.130 -0.2510  0.1697  0.1169
20945W        W37206  11.467  13.112  16.259 -0.3366  0.4292 -0.0796
20946W        W37207   7.957   2.905   5.461 -0.0600  0.0703  0.0760
20947W        W37208   5.628   8.707  15.717  0.1113  0.3956  0.0510
20948W        W37209   6.239   9.935  15.451 -0.2048 -0.1949 -0.0493
20949W        W37210  10.317  17.251  10.698 -0.0609  0.3509  0.0510
20950W        W37211   7.609  16.595   2.691 -0.1685  0.1645 -0.2180
20951W        W37212  11.197   2.820  13.264 -0.2308  0.1895 -0.1118
20952W        W37213   1.580   9.394   2.727  0.0468 -0.3088  0.0424
20953W        W37214   2.477  14.127   0.243 -0.1758 -0.0710  0.1785
20954W        W37215   8.580  11.377   2.043 -0.2886  0.1499 -0.0034
20955W        W37216   9.103  10.343  13.376  0.0868  0.1734  0.0026
20956W        W37217   6.370   6.967   2.094  0.0341  0.1683  0.1377
20957W        W37218   9.739   3.772   2.538  0.1771 -0.1514 -0.0546
20958W        W37219   2.104   6.636   4.786  0.1149 -0.1161  0.4517
20959W        W37220  16.953   2.382  13.931 -0.0754 -0.0500 -0.0427
20960W        W37221   2.095  17.621  16.228  0.3765 -0.3080  0.0868
20961W        W37222  13.894  12.911   5.673  0.1230  0.0383 -0.0221
20962W        W37223   1.465   3.271  16.023  0.3213  0.2499 -0.0061
20963W        W37224   3.541   1.048  14.951  0.0915 -0.2810 -0.0470
20964W        W37225  13.207  12.361   3.745 -0.1881  0.2708  0.2004
20965W        W37226   7.165   7.801  15.602  0.2100 -0.0382 -0.1305
20966W        W37227   5.351  16.504   0.628 -0.2713  0.1840  0.3098
20967W        W37228   9.670  18.059  14.602  0.1569  0.0554 -0.1718
20968W        W37229  10.368   4.604   2.081 -0.1682  0.0181  0.2955
20969W        W37230  13.043   0.881  16.345  0.2018 -0.0885  0.1166
20970W        W37231   1.305  14.085   4.277 -0.2931  0.0667 -0.0306
20971W        W37232   3.750   5.934   6.060  0.0295  0.0746 -0.3069
20972W        W37233  10.294  10.295  15.940  0.2624 -0.0817  0.2327
20973W        W37234   3.136  11.330   3.518  0.2349 -0.0336  0.1813
20974W        W37235  16.900   2.602   4.090 -0.1862  0.5396 -0.0727
20975W        W37236  10.118   6.684  14.610  0.0917  0.0773 -0.0909
20976W        W37237  15.080  11.384   0.591 -0.2897  0.0004  0.0101
20977W        W37238   8.922   9.062   5.261 -0.1105 -0.0623 -0.2280
20978W        W37239   9.049   7.741   5.292 -0.2025 -0.1800 -0.0709
20979W        W37240  17.487   8.610   3.475 -0.4793  0.1185 -0.1766
20980W        W37241  15.179   3.897   2.043 -0.1097 -0.0060  0.1613
20981W        W37242   3.600   9.941  12.411 -0.2155 -0.0878  0.0276
20982W        W37243   2.038   8.595   5.325  0.1282 -0.3664  0.1979
20983W        W37244   2.750   1.351   0.757 -0.3156  0.0686 -0.1732
20984W        W37245  16.691   8.428  13.203 -0.2773 -0.1118 -0.5213
20985W        W37246  10.914   8.042  12.682  0.0755 -0.1679 -0.0780
20986W        W37247   4.407   6.580   3.868 -0.2380  0.0997 -0.1046
20987W        W37248   8.687  15.692  15.655  0.0444 -0.0250  0.0846
20988W        W37249  14.916   5.590  16.350  0.0670  0.2785 -0.2336
20989W        W37250  11.026  11.675  11.528  0.3013 -0.5250 -0.1629
20990W        W37251   8.403   3.493  11.788 -0.0487  0.1934  0.0688
20991W        W37252   4.602   6.574   1.828 -0.2773 -0.1743  0.2363
20992W        W37253   2.179   4.809   1.910  0.0410  0.1893  0.1154
20993W        W37254  12.757  11.669   0.609 -0.3213  0.0964  0.0440
20994W        W37255  15.889   7.249  15.986  0.0918 -0.0333  0.2147
20995W        W37256  12.113  15.271  16.183 -0.0488 -0.0659  0.1103
20996W        W37257   2.202   6.207   3.164  0.0484 -0.2671 -0.1406
20997W        W37258   6.730  10.505   2.802 -0.0155 -0.0533 -0.1515
20998W        W37259   5.919   8.895  14.290 -0.1569  0.2787 -0.3304
20999W        W37260  12.741  16.087   4.635  0.0588  0.0089 -0.0867
21000W        W37261   4.608  10.505  14.191 -0.1983  0.0323  0.0109
21001W        W37262   3.827  11.861  15.143 -0.0516  0.0493  0.1339
21002W        W37263  10.535   4.619   5.813 -0.3013  0.0991 -0.0753
21003W        W37264   4.858  15.223   4.797  0.0089  0.3505 -0.1424
21004W        W37265   0.570  17.090   4.597 -0.2619  0.0337  0.1455
21005W        W37266   0.195   8.385   3.213 -0.1077 -0.3690  0.0605
21006W        W37267  15.827  17.091   1.076 -0.0809 -0.1969 -0.0112
21007W        W37268  13.628   5.064   2.586 -0.0483  0.1443 -0.0694
21008W        W37269   9.644  12.387  15.230  0.1087  0.1939  0.1897
21009W        W37270   3.758   5.500  14.298  0.0489 -0.1903  0.3367
21010W        W37271   3.709   6.269   1.273  0.1667 -0.2419  0.0868
21011W        W37272   8.668   8.897  15.475  0.0489  0.1769 -0.1072
21012W        W37273   4.104  13.031   3.044 -0.1711 -0.1593 -0.2513
21013W        W37274   5.296   2.360   5.302 -0.2411 -0.0117  0.2374
21014W        W37275   3.393   9.026  11.737  0.0941 -0.3342  0.1838
21015W        W37276  10.016  12.270  15.516 -0.2196 -0.1380  0.1254
21016W        W37277  15.840   1.307  11.825  0.0125  0.2086  0.1336
21017W        W37278   3.269   6.413   1.069  0.2958 -0.2061 -0.1808
21018W        W37279   6.023   9.778  15.875 -0.1607  0.0220 -0.0182
21019W        W37280   4.779   3.271  13.961 -0.4532 -0.0121  0.2009
21020W        W37281  12.631  10.947   2.568 -0.3176 -0.0545 -0.0120
21021W        W37282   8.736  15.298  16.143  0.0636 -0.2013  0.3687
21022W        W37283   6.779   9.084  13.196  0.2462 -0.2503  0.3799
21023W        W37284  10.700  17.715   0.956  0.4423  0.0320  0.2315
21024W        W37285   6.997   4.179  13.326 -0.2145 -0.0548 -0.1420
21025W        W37286   1.207   0.436  13.283 -0.1931  0.0735 -0.0894
21026W        W37287   8.491   4.121   3.076  0.0873 -0.1588  0.0014
21027W        W37288  17.945   6.094   4.676  0.0118 -0.0395 -0.0347
21028W        W37289   4.814  15.495  15.929  0.0238  0.0254 -0.2787
21029W        W37290   8.510  17.005  15.784  0.1022  0.0935 -0.0062
21030W        W37291   3.519   1.138  12.339  0.1934 -0.0292 -0.1735
21031W        W37292   8.331  17.951   6.737 -0.0729  0.3146  0.0129
21032W        W37293  15.044   1.659   1.056  0.0677 -0.0841 -0.1759
21033W        W37294   8.482   8.171  13.053  0.3214  0.0115  0.0866
21034W        W37295   7.435  10.068   4.474  0.1053 -0.0291 -0.0996
21035W        W37296  17.795   7.858   5.364  0.3378  0.1523  0.0179
21036W        W37297  17.202  14.548  13.957  0.0214  0.3399  0.2213
21037W        W37298   5.426   8.570   3.579  0.0784  0.0776  0.0801
21038W        W37299   6.543  13.995   4.072 -0.2166  0.2225  0.0829
21039W        W37300  15.086   2.469   0.661  0.0672  0.0685 -0.0146
21040W        W37301   7.970   6.786   1.558  0.0568 -0.1952  0.1482
21041W        W37302  12.166  12.112   1.925 -0.3336 -0.3939 -0.0736
21042W        W37303  18.133  17.805  13.708 -0.3495 -0.1977 -0.1453
21043W        W37304  10.915  17.460  12.292  0.1758  0.1154  0.2299
21044W        W37305  17.418   0.218  13.706  0.1524  0.1831  0.2190
21045W        W37306  16.424   8.089   2.965  0.4021  0.4390  0.2897
21046W        W37307   5.068   8.706  16.451  0.2002  0.1951 -0.2578
21047W        W37308   5.124  11.023   5.554  0.0450  0.1570  0.1399
21048W        W37309  14.866  13.348   5.006 -0.1475 -0.4271  0.0031
21049W        W37310   8.461  17.616   1.573 -0.3483  0.0052 -0.3225
21050W        W37311   2.823  12.361  16.359  0.0380 -0.2671 -0.0152
21051W        W37312   8.467  11.589  13.464 -0.0568  0.2344  0.0661
21052W        W37313   3.677   8.989   3.644 -0.2412 -0.2322 -0.1444
21053W        W37314   0.475  16.356  11.850  0.2204 -0.4103  0.0818
21054W        W37315   3.860   2.617   4.394  0.0289 -0.5317 -0.0810
21055W        W37316  15.487   3.750   5.345  0.0047 -0.1818 -0.2981
21056W        W37317   1.850   9.709   1.062 -0.0202 -0.2722 -0.3994
21057W        W37318   8.166  16.475   3.551  0.0256  0.1522 -0.2926
21058W        W37319   4.948  16.000  14.439 -0.1164  0.1326  0.3242
21059W        W37320   4.596   9.041   3.118  0.1859  0.1626  0.1650
21060W        W37321  16.113  16.912  12.087  0.0341 -0.0004  0.1418
21061W        W37322   7.811   2.476   2.253 -0.0696 -0.0497 -0.2964
21062W        W37323  13.414  12.737  14.303 -0.2575  0.1874 -0.0398
21063W        W37324  16.131  11.741   2.546  0.0411  0.3178 -0.3232
21064W        W37325   2.653  12.421   5.135  0.2284 -0.1086  0.0678
21065W        W37326   3.701   1.336   5.430 -0.3693 -0.1992  0.1788
21066W        W37327   7.676   3.892   0.961 -0.0867 -0.1548  0.0234
21067W        W37328   0.373   7.377  13.911  0.2662  0.2385 -0.1499
21068W        W37329  17.514  13.646  15.308  0.0253  0.2029 -0.4459
21069W        W37330   0.303   5.526   4.226  0.1864  0.0756  0.1932
21070W        W37331   3.972  17.215   2.977 -0.0862 -0.0185 -0.1778
21071W        W37332  16.809  11.721   0.111  0.3308  0.1326  0.2103
21072W        W37333  16.941  16.125  14.620 -0.0266 -0.0893  0.1664
21073W        W37334  17.711   5.728   3.851 -0.0266  0.0910  0.0472
21074W        W37335   9.791   1.892   1.274 -0.0776  0.3594  0.0000
21075W        W37336   9.091  10.373   3.501 -0.0205  0.2678 -0.0506
21076W        W37337   1.853   2.282   5.945 -0.1685 -0.2646 -0.1540
21077W        W37338   1.302   5.766  12.910  0.1890 -0.0920  0.4600
21078W        W37339  16.318   6.867  13.284 -0.4670 -0.0800  0.0892
21079W        W37340   9.095   6.337  14.458  0.6178  0.0791 -0.2351
21080W        W37341   1.571  17.131  14.480  0.1551 -0.4457 -0.1879
21081W        W37342  17.527  16.599   2.853 -0.0961 -0.0470 -0.1466
21082W        W37343  15.639   5.432   2.412  0.1285  0.3214 -0.0990
21083W        W37344   6.779  13.496   0.089  0.0604  0.0794 -0.1812
21084W        W37345  16.565   7.005  15.638 -0.0937 -0.0413 -0.2925
21085W        W37346  14.928   8.665   4.068  0.3473  0.0292  0.2781
21086W        W37347  17.034   3.005  15.877 -0.0907 -0.0000  0.0013
21087W        W37348   8.318  14.168  13.245  0.2511  0.0694 -0.2385
21088W        W37349  17.668  15.862   4.708 -0.0789 -0.0620 -0.1262
21089W        W37350  15.127   8.982   2.559  0.0336 -0.3699 -0.2280
21090W        W37351  14.427  18.179   2.415  0.3425 -0.1344  0.0699
21091W        W37352  12.153   3.748  14.384  0.0293  0.0166 -0.2424
21092W        W37353   2.078  10.376   0.542  0.0225  0.0681  0.2170
21093W        W37354   6.667  16.348  11.784 -0.0365 -0.0434 -0.1969
21094W        W37355   5.284   6.864   0.494  0.0303  0.0257  0.0332
21095W        W37356  15.482  12.938   4.258  0.0728  0.1208  0.0891
21096W        W37357  17.197  13.566   4.257 -0.1971 -0.0250 -0.1641
21097W        W37358   3.624   1.153  14.092 -0.0274  0.1027  0.1119
21098W        W37359  13.071  12.196   4.754  0.3259  0.1427  0.4044
21099W        W37360   6.595   1.663  11.775  0.0070 -0.1471  0.0582
21100W        W37361  12.616   3.380   3.378  0.4967  0.1691  0.2056
21101W        W37362   4.107   4.894  16.123 -0.0478 -0.1018 -0.0614
21102W        W37363   3.692   2.105   5.790  0.0673 -0.1695  0.1533
21103W        W37364  14.073   0.183   5.518  0.0490  0.0396  0.0257
21104W        W37365   9.376  11.312   0.339 -0.1805 -0.2220 -0.1421
21105W        W37366   0.005   5.499   0.558  0.1804  0.0536 -0.0366
21106W        W37367   2.191  17.998  15.271 -0.2026 -0.2005 -0.3703
21107W        W37368  13.578   0.709  12.578 -0.3167 -0.0653 -0.0473
21108W        W37369  11.278  11.530   2.802  0.0508  0.0172  0.1260
21109W        W37370  17.057   7.549  13.582 -0.0827  0.0319  0.0214
21110W        W37371   1.471   5.515   3.484 -0.1065  0.2500  0.1902
21111W        W37372   7.442   4.233   1.645 -0.1065 -0.2495  0.1334
21112W        W37373  10.694  11.178   4.538  0.1296 -0.1726 -0.0987
21113W        W37374   2.876  12.593  15.031  0.0310 -0.0549 -0.1232
21114W        W37375  12.076  16.614   0.584  0.0437  0.2794 -0.0454
21115W        W37376   5.643   5.367  15.368  0.2095 -0.1395  0.0812
21116W        W37377  11.647  16.750  16.473 -0.3788 -0.3626 -0.0343
21117W        W37378   6.162   6.523   3.491  0.2276  0.0286 -0.2189
21118W        W37379  15.718   3.013  15.275 -0.2913  0.0171  0.0396
21119W        W37380   7.442   1.662   1.929  0.1832 -0.2719  0.0583
21120W        W37381   9.766  16.161  15.186 -0.1108 -0.1528 -0.1408
21121W        W37382  11.974  14.357  12.106 -0.0337 -0.0085  0.3480
21122W        W37383   4.673   5.232   1.881  0.1289 -0.1690 -0.1735
21123W        W37384  17.926  14.537  15.271  0.1322  0.3372  0.0730
21124W        W37385   4.532  14.604   4.518 -0.3547  0.0947 -0.1922
21125W        W37386  16.310   3.640   1.279  0.1391 -0.1185 -0.2053
21126W        W37387  11.465   5.506   0.313 -0.1073  0.0627  0.1617
21127W        W37388   4.890   8.752  15.996  0.1126  0.0247  0.0147
21128W        W37389  11.518  17.230   0.623  0.0350  0.4203 -0.0196
21129W        W37390  16.081  15.952  11.709  0.2263 -0.0589 -0.0768
21130W        W37391  17.104  15.306  14.547 -0.2593  0.2776 -0.1034
21131W        W37392   5.950   1.463   0.328  0.0628  0.0487 -0.1666
21132W        W37393   0.187   9.012  12.961  0.0759  0.0641  0.0868
21133W        W37394   8.892  12.905  15.315  0.1105 -0.2167  0.0269
21134W        W37395  12.606  13.328   2.203  0.0955  0.3293  0.1715
21135W        W37396   6.725   2.082  14.844  0.1993  0.0581 -0.1397
21136W        W37397   0.147   9.647   0.238 -0.1475 -0.1121  0.1455
21137W        W37398  10.140   5.392  12.402 -0.4076  0.2197  0.1437
21138W        W37399  11.364   9.115   0.140  0.0128  0.1899  0.1135
21139W        W37400   5.509   0.540   4.409 -0.1101 -0.4426 -0.0827
21140W        W37401  12.320  15.622  13.963 -0.0231 -0.1152  0.1149
21141W        W37402  16.205   9.934   4.110 -0.1606  0.0913 -0.0529
21142W        W37403  13.189   7.393  15.529  0.2171  0.1705 -0.0885
21143W        W37404   6.402   0.506  14.658 -0.2812  0.0308 -0.0455
21144W        W37405  12.477   2.885   2.589  0.2739  0.0324  0.0903
21145W        W37406   8.886   8.169   3.005  0.0823  0.0048  0.1490
21146W        W37407   9.517  12.049   1.716 -0.1458 -0.3623 -0.0706
21147W        W37408   1.842   3.710   1.344 -0.0386  0.0164 -0.1266
21148W        W37409   7.050  13.559  12.020 -0.1744  0.0971  0.0604
21149W        W37410  14.288  12.676   5.530  0.1281  0.4335  0.3645
21150W        W37411   2.777  15.703   1.820 -0.3411  0.2994 -0.3133
21151W        W37412  16.848   1.587  16.183 -0.1274 -0.0518  0.0125
21152W        W37413   7.384   2.631  15.390 -0.2127 -0.1519  0.3586
21153W        W37414   9.759   6.397  12.891  0.0610 -0.2479 -0.0232
21154W        W37415  14.647   1.709   1.413  0.2243  0.2285 -0.2329
21155W        W37416  13.800   3.968  13.067 -0.1528 -0.1696 -0.0623
21156W        W37417   8.425   4.755   1.917 -0.2239 -0.1280 -0.0782
21157W        W37418   5.827   5.888   4.154 -0.2851 -0.0167  0.4274
21158W        W37419   3.597  13.745  13.748 -0.2379 -0.3340 -0.1045
21159W        W37420  11.112   9.674   2.648 -0.1014  0.0515  0.1262
21160W        W37421   7.468   8.576  13.083 -0.0013  0.0064 -0.2883
21161W        W37422   9.509  11.216   2.951 -0.3729  0.0138 -0.0260
21162W        W37423  12.539   0.121  13.920 -0.1187 -0.0396 -0.0482
21163W        W37424   9.029  12.936   1.679 -0.0220  0.0272  0.0546
21164W        W37425  14.209   8.513  15.461 -0.1683 -0.1054  0.1732
21165W        W37426  18.175   7.773   1.245 -0.0889 -0.1130  0.0953
21166W        W37427   2.089  15.371  14.420 -0.0202  0.0169  0.1544
21167W        W37428  15.523  12.555  12.409 -0.1056  0.0703 -0.1203
21168W        W37429  17.625   8.230   4.762 -0.1889 -0.0203 -0.0643
21169W        W37430  10.713  12.933   3.058 -0.1518  0.1527 -0.2640
21170W        W37431   8.515  17.295   1.951 -0.1034 -0.0699  0.1716
21171W        W37432   9.077   6.595   0.162 -0.1162  0.1962 -0.1783
21172W        W37433   0.772   7.034   2.497 -0.2136 -0.1090 -0.2368
21173W        W37434   1.172   2.740  15.323 -0.1435 -0.3802 -0.1211
21174W        W37435  13.586   2.094  10.907 -0.1263 -0.1080 -0.1340
21175W        W37436   0.674   8.211  15.426 -0.0210  0.0807 -0.1307
21176W        W37437  13.838   6.546  14.578  0.0985 -0.2056  0.4364
21177W        W37438  14.036   9.352   2.054  0.1264  0.1332  0.1473
21178W        W37439  12.744  12.844   0.402 -0.2791  0.3754 -0.1256
21179W        W37440  14.426  10.434  15.503 -0.2080 -0.2520 -0.1335
21180W        W37441  17.451   4.492   5.451 -0.0083 -0.1920  0.2657
21181W        W37442  11.246   3.202  12.003  0.3403  0.0476  0.2303
21182W        W37443   6.805  13.747   5.604  0.2865 -0.3182 -0.3510
21183W        W37444  13.427  10.859  12.023  0.2888  0.1077 -0.1641
21184W        W37445   4.121   2.387   3.817  0.1295 -0.1751  0.0446
21185W        W37446  15.634  12.808   3.523  0.4234  0.3083  0.1388
21186W        W37447  12.397   3.196   1.534 -0.1114 -0.1248  0.0736
21187W        W37448  16.729   9.126   5.588  0.1154 -0.2455  0.0103
21188W        W37449  14.201  11.335   0.443 -0.0623  0.2527 -0.0315
21189W        W37450   9.126  11.098   5.212 -0.0211  0.2443  0.1138
21190W        W37451  12.875  12.253  16.432 -0.0524  0.4051 -0.1748
21191W        W37452  15.095   4.468   2.018 -0.0231 -0.1287  0.2702
21192W        W37453  14.548   4.294   1.196  0.0732 -0.0552 -0.0781
21193W        W37454  15.858   4.829   3.139 -0.0356  0.3633 -0.0790
21194W        W37455   8.951   7.558  14.626  0.3767 -0.1766  0.0115
21195W        W37456  13.817   0.477   4.583  0.2316 -0.1204 -0.4874
21196W        W37457   1.412   6.284   0.804 -0.0319  0.2289  0.2382
21197W        W37458  17.207   4.066  16.527  0.1224 -0.0928 -0.1390
21198W        W37459  12.201  10.436  16.404 -0.0971 -0.2080  0.0102
21199W        W37460  16.424  17.703   4.783  0.0745  0.0652 -0.1875
21200W        W37461   3.572  14.369   5.166  0.1055 -0.3822  0.2356
21201W        W37462   5.202   2.077   2.045  0.0477  0.0624 -0.2379
21202W        W37463  11.875   1.894  12.394  0.0478 -0.0277 -0.0767
21203W        W37464  11.138   8.316   3.366  0.3552 -0.0405  0.1065
21204W        W37465   2.838   0.355  14.187 -0.0065 -0.0284 -0.1355
21205W        W37466  15.016  16.206  12.388  0.2912  0.2496  0.0991
21206W        W37467   9.105   9.756   4.329 -0.0746 -0.1614 -0.0283
21207W        W37468   8.201   0.070  13.952  0.0109  0.1372  0.1224
21208W        W37469  17.551  15.119  13.721 -0.0025  0.0900 -0.1091
21209W        W37470  12.775   1.794  14.185 -0.1741  0.2650 -0.1215
21210W        W37471  11.042   7.246   1.301 -0.1899 -0.3561  0.2151
21211W        W37472  15.758   1.532   4.059  0.0877 -0.1706  0.4058
21212W        W37473   1.767   6.285  12.437  0.1616  0.1998 -0.0500
21213W        W37474   9.047  10.524  13.918  0.1447  0.0660 -0.1802
21214W        W37475   5.596   5.408  14.029  0.0460 -0.0339 -0.2815
21215W        W37476  10.992  16.801   5.502 -0.1306 -0.0102 -0.0164
21216W        W37477   9.185   8.852  12.786 -0.0322  0.2517  0.0345
21217W        W37478   3.357  11.186  16.344  0.0728  0.4621 -0.0438
21218W        W37479  17.974   0.978  13.763 -0.1238  0.1953 -0.1050
21219W        W37480  16.130   5.752  15.981  0.1329 -0.1134 -0.3088
21220W        W37481   2.138  15.817   2.879  0.0115 -0.1374 -0.2567
21221W        W37482  14.046  15.762  12.928  0.4229 -0.1191  0.2574
21222W        W37483   7.522  15.411   2.629 -0.0721  0.1612 -0.2522
21223W        W37484   8.184   6.279  14.354  0.5046  0.0090  0.1479
21224W        W37485  17.420   2.376   6.038 -0.0896 -0.2133  0.1993
21225W        W37486   7.866   4.158  13.422 -0.2312 -0.0674 -0.1586
21226W        W37487  11.558  11.246  13.381  0.1287 -0.1361 -0.2456
21227W        W37488  10.680  10.733  13.130  0.0453  0.0164  0.0272
21228W        W37489  16.668  12.705  14.517  0.1136 -0.1078 -0.3851
21229W        W37490  17.904   8.155  12.357  0.2702  0.2230 -0.3750
21230W        W37491   3.600   4.137   3.644  0.3460 -0.1105  0.2307
21231W        W37492  10.153  14.006  13.363  0.3395 -0.1510 -0.1148
21232W        W37493  13.982  10.086   4.939  0.3902  0.2100  0.1654
21233W        W37494  14.218  13.840   2.412  0.0543  0.0465 -0.0175
21234W        W37495   4.142   2.582   0.321  0.2089  0.2616  0.1595
21235W        W37496   7.141   0.633   3.063 -0.0412 -0.3229 -0.2775
21236W        W37497  10.503  13.492   3.026 -0.2318 -0.0732 -0.0504
21237W        W37498   4.020   7.156  13.439 -0.1286  0.3128 -0.2676
21238W        W37499  14.284  17.181  16.049  0.1631 -0.2340  0.1579
21239W        W37500   5.555   2.505   2.177  0.1241  0.1371  0.1002
21240W        W37501  15.900  12.601   4.450 -0.1678  0.1629 -0.1441
21241W        W37502   2.910   0.074   4.663 -0.0665 -0.0482 -0.1735
21242W        W37503  16.392   9.852  13.087 -0.0646  0.1838  0.1702
21243W        W37504   0.176   1.346   2.911  0.0436  0.1844 -0.1806
21244W        W37505   2.768  15.383  15.995 -0.1178  0.2497  0.1129
21245W        W37506   6.835  14.651  15.864  0.0317  0.0985 -0.5071
21246W        W37507  11.834  13.941   1.725 -0.0663  0.2194  0.0530
21247W        W37508   7.773   6.444  11.470 -0.0049 -0.1024  0.0986
21248W        W37509   1.731   6.006  13.755 -0.0452 -0.1024 -0.0263
21249W        W37510  13.332  15.423  15.342 -0.0307  0.0952  0.0483
21250W        W37511   7.370  18.101   4.948 -0.4053 -0.1720 -0.4568
21251W        W37512   7.559   4.487  15.868 -0.0823 -0.0261  0.3092
21252W        W37513   0.656   4.745   0.027  0.1730  0.1350  0.0872
21253W        W37514  12.327  16.698  12.513 -0.1307 -0.2029  0.3508
21254W        W37515   0.174   8.028   2.911  0.2873 -0.1946  0.1240
21255W        W37516   3.379   8.785   1.250 -0.0495  0.0092  0.1001
21256W        W37517  13.719  13.727   2.647  0.0864 -0.1392 -0.0090
21257W        W37518   5.691   3.833  13.691 -0.0863  0.1351 -0.0098
21258W        W37519   4.937  15.204   3.730  0.0850 -0.0685 -0.0979
21259W        W37520   6.071   1.399   2.164  0.0291  0.0855 -0.3330
21260W        W37521  17.391   0.117   4.650  0.0697 -0.2715  0.0073
21261W        W37522  16.797  11.142   3.975 -0.2073  0.0090  0.2109
21262W        W37523  12.823  14.100  11.516  0.0509 -0.0414  0.2850
21263W        W37524  13.755  14.511   3.655 -0.0565  0.2567  0.2226
21264W        W37525   9.536   4.019   4.873  0.3286  0.2667  0.0270
21265W        W37526  10.030  11.585  11.952  0.0157  0.2711 -0.1430
21266W        W37527   5.517  17.023  16.540  0.3845 -0.1118  0.0741
21267W        W37528   9.765  12.213  12.698 -0.0247 -0.0198 -0.0345
21268W        W37529  13.317  11.524  14.405  0.1476  0.1208 -0.1972
21269W        W37530   5.835  17.503  16.420  0.3588 -0.0134  0.0959
21270W        W37531  11.521   2.687  11.676 -0.0209 -0.3381  0.0710
21271W        W37532  17.758   1.379  14.483 -0.1058  0.0201 -0.2076
21272W        W37533  15.452   2.833  13.262  0.2767 -0.0732 -0.0281
21273W        W37534  17.898   2.324  15.130  0.0214  0.2126  0.0475
21274W        W37535   8.938   0.375   5.310  0.0235  0.0035  0.1285
21275W        W37536   5.276   3.708   5.517 -0.0696 -0.0309  0.0062
21276W        W37537  18.054  11.488  14.499 -0.1501 -0.1254  0.1175
21277W        W37538  15.037   1.357  15.910 -0.0520  0.0178 -0.1625
21278W        W37539   5.014   2.893   3.244  0.0467  0.1329 -0.1422
21279W        W37540   5.327   3.992  12.610 -0.1411  0.3534 -0.0507
21280W        W37541   1.604  17.095   5.784 -0.1975 -0.1164 -0.2704
21281W        W37542   3.380  14.890  14.357  0.0187 -0.0037  0.2518
21282W        W37543  17.657  11.674  16.342  0.1059  0.1478 -0.3467
21283W        W37544  12.576   0.634  15.468  0.2456  0.0801 -0.0415
21284W        W37545   3.600  14.139   3.860  0.0286 -0.2461 -0.0065
21285W        W37546  15.246   1.942   1.424  0.0950 -0.2117  0.0313
21286W        W37547   7.402  11.181  14.843  0.1602  0.0943 -0.2446
21287W        W37548  10.987   5.802   0.375  0.0696  0.0131  0.0119
21288W        W37549  13.781   9.200  13.611  0.0010  0.0643 -0.1957
21289W        W37550   9.448   5.591  11.188 -0.0268 -0.1293  0.0576
21290W        W37551   0.984  13.031  15.963 -0.1360  0.1286 -0.1328
21291W        W37552   1.770   7.021   2.677  0.0160  0.2639 -0.0661
21292W        W37553   5.454  15.808   5.703  0.5612 -0.0323 -0.1322
21293W        W37554   2.141   5.762   0.964 -0.1522  0.0775  0.2782
21294W        W37555   6.617  17.013   5.346 -0.0184 -0.0010  0.2541
21295W        W37556   4.521   9.650  13.172  0.0717 -0.1585  0.3752
21296W        W37557  17.115   5.708  12.935 -0.1236  0.0848 -0.1917
21297W        W37558   9.206  18.083  12.650 -0.0366 -0.0463  0.2664
21298W        W37559   0.053   9.016  14.335  0.0620 -0.1533  0.0622
21299W        W37560   3.986   0.259  14.381  0.3043 -0.2680  0.0628
21300W        W37561  15.303  17.173   5.982  0.1933  0.2506 -0.2061
21301W        W37562  10.036  14.201   0.663  0.0239 -0.3678 -0.0711
21302W        W37563   1.674  13.708  15.871  0.0363  0.1176  0.2941
21303W        W37564   5.433  10.679  13.913  0.1310  0.0984  0.2357
21304W        W37565   8.982   5.611  11.528 -0.0997 -0.0642  0.0668
21305W        W37566   6.629   0.078  14.563 -0.1379  0.3484  0.1165
21306W        W37567  15.772   3.884  12.427  0.4414 -0.1277 -0.1531
21307W        W37568   1.888  10.160   3.521  0.1922 -0.1164 -0.2910
21308W        W37569  17.165   3.632   3.605  0.0261  0.1771 -0.1747
21309W        W37570   1.512   1.487   6.075  0.0713  0.1791  0.1033
21310W        W37571  12.230   3.318  13.027 -0.2792  0.0016 -0.0612
21311W        W37572   2.173   5.636   3.067 -0.1814  0.1326  0.0103
21312W        W37573  11.713  14.012  13.949  0.4814 -0.3169 -0.0869
21313W        W37574  15.924  12.382  15.375 -0.4202  0.0500  0.0534
21314W        W37575  10.187  10.300  12.548  0.1917 -0.0050 -0.1493
21315W        W37576   3.151   4.174  12.741 -0.2308 -0.0018 -0.0409
21316W        W37577   0.467  12.944   4.159 -0.0844 -0.2277 -0.1305
21317W        W37578   5.726  18.083   2.541  0.0323 -0.3949 -0.3036
21318W        W37579  14.331   2.679  16.219  0.0456 -0.0295  0.4461
21319W        W37580  17.563   8.727  13.149  0.0218  0.1793 -0.2225
21320W        W37581  17.522  14.885  13.135 -0.2498  0.2387  0.1245
21321W        W37582   0.853   3.862   5.500 -0.3717  0.3842  0.1619
21322W        W37583   4.441   3.869   4.065  0.0312 -0.0483 -0.0794
21323W        W37584  13.816   3.136   1.525 -0.3144  0.0623  0.0663
21324W        W37585  17.060  13.039   1.636 -0.0444  0.1764 -0.1321
21325W        W37586   2.551   3.285  14.784  0.0413  0.0216 -0.0495
21326W        W37587   2.836  11.856  16.260 -0.0566 -0.0199 -0.2554
21327W        W37588  12.008  13.547  15.080  0.1299 -0.0296 -0.0901
21328W        W37589   0.335   4.228   0.735  0.0041  0.0067 -0.4637
21329W        W37590   5.071   7.579  15.038  0.0812 -0.0596 -0.1013
21330W        W37591   9.463   2.196   0.948  0.0160  0.0693 -0.1445
21331W        W37592  14.289   3.102  12.297 -0.0136  0.0059 -0.0660
21332W        W37593   6.257  13.791   1.681 -0.3005 -0.0773  0.0259
21333W        W37594   0.064   5.311  16.305  0.0507  0.0088 -0.0192
21334W        W37595   2.866  15.929  15.797 -0.1291  0.1024 -0.3549
21335W        W37596  17.390   1.628   3.108 -0.0314  0.2140  0.0034
21336W        W37597  13.535   0.186   5.394 -0.0555 -0.1420 -0.0608
21337W        W37598   4.246   4.618   4.970  0.2527 -0.4933 -0.0043
21338W        W37599   8.803  16.035  14.499 -0.2146  0.3425  0.1398
21339W        W37600   7.040  17.990   0.102 -0.1333 -0.2621  0.2116
21340W        W37601  13.208   3.549  14.172 -0.3342 -0.0363 -0.2795
21341W        W37602   8.002  15.898   5.174 -0.0089 -0.2046  0.3230
21342W        W37603  16.069  16.861  15.998  0.1730 -0.2891 -0.1047
21343W        W37604   5.730   2.313   3.672 -0.1438  0.1380 -0.1239
21344W        W37605  12.062   8.595  16.303 -0.2082  0.0000  0.1074
21345W        W37606  13.649   0.927  15.726  0.0439  0.2058  0.0474
21346W        W37607  14.244   5.751   2.680 -0.2748  0.0584 -0.3855
21347W        W37608  10.975  10.610  15.103 -0.1525 -0.0178 -0.1433
21348W        W37609   1.405   3.629   5.499  0.1305 -0.0507  0.2096
21349W        W37610   3.215  14.517   2.336 -0.0577  0.2047 -0.2242
21350W        W37611   9.179   7.468   1.818  0.3003  0.1395 -0.3148
21351W        W37612   6.190   5.460  14.772 -0.3227 -0.1382 -0.0145
21352W        W37613   1.210  11.156   3.702  0.2550  0.2950 -0.1447
21353W        W37614   5.617  10.694   0.746  0.0996 -0.0876  0.1749
21354W        W37615   2.511  13.114  14.295  0.2395 -0.1021  0.0657
21355W        W37616   6.463   9.104   5.146 -0.2841 -0.2856 -0.3153
21356W        W37617   0.104  16.717  14.198 -0.2050 -0.0008 -0.1961
21357W        W37618   2.811  17.197  12.166  0.0075 -0.0019  0.2014
21358W        W37619   0.119  12.819  16.597  0.2335 -0.1262 -0.0241
21359W        W37620  10.628  13.093   5.113  0.2850  0.0572 -0.0524
21360W        W37621   8.311  11.305   5.581  0.2197 -0.0447  0.0456
21361W        W37622   6.121   3.615  13.595  0.1582 -0.0829 -0.2955
21362W        W37623   9.190   0.119  13.773 -0.1523 -0.2983 -0.0493
21363W        W37624  12.878   2.041  12.701  0.1223  0.2841 -0.2814
21364W        W37625   1.303   6.090   3.206  0.0499 -0.0861 -0.0476
21365W        W37626  11.084  13.948  16.371  0.3485  0.0856  0.0180
21366W        W37627  17.274   5.011   1.608  0.3269 -0.0331 -0.1916
21367W        W37628  16.676  16.483   1.812  0.3460 -0.1326  0.0852
21368W        W37629   6.220  10.514   3.606  0.0258  0.2617 -0.0793
21369W        W37630  11.460   1.546  12.527 -0.0863  0.2225 -0.1576
21370W        W37631   8.804   9.279  15.233 -0.1962 -0.0800  0.0081
21371W        W37632   5.468  14.277  16.256 -0.0352 -0.2465  0.1474
21372W        W37633   9.779   5.573  13.183  0.0212 -0.2381  0.2258
21373W        W37634   2.735  17.008   2.047  0.1643 -0.1261  0.4179
21374W        W37635  17.644   5.505  11.709 -0.0775 -0.0332  0.4595
21375W        W37636   8.961   0.265  12.920  0.2159  0.1216  0.0756
21376W        W37637   9.494   0.608   0.572  0.2276 -0.1552 -0.2861
21377W        W37638   4.510   0.486  16.373 -0.2167 -0.0119  0.2858
21378W        W37639  16.045   9.312  14.252 -0.2167 -0.0957 -0.1111
21379W        W37640   6.062   8.043   0.587 -0.1316  0.1130  0.0501
21380W        W37641   0.925  15.017  14.094 -0.0327  0.3052 -0.1673
21381W        W37642  11.136  14.347   4.007 -0.4959  0.3269  0.2017
21382W        W37643  11.972   4.079  16.056 -0.1696 -0.0255 -0.1355
21383W        W37644  17.603  14.611   2.064 -0.1390  0.1898  0.0150
21384W        W37645  16.696  17.470  12.548  0.0574 -0.0890  0.0929
21385W        W37646   8.965  15.862   6.075 -0.0909  0.1719 -0.0087
21386W        W37647   6.722   6.099  15.221  0.1323 -0.1116 -0.0973
21387W        W37648   1.737   6.181  11.957 -0.0867  0.0777 -0.0322
21388W        W37649  10.273  10.003  12.067 -0.2172 -0.3226 -0.1040
21389W        W37650   5.446   6.454  13.608 -0.1890 -0.2066  0.2639
21390W        W37651  16.302  14.945  16.058 -0.2588 -0.2281 -0.0236
21391W        W37652  15.413   7.441   5.228  0.0311 -0.1271 -0.0085
21392W        W37653  17.951  13.409  12.579  0.2454  0.0130  0.0095
21393W        W37654  17.149   9.617  14.739  0.0288 -0.0615  0.2888
21394W        W37655   2.051   5.806  14.528 -0.3212 -0.3114  0.0405
21395W        W37656   6.279   4.419   1.194  0.3708  0.3272 -0.0570
21396W        W37657   8.086   0.556   1.926  0.3580 -0.1858  0.0663
21397W        W37658   8.109   3.725  13.300 -0.0601  0.0800 -0.0161
21398W        W37659   0.243  13.030   2.161  0.1482 -0.0248  0.0689
21399W        W37660   1.212   5.523   5.812  0.2412 -0.0146 -0.0373
21400W        W37661  16.850  14.339   3.298  0.2366  0.0565  0.0618
21401W        W37662   9.679  14.252   2.280 -0.1727  0.1260 -0.0022
21402W        W37663  12.569   4.434   2.351 -0.1432 -0.1097  0.0230
21403W        W37664   5.648  13.663   2.960  0.1272  0.2077 -0.1792
21404W        W37665  13.885   4.617  11.731  0.0714 -0.0386 -0.0014
21405W        W37666   4.201   2.277   4.375  0.2046 -0.1430  0.1616
21406W        W37667  10.256   3.623   1.378 -0.2280  0.1410 -0.0026
21407W        W37668  13.530  14.850   1.982  0.2603 -0.1036  0.1752
21408W        W37669  17.797  16.213  12.140  0.3704 -0.0271 -0.0285
21409W        W37670   7.847   2.910   1.992 -0.0509 -0.0023  0.1946
21410W        W37671   5.268   3.070  12.299  0.0583 -0.1432 -0.1499
21411W        W37672   2.292   9.754   3.429  0.0021  0.0302  0.3084
21412W        W37673  11.727   6.698  14.470  0.2621  0.0479  0.1070
21413W        W37674   3.156   6.179  12.248  0.0372 -0.0880  0.1687
21414W        W37675  10.499  13.670   2.369 -0.2747 -0.0393  0.1151
21415W        W37676  16.035  12.656  16.138 -0.0568  0.0852 -0.3082
21416W        W37677  14.337   9.587   4.632  0.1438  0.2774 -0.2579
21417W        W37678   2.743  12.026  13.616 -0.1947  0.0955  0.2701
21418W        W37679  11.556   7.211  11.558 -0.1998 -0.1070 -0.1684
21419W        W37680   3.214  10.367   0.267 -0.1323 -0.2623 -0.1570
21420W        W37681  11.636  11.474   0.368  0.0514 -0.3130  0.0969
21421W        W37682   6.641  12.953   1.117  0.0594 -0.1705  0.0843
21422W        W37683   4.586   4.401  12.864  0.3265  0.0166  0.0618
21423W        W37684  11.546   3.024  12.830 -0.0703 -0.2997 -0.2034
21424W        W37685  15.044   4.764   5.116  0.0907  0.0606 -0.1804
21425W        W37686   9.848   8.199  12.805  0.0407 -0.2835 -0.1294
21426W        W37687   8.116  14.724  12.277 -0.2554  0.1065  0.0967
21427W        W37688   6.731  16.433  14.753  0.3507  0.1430  0.0483
21428W        W37689   1.681   0.754  12.508 -0.0542 -0.1554 -0.0463
21429W        W37690  15.361  17.679  11.593  0.0678 -0.3698  0.0862
21430W        W37691   3.959  12.076  11.768 -0.0680  0.4022  0.1775
21431W        W37692  17.492  11.525  12.197 -0.0402 -0.1547  0.2197
21432W        W37693   1.716   3.206   5.213 -0.0095 -0.1057 -0.2412
21433W        W37694   6.709   6.651  12.273 -0.0810  0.1080 -0.0848
21434W        W37695  17.045  11.482  15.437 -0.1790 -0.2975  0.1808
21435W        W37696  18.107   2.909  16.115  0.0706 -0.1424 -0.0548
21436W        W37697  17.425   7.673  13.157  0.2785  0.2562  0.1402
21437W        W37698   6.335  13.401  15.493  0.0816 -0.1270  0.3531
21438W        W37699  15.114  16.779   5.125 -0.1116  0.0352 -0.0107
21439W        W37700   1.041  12.195   0.579 -0.1787  0.0870  0.1381
21440W        W37701   1.923  13.594   1.636 -0.1843  0.1205  0.1488
21441W        W37702  12.446   5.490   2.374  0.1184  0.0424  0.1149
21442W        W37703  10.396   1.106   3.374 -0.1026 -0.1761  0.0988
21443W        W37704  14.684   8.952  13.274  0.0627  0.1776  0.3212
21444W        W37705   8.312  15.263   2.538 -0.0089  0.1203 -0.0697
21445W        W37706   8.773  15.046   2.361 -0.1988  0.1601  0.0834
21446W        W37707   0.048  14.495   3.197 -0.2182 -0.5604 -0.0037
21447W        W37708  16.312  15.771   4.614 -0.3466 -0.3098  0.2353
21448W        W37709   7.412   1.356   5.043  0.0393  0.2845 -0.0412
21449W        W37710  17.772   6.922  14.523 -0.1434 -0.0734  0.2931
21450W        W37711   3.253   8.695   1.706 -0.1517 -0.0297  0.0452
21451W        W37712   6.524   4.053   2.168 -0.0090 -0.0933 -0.0477
21452W        W37713  16.900  10.871  13.799  0.1838 -0.0732 -0.3311
21453W        W37714   3.231  12.627  16.094 -0.1947  0.0166 -0.0203
21454W        W37715  10.392   6.643  13.941 -0.1355 -0.0845 -0.1695
21455W        W37716   8.959   9.297  14.147  0.2614  0.1760 -0.0475
21456W        W37717   4.755   7.662   1.164 -0.1016  0.0101 -0.5075
21457W        W37718  18.016   3.214   3.045 -0.0473  0.0163 -0.1454
21458W        W37719   9.506  17.148  15.986  0.0883 -0.0129 -0.2355
21459W        W37720  16.672  11.540   1.071 -0.0774  0.4051  0.3963
21460W        W37721   2.542   5.817  14.393  0.0482  0.3259 -0.1859
21461W        W37722  16.496   9.387  16.327 -0.1880  0.0787 -0.0218
21462W        W37723   0.740   4.567   6.900  0.1438  0.3139  0.0695
21463W        W37724  12.369  16.722  11.481 -0.1832  0.0640  0.0090
21464W        W37725  11.111   7.361   2.674 -0.2482 -0.2877  0.0735
21465W        W37726  14.671   0.329   2.643  0.1921  0.1248 -0.0824
21466W        W37727   6.900   5.257  14.795  0.1643 -0.2492  0.1648
21467W        W37728   4.425   4.331   3.924  0.0132 -0.2671  0.1423
21468W        W37729  17.807   9.396  12.627 -0.1424  0.1072 -0.1543
21469W        W37730   7.207   2.911  10.365 -0.1216 -0.0076  0.1867
21470W        W37731   6.887   7.920  16.049  0.0846 -0.0349 -0.2455
21471W        W37732   1.669   2.381   3.358  0.1741  0.1382  0.1438
21472W        W37733  11.587   7.064  14.034  0.1922  0.5522 -0.0207
21473W        W37734   5.314   4.018   3.445 -0.0701  0.2551 -0.1585
21474W        W37735  13.105   9.981  13.282  0.0123 -0.1695 -0.2050
21475W        W37736   6.931   7.064  15.111  0.3953  0.2142  0.0927
21476W        W37737  15.638  10.310   0.087  0.0943 -0.1072  0.3195
21477W        W37738   3.145  16.823   2.819 -0.1777  0.1067 -0.2420
21478W        W37739   4.948   0.363   1.143  0.3101 -0.2742 -0.1107
21479W        W37740   8.310  14.529   5.155  0.1241 -0.2706 -0.1223
21480W        W37741  10.306  13.830  13.871 -0.1472  0.0942 -0.0282
21481W        W37742  13.943  13.123  16.434 -0.1660  0.3408  0.2271
21482W        W37743   3.277  16.920   1.802  0.0261 -0.0132 -0.1744
21483W        W37744   0.709  11.917   2.612 -0.1876 -0.0725 -0.2536
21484W        W37745   3.979   7.142  13.980 -0.1191 -0.1799 -0.2229
21485W        W37746   8.607  10.263  14.498 -0.0948  0.0362 -0.5013
21486W        W37747  10.595   0.915   2.335 -0.3323 -0.1686 -0.0438
21487W        W37748   3.510  16.759  13.029 -0.2574  0.3328  0.1147
21488W        W37749   8.878  14.064  14.940  0.2353  0.2944 -0.3006
21489W        W37750  15.112   8.237  16.204  0.2960 -0.2221  0.1820
21490W        W37751  12.927   3.291  14.599 -0.2422  0.0074  0.0095
21491W        W37752  11.841  16.651  12.043 -0.2510 -0.0901  0.0892
21492W        W37753  17.288   0.688   0.367 -0.1025 -0.2864 -0.2728
21493W        W37754  16.235   9.159   5.671  0.0669 -0.1310  0.0315
21494W        W37755   9.746  17.511   5.772 -0.1461  0.3959  0.1019
21495W        W37756  16.544  10.150  12.722  0.0249  0.1051  0.0064
21496W        W37757  15.120   8.349   3.667 -0.1856 -0.1522 -0.1253
21497W        W37758  11.102  15.975  11.479 -0.0366  0.1096  0.0798
21498W        W37759   2.024   9.527   3.033 -0.0763  0.0930  0.0694
21499W        W37760   1.459  11.794  13.956 -0.0090 -0.3365  0.0701
21500W        W37761  15.786   9.184   0.648  0.1139  0.2774  0.5572
21501W        W37762  13.608  16.187  12.538  0.0771 -0.0249  0.3280
21502W        W37763  17.996  17.643  11.962  0.0941 -0.0308  0.0447
21503W        W37764   3.108  12.793   5.464  0.0119  0.1241  0.1453
21504W        W37765   0.386  11.606  14.455  0.1228 -0.0349  0.0104
21505W        W37766   5.970   1.071  16.403  0.1545 -0.0711 -0.0479
21506W        W37767  12.654   1.310   3.811 -0.0566 -0.1762  0.0596
21507W        W37768  14.874   4.063  13.768  0.0014  0.2300 -0.0306
21508W        W37769   5.638   0.483  15.189 -0.0143 -0.0463  0.1399
21509W        W37770  17.123   1.953  13.141  0.2858 -0.5817  0.0696
21510W        W37771  16.275   0.012  11.641  0.0127 -0.0337  0.1974
21511W        W37772  11.123   4.566  16.178  0.1440  0.0370  0.1495
21512W        W37773   5.299   0.174  13.345  0.1936  0.1523 -0.3418
21513W        W37774   4.467  15.666   1.247  0.0140  0.0345 -0.1271
21514W        W37775   1.673  11.843   2.280 -0.0033 -0.0705  0.3082
21515W        W37776   0.881  10.565   4.872  0.2223  0.3744  0.2355
21516W        W37777   3.150  11.296   4.659 -0.3199  0.3437  0.0190
21517W        W37778  10.671   0.996  12.455  0.0765 -0.1661  0.1136
21518W        W37779   8.778  11.590  14.249  0.0199 -0.1242  0.0314
21519W        W37780   8.960  16.128   1.704 -0.0508 -0.0903 -0.1321
21520W        W37781   3.543   1.801  15.934  0.7239  0.0358  0.3719
21521W        W37782  14.138  14.146   1.153 -0.0019  0.3354  0.0292
21522W        W37783  15.444   2.410  11.237  0.0376  0.0383  0.0141
21523W        W37784   4.274  17.458   1.157  0.3646  0.1854 -0.2244
21524W        W37785   2.291  11.112   0.872  0.0217  0.0073  0.3666
21525W        W37786  16.016  13.983   0.460  0.3234 -0.1598  0.2186
21526W        W37787   2.278   3.719   2.584  0.0688  0.2157  0.0640
21527W        W37788   5.310  17.954   2.893  0.2349  0.2731 -0.2521
21528W        W37789  15.517   5.326  13.641 -0.0258  0.2607 -0.0273
21529W        W37790  14.537  12.810  15.263 -0.1043  0.4564 -0.1579
21530W        W37791  17.816   6.893  13.607  0.0561  0.0588 -0.1724
21531W        W37792  13.292   4.026  16.366  0.1270 -0.2640 -0.2418
21532W        W37793  17.108  14.878  14.819 -0.0875  0.1906 -0.0154
21533W        W37794  16.646   3.137   2.323  0.1707  0.1081  0.3186
21534W        W37795   3.928   9.377   5.140  0.0068  0.1132  0.2626
21535W        W37796   2.364  11.159  15.380 -0.0962 -0.2535 -0.1241
21536W        W37797   8.187  15.126   0.068 -0.2149  0.0640 -0.0180
21537W        W37798  13.412  10.153   1.552 -0.0868 -0.3175  0.3864
21538W        W37799  11.023   3.806   3.780  0.0022 -0.1292 -0.0252
21539W        W37800  16.394   8.655   4.428  0.0655  0.0944  0.3714
21540W        W37801  11.161   9.843   4.551 -0.0955  0.0168  0.3772
21541W        W37802   1.740  18.170  10.718 -0.1352 -0.1636  0.0475
21542W        W37803  13.459   4.030  13.387 -0.0125 -0.1718  0.0651
21543W        W37804   4.670  17.038  12.181  0.0285  0.2654  0.0087
21544W        W37805   5.257   8.034  11.439  0.2073 -0.0530 -0.0955
21545W        W37806  10.730   8.061   4.380  0.0697 -0.0012 -0.2704
21546W        W37807  15.631   0.421   5.162  0.1142  0.0205 -0.0754
21547W        W37808   5.866  11.726   0.432 -0.0520  0.0565  0.0850
21548W        W37809  14.348   2.457   3.171 -0.0094  0.0482 -0.0412
21549W        W37810   2.556   0.972  12.343 -0.0023 -0.0028  0.3640
21550W        W37811   4.760   6.310   2.220 -0.4398 -0.0857 -0.4653
21551W        W37812   4.898   0.720   3.937 -0.0416  0.0498  0.1976
21552W        W37813  10.879   3.956  11.802 -0.0577 -0.1323 -0.1282
21553W        W37814   3.051  16.443  13.728  0.1709 -0.1621  0.3082
21554W        W37815  12.168  16.387  12.871 -0.1565  0.1376 -0.1800
21555W        W37816   5.164  14.517  15.874 -0.0734  0.2519  0.0661
21556W        W37817   9.767  18.164   1.945 -0.3295 -0.1108  0.0190
21557W        W37818   6.051   3.266   6.152 -0.1807 -0.1409  0.2716
21558W        W37819   0.615   4.381  16.277  0.0436  0.2239  0.3454
21559W        W37820  12.286   5.559  11.298 -0.2950  0.1649  0.1906
21560W        W37821  14.409   5.656  16.645  0.1343  0.3822 -0.0474
21561W        W37822   3.558  13.142  14.559  0.2281  0.0670 -0.0983
21562W        W37823   4.428   9.052   1.199 -0.0817  0.0277 -0.1148
21563W        W37824   9.072   9.296  13.645 -0.0311 -0.1322 -0.2872
21564W        W37825   1.115  11.961   4.605 -0.3980 -0.1175 -0.0468
21565W        W37826   4.169   2.508   4.791  0.0092 -0.1248 -0.1477
21566W        W37827   0.313   9.621   2.609  0.0560  0.1496 -0.0178
21567W        W37828   1.863  15.565  13.555 -0.2944 -0.3570 -0.1210
21568W        W37829  16.115   1.221   4.197 -0.1047  0.1465  0.0947
21569W        W37830  17.690   0.619   4.776 -0.0618 -0.1576 -0.2925
21570W        W37831  12.529   8.907   0.477 -0.0100 -0.3563 -0.2851
21571W        W37832  11.610  15.315   0.217 -0.1775 -0.2566 -0.0871
21572W        W37833   6.517   2.810   5.011  0.1425 -0.0202  0.1152
21573W        W37834  10.024  14.770   4.836 -0.0303  0.1792  0.3281
21574W        W37835   2.583  12.800   2.096 -0.2782 -0.0755  0.0397
21575W        W37836   9.951   7.029  11.806 -0.0293  0.0698 -0.0255
21576W        W37837   3.458   2.853  13.977 -0.1668  0.1094 -0.1539
21577W        W37838   3.342  11.469   5.963  0.0823  0.1459 -0.3624
21578W        W37839  13.945   0.370   0.870 -0.1232  0.3278 -0.2630
21579W        W37840   8.670  12.591   4.941 -0.0378  0.1803  0.0051
21580W        W37841  11.858   9.922  12.078 -0.2015  0.5035 -0.2371
21581W        W37842   9.708   1.346  15.968  0.1528  0.1197  0.0233
21582W        W37843  15.832   8.332   5.919 -0.0942 -0.1517 -0.0987
21583W        W37844   7.806   1.960  15.936 -0.3168 -0.0365  0.0975
21584W        W37845  11.962  15.451   0.695  0.0886  0.0335  0.0640
21585W        W37846   1.248   0.298  14.825  0.3804  0.0223  0.1306
21586W        W37847  13.940   9.260   4.435 -0.0061  0.0871 -0.0416
21587W        W37848  15.258  15.158   2.060 -0.0929  0.3305  0.1098
21588W        W37849   5.644  12.594   1.883  0.1854  0.2496  0.4023
21589W        W37850   8.415  16.417   0.452 -0.0648  0.2650  0.1991
21590W        W37851  17.863  11.374   3.601  0.2793  0.2337 -0.0596
21591W        W37852   5.416  15.400   1.844 -0.1257  0.0330  0.3817
21592W        W37853   1.633  14.042  14.908 -0.2619 -0.3100 -0.2216
21593W        W37854  16.152   5.620   3.203  0.0231 -0.4187 -0.1105
21594W        W37855   7.324  17.924  11.766 -0.1889  0.0033 -0.0418
21595W        W37856  13.117   9.039  13.183  0.2567  0.3177 -0.1069
21596W        W37857   7.361   3.532   0.894  0.3060 -0.1889 -0.2278
21597W        W37858   7.812   9.768  13.028 -0.0320 -0.0197 -0.0951
21598W        W37859  12.039   8.991   1.769 -0.0251 -0.1707  0.2190
21599W        W37860  16.451  14.740   3.053  0.2354 -0.3121 -0.0704
21600W        W37861   7.900   7.032   5.014  0.0106  0.1716  0.0285
21601W        W37862   6.783   1.905   4.415  0.0262  0.0410 -0.1935
21602W        W37863   9.831  12.636  14.127  0.3612 -0.0089 -0.3097
21603W        W37864   7.424   3.074   1.741  0.0974 -0.0514 -0.4472
21604W        W37865   6.432   9.847  13.325  0.0178 -0.3137 -0.1337
21605W        W37866   6.164   3.186  12.355  0.0126  0.2706 -0.4639
21606W        W37867  11.317   4.557   1.157 -0.0365  0.0985 -0.0747
21607W        W37868  15.722  16.530  15.718  0.3544 -0.1439 -0.1296
21608W        W37869  17.015   3.830  13.232  0.1341  0.1737 -0.5385
21609W        W37870   3.039  15.637   0.067 -0.1665 -0.3278 -0.1536
21610W        W37871   8.671  17.254   3.274  0.2272 -0.2548 -0.0705
21611W        W37872   6.895  15.544  15.362  0.3300 -0.1961  0.3973
21612W        W37873   6.215   8.692  15.791  0.0232  0.1506  0.2511
21613W        W37874   0.822   9.279   4.711  0.1471  0.0043 -0.0897
21614W        W37875   2.904   2.241   6.082 -0.3769 -0.1933  0.0462
21615W        W37876  10.284  11.891   5.582 -0.0816  0.1597 -0.0163
21616W        W37877  15.298   6.709  14.779 -0.1140  0.0753  0.1196
21617W        W37878  10.927   6.437   0.750  0.0288 -0.1948 -0.0421
21618W        W37879  17.889  17.765  15.014  0.0989  0.1702  0.3531
21619W        W37880   0.814  17.991   4.552 -0.1525  0.1944  0.0563
21620W        W37881  14.533   9.715  12.212 -0.2502  0.3248 -0.1861
21621W        W37882   6.672  10.510   3.355 -0.1316 -0.1969  0.1507
21622W        W37883   3.485   7.181  13.011  0.0757  0.1590  0.1464
21623W        W37884  15.989   9.365  13.725  0.0630 -0.2461 -0.1954
21624W        W37885   5.942   0.572   5.761  0.2444  0.1840  0.1721
21625W        W37886   0.975  13.067   0.379  0.1032  0.0804  0.2538
21626W        W37887  12.320   3.311   0.580  0.0040  0.1159  0.3504
21627W        W37888  16.814   5.781   1.787 -0.1402 -0.2198 -0.0400
21628W        W37889   1.198  16.443   2.454  0.2422 -0.0650  0.2939
21629W        W37890   3.011   9.986   0.601  0.0481  0.1197  0.1152
21630W        W37891  18.031   2.021  11.425 -0.0241  0.0214 -0.1112
21631W        W37892  12.683  17.857  15.468  0.3284 -0.0389 -0.2040
21632W        W37893  10.609   0.428   2.208  0.0858 -0.1615 -0.1418
21633W        W37894  10.323   1.877  11.941  0.0390 -0.1660  0.0596
21634W        W37895   4.645  17.791  12.680  0.2410  0.2386 -0.2786
21635W        W37896  13.241   1.933  12.228  0.0120 -0.0091  0.0169
21636W        W37897   0.572   1.956   0.182  0.4498  0.1949  0.0561
21637W        W37898   5.993   7.842   3.535 -0.3367 -0.0438 -0.2559
21638W        W37899  16.025   8.091   6.307 -0.0103 -0.2565  0.3749
21639W        W37900   2.436  15.826  12.413  0.2009 -0.3500 -0.3569
21640W        W37901  12.323  12.910   2.502 -0.2864 -0.2915 -0.0633
21641W        W37902   9.819   1.984   2.361  0.0678  0.2545 -0.2350
21642W        W37903   2.076   6.873   1.371 -0.2371  0.0489  0.1998
21643W        W37904  16.788  10.199  15.584 -0.3280 -0.2640  0.0372
21644W        W37905  10.779   5.283  15.678  0.0906  0.0870  0.2116
21645W        W37906  17.364   7.193   5.284 -0.1423  0.0783 -0.0695
21646W        W37907   6.220   8.852   1.654  0.1644  0.2653  0.1362
21647W        W37908   2.786   4.988  13.815  0.2599 -0.2078 -0.0839
21648W        W37909   1.250   8.443   3.969 -0.4303 -0.2623  0.3089
21649W        W37910  16.009  15.646  15.488 -0.1442  0.2530 -0.0952
21650W        W37911  10.365   9.679   2.173  0.2650 -0.0664 -0.0065
21651W        W37912   4.174  16.742  14.684  0.1700 -0.0241  0.1010
21652W        W37913  10.075   8.871   2.310  0.0634  0.0789  0.6891
21653W        W37914  11.902  13.399   3.947  0.0254  0.1337 -0.3577
21654W        W37915  17.571  15.866   0.003 -0.1355  0.0135 -0.0022
21655W        W37916   3.057   4.827  16.192 -0.1769 -0.2070  0.1274
21656W        W37917   5.665  14.343  15.234 -0.1655  0.1857  0.1911
21657W        W37918   0.313   1.207  12.661 -0.2439  0.0120 -0.0577
21658W        W37919  13.927   4.900  12.195 -0.0234  0.3057  0.1077
21659W        W37920   5.320   4.402   5.608 -0.0546  0.0869  0.1002
21660W        W37921   4.986   8.497  15.030  0.0965 -0.1917 -0.3033
21661W        W37922  17.107   4.508  13.936  0.1202  0.1587 -0.1515
21662W        W37923   3.504  12.275   4.562  0.1578 -0.0993  0.3209
21663W        W37924   5.522  12.657   5.022 -0.1465  0.1333 -0.0733
21664W        W37925   4.050   9.230   1.564 -0.2440 -0.1351  0.0902
21665W        W37926   6.031   3.956   4.801  0.1708 -0.0810  0.2543
21666W        W37927  13.083   3.508  12.054  0.0135 -0.2130  0.1004
21667W        W37928   5.778  15.900   5.361 -0.2530  0.0983  0.0033
21668W        W37929   9.622   2.979   0.267  0.2747  0.0105 -0.1405
21669W        W37930   2.715   4.333   3.176  0.0045  0.0899  0.0590
21670W        W37931  10.019  15.335   2.582  0.0097 -0.1906  0.3245
21671W        W37932   1.728   8.052   3.313 -0.1411 -0.0043 -0.0208
21672W        W37933   3.552  15.734   3.811 -0.0774  0.0608 -0.1384
21673W        W37934  11.910  15.503   2.515 -0.1610 -0.0349 -0.1636
21674W        W37935  11.263  15.410  14.498 -0.0524 -0.0761  0.0725
21675W        W37936   9.686   7.300   1.845  0.3105  0.0487 -0.4389
21676W        W37937   4.387   6.412   0.140  0.2378 -0.2469 -0.0481
21677W        W37938   5.510  11.632  16.318  0.1004  0.0137 -0.0936
21678W        W37939   7.766  13.949  12.508 -0.2232  0.0204 -0.0279
21679W        W37940  10.669  16.626  13.796 -0.2416  0.3186 -0.0004
21680W        W37941  14.451  14.573  13.349  0.0909 -0.1726 -0.0044
21681W        W37942  17.972  12.803   0.927  0.2014  0.3475 -0.2160
21682W        W37943  17.691  15.585  16.250  0.1403  0.1012  0.0029
21683W        W37944  12.428   6.054   1.163  0.1347  0.2765  0.2887
21684W        W37945  11.043  17.740   1.346 -0.1210  0.0312  0.0828
21685W        W37946   0.070  13.100  15.300 -0.0038 -0.2129 -0.0007
21686W        W37947   3.872   9.149  14.410 -0.0460  0.1031  0.3017
21687W        W37948   8.262   1.895  16.298  0.1903 -0.1936  0.0732
21688W        W37949   3.553   9.434   0.356  0.3815 -0.0544 -0.1165
21689W        W37950  11.881  11.521   6.110  0.3239  0.0584  0.1678
21690W        W37951  16.526   6.015   2.445  0.3236  0.1237  0.3585
21691W        W37952  10.984   4.729  12.931 -0.2763  0.0064  0.4980
21692W        W37953   4.315  17.775   2.029 -0.3210 -0.1006 -0.1088
21693W        W37954   1.202  10.403   5.514  0.1448 -0.1240 -0.0373
21694W        W37955   2.228  17.600  13.234 -0.0491 -0.1082 -0.0048
21695W        W37956   1.252  17.730   3.751  0.2377  0.0271  0.0700
21696W        W37957  10.342  16.510  12.608 -0.3307  0.1586  0.0151
21697W        W37958   2.381   4.411   2.686 -0.0473  0.2325  0.0627
21698W        W37959  17.034  12.752   0.370  0.3321 -0.1230  0.2521
21699W        W37960   5.223   3.613  13.432 -0.3734 -0.1838  0.2535
21700W        W37961  10.514   1.116   0.241 -0.0680 -0.1734  0.0800
21701W        W37962   1.116  14.820  11.563  0.0925  0.2068  0.0000
21702W        W37963  13.033   8.240  16.489 -0.1053 -0.0517  0.3473
21703W        W37964   6.590  15.399  14.970  0.2391  0.2605  0.1873
21704W        W37965   3.935   1.811  16.590  0.0137 -0.0811  0.0025
21705W        W37966  17.381   0.694   2.774 -0.1151  0.0786  0.0212
21706W        W37967   0.700  11.395   1.501  0.1182  0.2845 -0.0351
21707W        W37968  16.338  12.944  13.928 -0.0594 -0.0323  0.0236
21708W        W37969   8.895   3.604   1.172 -0.1250  0.0266 -0.1685
21709W        W37970   2.156  17.682   2.842 -0.1209  0.0446  0.0644
21710W        W37971   3.396   8.018   1.606  0.1246 -0.0407  0.1131
21711W        W37972   1.440   3.019  12.074 -0.0824 -0.0817 -0.2932
21712W        W37973  16.431   4.533   3.160  0.0575  0.0066  0.0614
21713W        W37974   1.870  15.275   2.064  0.1148 -0.1665  0.0204
21714W        W37975   8.463  14.698   0.153  0.3028  0.4711  0.0495
21715W        W37976   6.710   0.520  14.157 -0.1318 -0.4652 -0.4319
21716W        W37977   9.852  15.730   1.841 -0.0957 -0.0561  0.0210
21717W        W37978   3.422  16.380   1.741  0.1229  0.0464 -0.0337
21718W        W37979  11.522   6.080  16.330  0.0039  0.2037 -0.4733
21719W        W37980  11.519   2.503  14.694 -0.0233  0.2519 -0.3662
21720W        W37981   4.917  14.618  13.770 -0.1365  0.2735 -0.0049
21721W        W37982   9.038   0.457   1.594  0.0768  0.0113 -0.1914
21722W        W37983  13.266   8.284  11.172 -0.0252 -0.1303 -0.1307
21723W        W37984   6.194   5.988  14.712  0.0614  0.2035 -0.0892
21724W        W37985   5.315  15.345   5.029  0.2941 -0.4681 -0.1623
21725W        W37986  11.670   3.480   1.559 -0.1362 -0.3282 -0.1420
21726W        W37987  12.889   2.274   0.130  0.3354  0.3634 -0.1856
21727W        W37988   9.790   1.186   1.899 -0.2760 -0.0162  0.3823
21728W        W37989   3.309   4.018   0.321 -0.0541  0.0399 -0.1778
21729W        W37990   3.010  17.285   3.016 -0.0872  0.0649  0.2414
21730W        W37991  11.323  12.497  12.018 -0.0323  0.0270 -0.3086
21731W        W37992  18.166  17.181   3.287 -0.1070  0.0906  0.2421
21732W        W37993   5.601  14.687   1.200  0.0537  0.0240 -0.2057
21733W        W37994   5.791  14.497   3.881 -0.3747 -0.2047  0.0083
21734W        W37995   3.783   2.244  15.721  0.1032 -0.0900  0.1247
21735W        W37996   1.049  14.479  14.162 -0.1045  0.1090 -0.0813
21736W        W37997   4.711  15.370  15.378  0.2363 -0.1098 -0.2393
21737W        W37998   4.897  17.543   3.031 -0.0210  0.2046  0.1068
21738W        W37999  15.825   4.255   6.088 -0.0068 -0.0956  0.1812
21739W        W38000   3.871   3.245   1.292  0.4858  0.0892  0.2092
21740W        W38001   0.526  12.564   4.810 -0.4635  0.3716  0.1040
21741W        W38002   6.668   3.989  14.459  0.0440 -0.0125  0.3008
21742W        W38003  11.493   5.260   3.036  0.0166  0.1529 -0.1780
21743W        W38004  15.162  14.694  13.668 -0.1528 -0.1932 -0.0184
21744W        W38005   6.105   2.781  13.772 -0.3832 -0.0275  0.1982
21745W        W38006  16.868  17.963   2.252  0.2167 -0.1039  0.2753
21746W        W38007  12.424  17.048  15.540  0.2114 -0.0154 -0.1617
21747W        W38008  10.057   4.120   4.157  0.2239 -0.0690  0.1980
21748W        W38009  12.576  17.942   5.040 -0.1623  0.2309  0.1700
21749W        W38010   1.745   1.388   6.492  0.2654 -0.0900  0.1302
21750W        W38011  12.264   1.178  14.060  0.1535 -0.1020 -0.1072
21751W        W38012  17.684   2.392  11.376 -0.1352 -0.2547 -0.0888
21752W        W38013  16.878  10.583   1.235  0.0276  0.3683 -0.1533
21753W        W38014   1.171  17.229   2.001  0.2341  0.0894 -0.1308
21754W        W38015  17.409   8.927   2.786 -0.0512 -0.2313 -0.0819
21755W        W38016   9.343   6.224   2.873  0.0488 -0.2155 -0.2140
21756W        W38017   7.645  13.396  15.416  0.0882  0.2960 -0.1079
21757W        W38018   5.262   6.065  13.976 -0.3248 -0.0871 -0.3478
21758W        W38019  14.034  16.790  13.215 -0.2793 -0.1451 -0.2274
21759W        W38020  15.927  14.705   0.851 -0.0316  0.0415 -0.3891
21760W        W38021   7.360  15.524   3.100  0.2615 -0.0094  0.2125
21761W        W38022   9.996  11.290   4.302 -0.1288 -0.1217  0.1967
21762W        W38023   3.746   5.043  15.792  0.0422 -0.3656  0.1684
21763W        W38024   7.564   7.090   1.622  0.0860 -0.0853 -0.0004
21764W        W38025   9.598   4.345  14.946  0.3180  0.4225  0.0844
21765W        W38026  11.626   7.536   0.631 -0.0595 -0.2733  0.0948
21766W        W38027   2.792  10.566   3.510 -0.1043 -0.1030  0.0995
21767W        W38028   7.331  17.094  11.887  0.0750 -0.2621  0.1272
21768W        W38029  15.536  10.928  14.616  0.0088  0.0819  0.0388
21769W        W38030   5.212   0.660   0.302  0.1781 -0.1049 -0.3104
21770W        W38031  17.550   2.996   5.513 -0.2616  0.0719 -0.0125
21771W        W38032  11.699  15.088   3.783 -0.0814  0.1128 -0.1147
21772W        W38033   2.555   6.913   3.659  0.0680 -0.0923  0.1233
21773W        W38034   4.859   3.502  14.771 -0.1261  0.3041 -0.0356
21774W        W38035   2.103  13.074   4.365 -0.2592 -0.2555  0.0389
21775W        W38036   2.852   5.837   4.085  0.0821  0.0126  0.2899
21776W        W38037  12.841   5.720  14.002 -0.2068 -0.2241 -0.0813
21777W        W38038  13.982   1.009  11.536  0.1680  0.2253  0.2509
21778W        W38039  10.819   6.884  16.551  0.0332  0.1535 -0.0569
21779W        W38040   0.325   2.258   1.466  0.0604  0.0256 -0.0639
21780W        W38041  11.422   3.141  11.540  0.2517 -0.0239  0.2847
21781W        W38042   7.393  17.106  14.334 -0.1281 -0.1493  0.1695
21782W        W38043  17.375  11.126   2.028 -0.0612 -0.0926  0.1691
21783W        W38044  11.687   4.410   2.769 -0.0139  0.0074 -0.2760
21784W        W38045  13.006   3.792   0.624 -0.1613  0.0094  0.0645
21785W        W38046   6.093  13.358   5.408  0.1501 -0.2343 -0.1618
21786W        W38047   7.802   1.371  14.924 -0.2305 -0.1508 -0.2035
21787W        W38048  15.770  15.040  16.072 -0.1849  0.1650  0.0310
21788W        W38049   4.822   1.732   4.540 -0.0853  0.0132 -0.0304
21789W        W38050  17.086   3.974   3.228 -0.0368 -0.0887 -0.0121
21790W        W38051   8.881   1.951  16.271 -0.0419  0.0532  0.2084
21791W        W38052   1.280  12.432   4.575 -0.0813  0.3388  0.1110
21792W        W38053  14.061   1.753   4.975  0.0180  0.1563 -0.3788
21793W        W38054  12.332   3.425  12.563  0.3078  0.2387 -0.0137
21794W        W38055   6.843   2.515   0.404  0.1775  0.4459  0.1273
21795W        W38056   9.096   0.648  15.503 -0.0583  0.0017  0.3688
21796W        W38057   6.134  15.192   5.801  0.0444  0.0247  0.0983
21797W        W38058  17.386   9.186  12.468 -0.0091  0.1337 -0.1194
21798W        W38059  17.763  10.838   1.884 -0.5130  0.2019 -0.2697
21799W        W38060   0.916   6.616  15.405  0.1968 -0.1271  0.0524
21800W        W38061   7.696  16.352   3.575 -0.1162  0.1901 -0.0648
21801W        W38062  17.670  10.434  11.697 -0.3354  0.0206  0.0919
21802W        W38063   6.192  17.248   0.595 -0.0302  0.0022 -0.1039
21803W        W38064   0.450  10.964   3.158 -0.0558  0.1954  0.1781
21804W        W38065  12.467   9.557  14.674  0.1128  0.2579  0.0060
21805W        W38066   1.634   1.376   1.912  0.2013  0.0097 -0.1345
21806W        W38067  17.512   4.921   0.935 -0.3819 -0.1239  0.1125
21807W        W38068   1.442  11.301  11.730 -0.2152 -0.0011 -0.0672
21808W        W38069   9.474   0.491   5.253  0.0468 -0.1406 -0.2853
21809W        W38070  11.897   5.713  11.074 -0.1246  0.0024 -0.0912
21810W        W38071   1.548  12.705   3.200 -0.0570  0.1336  0.1159
21811W        W38072   8.697  16.614  15.478 -0.2231 -0.2685  0.2460
21812W        W38073  15.462  18.050  13.055 -0.1869 -0.0951 -0.4380
21813W        W38074   3.027  10.950  10.814 -0.2758 -0.0132  0.0014
21814W        W38075   9.651   9.827   5.295  0.0588 -0.0170 -0.0065
21815W        W38076  15.645  15.533  16.092 -0.2489  0.0159 -0.1902
21816W        W38077   9.671   2.090  15.558 -0.0004  0.0312 -0.0940
21817W        W38078   1.205   1.352   4.375  0.0689  0.2332  0.0144
21818W        W38079  12.827   8.550  11.407 -0.1474 -0.2351  0.1200
21819W        W38080   0.667   2.641   0.048 -0.0550 -0.0396 -0.0413
21820W        W38081  11.682   8.463   1.035  0.2292 -0.0533  0.4113
21821W        W38082  14.634   2.504  15.829 -0.0589  0.1133 -0.2615
21822W        W38083   2.331  13.968   1.411 -0.3452  0.0838 -0.0005
21823W        W38084  11.296   4.601   4.626  0.1922 -0.3053 -0.1239
21824W        W38085   1.576  14.900   1.633  0.1997  0.1612  0.0502
21825W        W38086  10.616  10.167   2.522 -0.0577 -0.0886 -0.1378
21826W        W38087  13.364  12.805   1.453  0.0351 -0.1094  0.1464
21827W        W38088  14.254   0.963   0.320  0.2371  0.1451 -0.2857
21828W        W38089   2.874  14.171   5.767  0.1426  0.0285  0.1545
21829W        W38090   3.282  13.533   5.848 -0.1306  0.0906  0.0528
21830W        W38091  11.235   3.285   4.011  0.3208 -0.2105 -0.0049
21831W        W38092  11.204   2.653  16.163  0.2495 -0.0614  0.1194
21832W        W38093   5.257   4.880   2.346 -0.1597 -0.0978 -0.1195
21833W        W38094  16.173  17.792   3.038  0.2091  0.1898  0.2560
21834W        W38095   9.764   0.867   4.449  0.0808 -0.1839  0.0819
21835W        W38096   9.979  13.924   6.093  0.3318 -0.1864  0.1205
21836W        W38097  17.379   9.364   2.043 -0.1070  0.2558 -0.3735
21837W        W38098   1.126  14.606   0.896 -0.1149  0.0918 -0.2881
21838W        W38099   9.620  10.331  10.502 -0.1533 -0.0057  0.1145
21839W        W38100   2.875  10.002   0.125 -0.0898 -0.0403 -0.0904
21840W        W38101   1.948   0.966   2.078 -0.0595  0.2267 -0.1064
21841W        W38102   0.829  10.262  11.792  0.1405  0.0390  0.0070
21842W        W38103   6.194   7.560   5.496 -0.0886 -0.3842 -0.3077
21843W        W38104  17.938  12.007  12.712  0.2949  0.3386 -0.1057
21844W        W38105   7.119   0.227  14.626 -0.1372 -0.1084 -0.0685
21845W        W38106  12.114   8.488   1.521 -0.0686  0.1515  0.0398
21846W        W38107   3.089  13.722   4.899 -0.1055  0.3026  0.1828
21847W        W38108   7.320   9.921  15.031 -0.1747  0.0394  0.1242
21848W        W38109   9.719   5.721  14.803  0.0874  0.0283 -0.0388
21849W        W38110   7.256   3.216  11.829 -0.0492 -0.2397  0.0170
21850W        W38111   9.600  12.932  14.413  0.2865  0.0916 -0.1874
21851W        W38112   0.930  16.336  14.366  0.2125 -0.0754 -0.1871
21852W        W38113   5.476  10.709   0.108 -0.0658 -0.5509 -0.3020
21853W        W38114   9.808   2.358   1.414  0.1444 -0.3955 -0.2862
21854W        W38115  11.126   6.935   0.881  0.3539 -0.1121  0.1813
21855W        W38116   8.697   6.290  16.531 -0.2231 -0.0573 -0.0549
21856W        W38117  14.946  16.661   3.645  0.5046 -0.1285 -0.0154
21857W        W38118   1.992   5.293  12.173  0.0051  0.1006  0.0567
21858W        W38119   7.729  17.148   4.728 -0.1113  0.1073 -0.1159
21859W        W38120  13.438  13.511  14.113  0.1557  0.1123  0.1106
21860W        W38121   9.033   7.674  15.171 -0.1063  0.0039  0.0855
21861W        W38122   4.103  13.041  13.221 -0.0015  0.1765 -0.1059
21862W        W38123  11.644   8.735  14.992 -0.0007 -0.1499  0.0025
21863W        W38124   7.858   9.651  15.814  0.0206 -0.1527 -0.1751
21864W        W38125   8.983   8.209  12.840 -0.2199 -0.3237  0.1359
21865W        W38126  14.309  14.216   1.999 -0.1052  0.0076 -0.0934
21866W        W38127  15.505   1.618   0.782  0.2322 -0.1902  0.0637
21867W        W38128   8.311   0.139   0.565  0.1016  0.2596 -0.1089
21868W        W38129  12.782  10.639   4.341  0.1808  0.1409 -0.1921
21869W        W38130   3.803  17.629  12.729 -0.3772 -0.1569  0.1371
21870W        W38131   0.384   1.389   1.498  0.4134  0.2493 -0.0312
21871W        W38132   4.848  10.765  16.063  0.1869  0.0452 -0.1527
21872W        W38133  14.001  15.232  14.144 -0.2575  0.1068 -0.0386
21873W        W38134  12.368  17.701  12.588  0.1402  0.3714  0.0392
21874W        W38135   9.142  16.399   2.159 -0.1123  0.0869 -0.1146
21875W        W38136  12.469   1.990  14.516  0.0776 -0.0321  0.0473
21876W        W38137   9.094   0.510   4.874 -0.3434 -0.0718 -0.0441
21877W        W38138   7.070  18.057   4.267  0.4217  0.2043  0.1124
21878W        W38139   9.561  17.830   4.046 -0.2360 -0.1355  0.1312
21879W        W38140  10.437   4.748  11.805  0.0717 -0.4287  0.1406
21880W        W38141  16.741  12.766  15.325  0.2187  0.0899  0.2467
21881W        W38142  16.184  12.408   0.001 -0.3351 -0.2103 -0.1913
21882W        W38143  13.926  12.974  15.250  0.0211  0.0967  0.0407
21883W        W38144   4.831   6.233  12.879  0.0058  0.0131  0.3287
21884W        W38145   4.956  11.136  12.469  0.0272  0.0507 -0.0673
21885W        W38146   0.343   6.028   1.493  0.5074  0.1377  0.0537
21886W        W38147  13.710  16.453  16.277 -0.1720  0.0097  0.1549
21887W        W38148   7.379   0.564  13.531  0.0110  0.0272  0.2697
21888W        W38149   6.894   3.311   5.633  0.0890 -0.1357 -0.1613
21889W        W38150   3.316   7.063  14.844  0.2628 -0.0222 -0.2656
21890W        W38151   6.519  13.487   4.142 -0.0073  0.1459  0.0480
21891W        W38152   5.580  11.670  15.584  0.1962 -0.2701  0.0758
21892W        W38153   0.763   5.041  13.348  0.4210 -0.0562 -0.0220
21893W        W38154   4.754   8.549  15.430 -0.2234 -0.4790 -0.2185
21894W        W38155  10.379   3.719   3.900  0.2257  0.1094  0.1317
21895W        W38156   8.535   5.094   2.347 -0.2744 -0.0280  0.1129
21896W        W38157   0.761   5.874  13.350  0.3848  0.0587  0.3855
21897W        W38158  10.286  13.084   4.696 -0.0436  0.1671  0.1037
21898W        W38159  16.141  17.708   5.553  0.3109  0.1621  0.1944
21899W        W38160   0.033  17.401   1.866 -0.0009  0.1653 -0.1056
21900W        W38161  12.322   4.565   0.159  0.2005 -0.1465 -0.0696
21901W        W38162  16.554  12.165   4.961  0.0426  0.0433 -0.0187
21902W        W38163   2.594  15.997   0.054 -0.0719 -0.2744  0.2618
21903W        W38164  18.193   6.345  11.906  0.4144 -0.1070 -0.0240
21904W        W38165  14.424   1.005  15.584 -0.2607  0.3936 -0.1566
21905W        W38166   8.761   7.526   5.657 -0.0231  0.0550 -0.0948
21906W        W38167   5.961  16.930  11.961 -0.0019  0.1828 -0.2007
21907W        W38168   9.226  10.491  12.913 -0.0359  0.2431 -0.0762
21908W        W38169   8.017  12.951  15.798  0.1794 -0.0939  0.2231
21909W        W38170  16.914  11.294  14.828  0.0751 -0.0299  0.3681
21910W        W38171   2.131  18.159  13.059  0.1311  0.2387  0.0836
21911W        W38172  16.143  11.882   5.737  0.0010 -0.1437 -0.0236
21912W        W38173  11.260  17.606   1.790 -0.1261 -0.1905 -0.0541
21913W        W38174   3.003  10.980   3.859 -0.1843  0.1385 -0.0228
21914W        W38175   6.215  13.584   4.826 -0.0395  0.1855 -0.0259
21915W        W38176  14.716   5.375  13.868  0.0978  0.2464  0.0099
21916W        W38177  18.001   6.869  12.138 -0.0077 -0.0529  0.2451
21917W        W38178   4.505   7.560   4.749 -0.0359 -0.1568  0.2926
21918W        W38179  14.499   3.493   4.526 -0.0651 -0.2245 -0.1230
21919W        W38180  10.309   5.295   2.748  0.1256 -0.3818  0.2782
21920W        W38181   2.720  13.566  16.255 -0.1436 -0.0865 -0.0683
21921W        W38182   3.772  10.245   2.931  0.2368 -0.1834 -0.2055
21922W        W38183   3.918  11.442  12.466 -0.0833 -0.0501  0.0367
21923W        W38184   5.753  13.057   1.129  0.1807  0.3464  0.1343
21924W        W38185   8.912   2.834  12.929 -0.0667 -0.1664 -0.2814
21925W        W38186   1.230  16.619   1.197  0.1018 -0.0992  0.1788
21926W        W38187  15.920  16.591  14.955  0.0213 -0.0743 -0.0541
21927W        W38188   7.720   7.677  13.589 -0.0820  0.2800 -0.1474
21928W        W38189   3.564   0.182   1.926 -0.0751 -0.0366 -0.0767
21929W        W38190   2.474  15.727  11.871 -0.0028 -0.2255 -0.2124
21930W        W38191  11.665  16.136   6.178 -0.4783 -0.2984  0.0372
21931W        W38192   9.150  14.359   4.874  0.0719 -0.0236  0.2830
21932W        W38193   4.601   0.650   5.259 -0.1662 -0.1514  0.0482
21933W        W38194  12.177  10.029  14.681 -0.1047 -0.0668  0.2289
21934W        W38195  16.546  15.343   1.055  0.0119  0.0552 -0.1914
21935W        W38196   4.473  15.829  13.513 -0.1155 -0.0387  0.2874
21936W        W38197   9.644   9.846   2.635 -0.0409  0.1395 -0.1804
21937W        W38198  15.342  10.782  13.737  0.2685 -0.0812 -0.2154
21938W        W38199   5.779  17.388   0.342 -0.2369 -0.0491 -0.4159
21939W        W38200   5.075   9.220  13.363  0.4327  0.0528  0.4934
21940W        W38201  13.529  18.181   3.493 -0.2322 -0.1116 -0.3409
21941W        W38202   2.300  10.625  13.907  0.2465  0.0310 -0.0030
21942W        W38203   7.475  10.654  13.632  0.3022 -0.1903  0.3917
21943W        W38204  14.728   6.218   2.297 -0.0097  0.1234  0.0936
21944W        W38205  17.504   6.800   5.865  0.0900 -0.3579  0.0924
21945W        W38206  12.279   7.187  12.693 -0.1928  0.2345 -0.1458
21946W        W38207   3.317  10.682  11.762  0.0838 -0.1536  0.2823
21947W        W38208   6.201  16.962  12.862  0.1025  0.1904 -0.1325
21948W        W38209  10.936   0.666  12.862 -0.2778  0.0050 -0.1254
21949W        W38210  12.314   3.791  11.307 -0.0466  0.2312 -0.3031
21950W        W38211   4.027   1.754   2.370 -0.0154 -0.1895  0.1191
21951W        W38212   6.868  14.331  12.843  0.0473  0.0730  0.2057
21952W        W38213  14.772  11.629  14.296  0.2450  0.2542  0.1745
21953W        W38214   5.314   6.244   5.816  0.0299  0.3171 -0.0373
21954W        W38215  14.846  10.676   1.012 -0.0553 -0.0832 -0.0424
21955W        W38216   7.787   3.779  13.695  0.0907  0.1250 -0.0259
21956W        W38217  13.656   6.619  12.646 -0.0016  0.2570  0.1931
21957W        W38218  13.730  11.915  16.319  0.2838 -0.2124 -0.1644
21958W        W38219  10.691   7.105   2.997 -0.2143  0.1520 -0.1410
21959W        W38220   3.174  17.013   6.082  0.1030  0.0650  0.1737
21960W        W38221   7.804   9.743  16.492  0.2313  0.1333  0.1351
21961W        W38222  17.600  14.179   5.422 -0.0047 -0.0803  0.2183
21962W        W38223   5.308  10.322   0.891 -0.2452  0.0489  0.2707
21963W        W38224   1.708   7.047  15.354 -0.0270  0.1578  0.3170
21964W        W38225   8.396  12.227  12.311 -0.0992 -0.1911  0.1421
21965W        W38226  11.675   4.480   0.758  0.0897 -0.0431  0.2138
21966W        W38227   5.635   1.616   3.536 -0.4074  0.1445 -0.0619
21967W        W38228  12.841  13.960  15.961  0.2072  0.2140  0.3250
21968W        W38229   7.750   6.376  12.368  0.0588 -0.1821 -0.2306
21969W        W38230  13.416   5.452  15.497  0.1643 -0.0791 -0.1677
21970W        W38231   0.626  16.010  12.130 -0.0995  0.1297 -0.2083
21971W        W38232   7.280   4.997  13.738 -0.1743 -0.0755  0.2843
21972W        W38233   7.597   5.920  11.534  0.3724 -0.0747  0.0131
21973W        W38234  11.961   1.753  14.628 -0.1347  0.1733  0.0548
21974W        W38235   7.331   8.152  14.541 -0.1623 -0.0645  0.0162
21975W        W38236   4.169  11.559   5.563  0.0465  0.2848  0.0283
21976W        W38237   6.159   7.720  15.720 -0.2506  0.0510  0.5159
21977W        W38238   1.379   7.253   1.745  0.0483 -0.4663 -0.3539
21978W        W38239   5.936   3.153  14.496 -0.1398 -0.1488  0.0119
21979W        W38240  13.700  12.918  15.748  0.0114 -0.0626 -0.1406
21980W        W38241   1.335  10.733   5.113 -0.1769 -0.0787  0.0677
21981W        W38242   1.297  14.184   1.803 -0.1650  0.2630  0.1506
21982W        W38243  11.678  13.677   3.295 -0.1128 -0.0493  0.1306
21983W        W38244   1.692   1.593   0.053 -0.1040  0.3418  0.0735
21984W        W38245   8.623  10.546   4.136  0.0368  0.1414  0.1836
21985W        W38246  17.976  16.784   3.063  0.1984 -0.3096  0.1149
21986W        W38247  10.127   5.264  13.510 -0.0233 -0.1190  0.1308
21987W        W38248  13.064  13.150  11.976  0.0986  0.0235  0.3714
21988W        W38249  17.275  17.832   4.655 -0.1953 -0.1531  0.0165
21989W        W38250   6.381   9.902   0.000  0.2477 -0.1215 -0.1257
21990W        W38251  16.775  12.695   2.833 -0.1651 -0.0235  0.0061
21991W        W38252  12.666  18.080  12.302  0.0076  0.0654  0.3198
21992W        W38253   1.183   6.483  16.447 -0.3191 -0.1349  0.1753
21993W        W38254   6.242  15.730   2.354  0.2278  0.3347  0.0932
21994W        W38255   1.474  14.932   1.141 -0.0746  0.0430  0.1672
21995W        W38256  12.034  17.896   0.232  0.2332  0.1065  0.2366
21996W        W38257   1.971  18.151   2.543  0.4358 -0.1243 -0.0388
21997W        W38258   3.015  13.107   3.379  0.2053 -0.0515  0.1705
21998W        W38259   9.866   0.882  13.747 -0.1774  0.2458 -0.3270
21999W        W38260   7.815   2.354   0.626 -0.1991 -0.3730  0.0842
22000W        W38261  14.175  13.529  16.296  0.2378 -0.0837  0.1248
22001W        W38262   9.064  11.553   5.086  0.0994 -0.0351 -0.1597
22002W        W38263   3.788   9.821   5.449 -0.0320 -0.1289  0.2116
22003W        W38264  11.897  14.475   1.820 -0.1051 -0.1608 -0.0175
22004W        W38265   2.440  14.885  11.903  0.1267 -0.0321  0.3720
22005W        W38266   1.799   3.552  15.772 -0.0732 -0.0317  0.0552
22006W        W38267   8.437   0.651   5.875  0.2657 -0.0609  0.1623
22007W        W38268  10.029   5.245  12.915 -0.3674 -0.1703 -0.1139
22008W        W38269  13.750   2.579  12.613  0.4841  0.2372 -0.1065
22009W        W38270  15.974   4.004   0.402 -0.1090  0.0688  0.3006
22010W        W38271  13.694  12.903  13.588 -0.0366  0.0829  0.2170
22011W        W38272   2.456   5.842   0.184 -0.1164 -0.1289 -0.2108
22012W        W38273  13.628   9.463   1.728 -0.2122  0.2055  0.0327
22013W        W38274  15.752   6.511  16.094  0.0683 -0.1594 -0.1445
22014W        W38275   4.399   5.455  14.612 -0.0093 -0.1004 -0.1489
22015W        W38276   5.751   8.379   5.494  0.1240  0.0095  0.0126
22016W        W38277   1.897   5.861   2.025 -0.0295 -0.1056  0.3303
22017W        W38278  12.938   3.174   2.886  0.3159  0.1071  0.0554
22018W        W38279  17.723   4.611  15.861  0.1712  0.0597 -0.0155
22019W        W38280  16.526   0.199  15.627 -0.0394  0.4117  0.1507
22020W        W38281   5.975  13.677  12.127  0.0246 -0.0552 -0.1117
22021W        W38282   4.576   5.831   5.243 -0.4153 -0.1539 -0.3113
22022W        W38283  11.390  16.932   3.890  0.1533 -0.0557  0.0457
22023W        W38284   8.229   1.142   6.180 -0.0883 -0.1382 -0.1377
22024W        W38285   0.482   5.847  14.394  0.0640 -0.2301 -0.1494
22025W        W38286   6.833   1.095   4.108 -0.0080  0.1154 -0.0505
22026W        W38287  13.555   6.356   4.646  0.1305  0.0234  0.1643
22027W        W38288   4.761   0.695  14.452 -0.2889  0.0485 -0.0022
22028W        W38289  17.557   9.338   5.016  0.1934  0.1986  0.1852
22029W        W38290  14.235  16.762  14.258  0.1242 -0.1661 -0.0671
22030W        W38291   6.282   7.068   0.486 -0.0889  0.0479  0.0750
22031W        W38292  15.180   7.898  14.247 -0.3718 -0.2248  0.1299
22032W        W38293   5.089  17.069  11.308 -0.1429  0.1119 -0.2656
22033W        W38294   2.043  14.020   5.340 -0.5394 -0.0316 -0.0043
22034W        W38295   0.378  10.706  15.141 -0.0498  0.0446  0.1344
22035W        W38296  16.612  12.206   1.826 -0.2970 -0.1333 -0.1164
22036W        W38297   8.488  16.591   2.931 -0.0071  0.2880  0.0803
22037W        W38298  14.373  13.912   1.545 -0.3724  0.3350  0.0072
22038W        W38299   4.503   5.848  12.179 -0.0843  0.2348 -0.2971
22039W        W38300  16.681  10.492   5.903  0.2879 -0.0499  0.1078
22040W        W38301   7.458  16.703  16.545  0.0447 -0.2024 -0.2226
22041W        W38302  10.501   0.277   4.201  0.3776 -0.0520 -0.2521
22042W        W38303   9.327  15.554   3.351 -0.1696  0.0968 -0.0251
22043W        W38304  13.379   8.750  15.794  0.0761  0.1942 -0.2370
22044W        W38305  13.573   5.310  12.218  0.1851  0.2742 -0.0755
22045W        W38306   9.649  12.148  14.034 -0.1401  0.2005 -0.2899
22046W        W38307   6.551  17.741  11.751 -0.2793 -0.1581  0.0105
22047W        W38308   8.977   1.949  12.762  0.0684  0.0361 -0.0616
22048W        W38309   9.565  14.191   0.429 -0.0059 -0.2180 -0.1856
22049W        W38310  16.416  17.130   1.099  0.3327 -0.3039 -0.1089
22050W        W38311   4.575   9.557   2.103 -0.2277  0.2499 -0.1080
22051W        W38312   5.218  14.189  13.498 -0.1931 -0.0811  0.0137
22052W        W38313   6.832   1.515   0.064 -0.3501 -0.1423  0.0350
22053W        W38314  11.353  11.899   6.173 -0.2827 -0.6093  0.1443
22054W        W38315  17.880   5.112  14.116 -0.1382  0.2374  0.2595
22055W        W38316   0.356   9.249   3.418  0.1294 -0.0740 -0.0388
22056W        W38317   2.739   9.049  14.447 -0.1957  0.3275  0.1897
22057W        W38318   4.243   2.996  14.652 -0.0146  0.1353 -0.3518
22058W        W38319  10.424  12.458  11.748  0.0046  0.1037  0.0254
22059W        W38320  11.953   5.483  14.884 -0.0739  0.0443 -0.1749
22060W        W38321  14.022  14.701  12.046 -0.5089  0.0854  0.2453
22061W        W38322  14.580  12.483  13.093 -0.0890 -0.4244 -0.0925
22062W        W38323  11.151   0.102  11.722 -0.0815  0.3040 -0.0164
22063W        W38324  15.184   3.248  14.017  0.0112  0.1812 -0.3021
22064W        W38325   5.893  13.095  11.746 -0.1499  0.1033 -0.1620
22065W        W38326  16.997  14.184   0.172 -0.1168  0.1193 -0.2780
22066W        W38327   0.108  10.511  14.726  0.0959 -0.1793 -0.3156
22067W        W38328   1.967  14.416  14.739 -0.1920  0.1330  0.1847
22068W        W38329   8.163   9.814  11.602  0.3271  0.1901  0.2729
22069W        W38330   5.851   9.746  14.075  0.1999 -0.0935 -0.1741
22070W        W38331   7.575   1.173   4.213  0.0915  0.2975 -0.0052
22071W        W38332   2.216  16.887   1.093  0.2799 -0.0189  0.1314
22072W        W38333  13.766  13.594   0.035 -0.0229  0.0415  0.1146
22073W        W38334  10.885   0.752  13.803  0.1571 -0.3293 -0.0082
22074W        W38335   9.312  15.313  12.727 -0.1828 -0.2778  0.1768
22075W        W38336   7.581   0.142  11.575 -0.1169  0.0168  0.0812
22076W        W38337   1.432  11.468  12.692 -0.1212 -0.1269 -0.0826
22077W        W38338  16.587   3.687  12.966 -0.3976  0.1846 -0.2342
22078W        W38339  16.945   9.361  13.156  0.0188  0.0204  0.3025
22079W        W38340  17.027   9.331   4.259  0.1241  0.3075  0.2084
22080W        W38341   4.486  17.472   1.566 -0.0215 -0.3031  0.1945
22081W        W38342  13.948   1.645  14.743  0.1023  0.0513  0.0391
22082W        W38343  10.264   5.097   0.165  0.0676 -0.2690  0.1702
22083W        W38344  13.561  16.999   1.127 -0.1501  0.0005 -0.1190
22084W        W38345  14.549   6.889   0.250 -0.0602  0.0114  0.3346
22085W        W38346   5.177  10.235  11.582  0.1444  0.0067  0.0374
22086W        W38347   0.092   9.374  16.458  0.2946 -0.1166  0.1193
22087W        W38348   9.751   2.720  16.475 -0.0677  0.0319 -0.0419
22088W        W38349  16.871   0.881   3.526  0.1737  0.2270  0.1352
22089W        W38350   4.674   4.595   1.327  0.0094 -0.1846  0.1930
22090W        W38351   0.485  12.909   0.325  0.0430  0.1064 -0.3839
22091W        W38352   1.447  15.121   0.652 -0.3345 -0.3793 -0.1612
22092W        W38353  16.970  17.703  15.262 -0.1673  0.0757  0.1843
22093W        W38354  16.506  15.918  15.645  0.3311 -0.0345 -0.4077
22094W        W38355  12.351  10.738   4.154  0.3357 -0.3740  0.2640
22095W        W38356   8.547  10.299  15.830  0.2884  0.1566 -0.1442
22096W        W38357  14.673  12.883  15.858  0.5313 -0.0056  0.0963
22097W        W38358   8.727   3.534  16.215  0.2975  0.3263 -0.1961
22098W        W38359  13.852  15.381   3.074 -0.1429 -0.0112  0.2428
22099W        W38360  15.492   7.602  11.862  0.1019  0.2556  0.0141
22100W        W38361   3.218   8.062   4.284 -0.2007 -0.2277  0.1517
22101W        W38362  15.135  13.953  15.166 -0.0004 -0.2544 -0.0549
22102W        W38363   6.006   7.406  12.127 -0.0144  0.1348 -0.2697
22103W        W38364  17.112   0.942  12.213 -0.1392  0.1389  0.3326
22104W        W38365  15.660   3.572  15.418  0.0402 -0.1587 -0.3324
22105W        W38366   2.788   2.863  12.326  0.0544  0.0561 -0.2527
22106W        W38367  18.173   8.381  13.490 -0.1528 -0.1935  0.2864
22107W        W38368  12.856  16.261   3.136  0.2351 -0.3891  0.0209
22108W        W38369  15.769   3.399  11.533  0.3744  0.0349  0.1825
22109W        W38370  15.244  14.722   2.394  0.0821 -0.0589 -0.0151
22110W        W38371  13.656   4.084   4.366 -0.0882 -0.1579 -0.2751
22111W        W38372   8.439  10.525   1.599 -0.3250 -0.0632 -0.1953
22112W        W38373   4.862  17.963  12.048 -0.0735  0.1030 -0.3924
22113W        W38374   8.430   7.240  11.303 -0.1859 -0.1747  0.2802
22114W        W38375   1.721   7.489  13.624 -0.1655 -0.0790  0.0441
22115W        W38376   7.692  17.477   4.385  0.1544  0.0501  0.0567
22116W        W38377   9.641   5.152  11.172  0.1416  0.1427 -0.3176
22117W        W38378  15.973   9.205   5.289 -0.0244  0.0255  0.1173
22118W        W38379   1.087  13.162   2.738 -0.3176 -0.1663  0.1571
22119W        W38380  12.360   3.307   2.925 -0.0863  0.2679  0.0044
22120W        W38381  13.805  14.438   4.200  0.0943  0.0747 -0.0145
22121W        W38382   4.720  17.987   3.125 -0.0874 -0.0450 -0.0806
22122W        W38383   7.466  17.905   3.458  0.2642  0.0907  0.2197
22123W        W38384  15.473   5.563  13.055 -0.0913  0.3769  0.4975
22124W        W38385   2.801  15.595  15.436 -0.0584 -0.0145 -0.0696
22125W        W38386  16.855   6.200   3.635  0.1746 -0.2270 -0.1594
22126W        W38387   4.661   9.914  15.725  0.1065 -0.0741  0.3266
22127W        W38388  12.647  15.934   1.143 -0.0996 -0.0942 -0.0071
22128W        W38389   2.232  13.981   4.262  0.0510  0.0532  0.1378
22129W        W38390   8.781  11.405   0.200 -0.0571  0.0987  0.3151
22130W        W38391   0.134  14.787   1.114 -0.1132  0.1540 -0.0651
22131W        W38392   7.105  11.531   3.209 -0.0850 -0.1380 -0.0312
22132W        W38393   4.020  16.931   2.288  0.1087  0.1501 -0.0940
22133W        W38394   2.854  13.794   0.079  0.1341  0.0442 -0.0031
22134W        W38395   6.925  17.653  12.096  0.1785 -0.1344  0.0275
22135W        W38396  16.231  15.881   2.285 -0.2277  0.3128  0.1931
22136W        W38397  10.684  14.236   5.370 -0.2602  0.0459 -0.0078
22137W        W38398   6.452  18.083  15.462 -0.1003 -0.2318  0.1140
22138W        W38399  10.544  15.729   3.075  0.0066 -0.2325 -0.1685
22139W        W38400   8.622   5.188   1.669 -0.2053  0.1490  0.0214
22140W        W38401  11.750  14.649   2.998 -0.3731  0.0372 -0.1448
22141W        W38402   4.415   0.116   5.208  0.0842 -0.1957  0.1138
22142W        W38403   6.583  11.281   0.884  0.0835  0.3406  0.1677
22143W        W38404  17.644   1.424   4.914  0.1021  0.3189 -0.0942
22144W        W38405   9.931   7.906   1.889  0.1180  0.1419  0.2476
22145W        W38406  10.969   7.039   1.765 -0.1897  0.1633  0.3210
22146W        W38407   2.758   6.127  16.350 -0.0600  0.0239  0.1645
22147W        W38408   8.612  16.140  16.004  0.1744  0.3299 -0.1302
22148W        W38409  13.429  10.798  14.050  0.1535 -0.1061  0.0651
22149W        W38410   9.193   3.960   0.514 -0.0348  0.1916  0.0296
22150W        W38411   6.158   2.179   0.148  0.2645 -0.0740  0.0175
22151W        W38412  12.971   2.964   4.237  0.0935  0.1216  0.0652
22152W        W38413  17.446   2.456  12.392  0.1866  0.0151 -0.1230
22153W        W38414  12.297   7.833   1.330 -0.0034 -0.1063  0.0949
22154W        W38415   2.794   2.216  11.876  0.1456 -0.5532 -0.0567
22155W        W38416  11.613   1.853   2.140  0.0168  0.0871 -0.1145
22156W        W38417  11.500   1.929   3.412 -0.0068  0.0129  0.1024
22157W        W38418  13.021  14.680  13.048  0.2839 -0.0103 -0.1085
22158W        W38419   5.453   3.499   0.753  0.0454  0.1286 -0.1605
22159W        W38420   1.933   1.577  15.351  0.0381 -0.2269  0.2302
22160W        W38421   0.924  16.290  16.240  0.3311 -0.0600 -0.2592
22161W        W38422  15.890  11.479  13.756 -0.0576  0.0187 -0.0938
22162W        W38423   3.410  10.591   5.313 -0.0954 -0.0631 -0.2627
22163W        W38424  11.863   7.823  15.045 -0.1130 -0.2392 -0.1297
22164W        W38425  10.532  13.691  11.657 -0.0131 -0.0908 -0.0623
22165W        W38426  11.464  17.243  16.112  0.3817 -0.1382 -0.2757
22166W        W38427   5.272   1.735  11.952 -0.1021 -0.0386  0.0615
22167W        W38428   6.643  16.100  13.919  0.0354  0.3530  0.3890
22168W        W38429  14.845   9.722  14.054 -0.0006 -0.0770 -0.1766
22169W        W38430   9.360   9.472  11.572 -0.1063  0.3882  0.1767
22170W        W38431  11.302  16.131   3.601  0.0556 -0.1678 -0.0405
22171W        W38432   8.713   0.189  16.230  0.0761 -0.1924 -0.0967
22172W        W38433   6.143   1.377  13.774 -0.0064 -0.2165  0.0419
22173W        W38434  10.032   9.575  15.317  0.0769 -0.1117 -0.2406
22174W        W38435  11.579   4.254   0.324 -0.3619  0.0365  0.0068
22175W        W38436   2.412  15.829  15.867  0.2585 -0.0470 -0.0758
22176W        W38437   1.019  10.488  13.687 -0.0167  0.0675  0.1651
22177W        W38438   3.732   1.749  15.390  0.2761  0.0421 -0.1417
22178W        W38439   6.393   4.358   2.544 -0.1353 -0.1351  0.3788
22179W        W38440   3.229   0.333  12.176 -0.2271 -0.1784  0.2666
22180W        W38441   9.340  17.546  11.749  0.0881  0.1434  0.2066
22181W        W38442  15.688  11.197  11.617  0.2210 -0.2000  0.0784
22182W        W38443   8.128  10.457  14.804  0.0459 -0.0381 -0.0407
22183W        W38444  11.089  10.949  12.654  0.1127  0.0003 -0.0795
22184W        W38445   0.290   0.539   4.232  0.3049  0.1645  0.2242
22185W        W38446  10.850   8.138  11.232 -0.1184 -0.1762  0.2272
22186W        W38447   2.000   2.473   1.765 -0.0004 -0.1826  0.2749
22187W        W38448   6.894   7.967  14.252  0.1791  0.0249 -0.0656
22188W        W38449  16.358  15.200  12.034 -0.3133  0.3430 -0.1837
22189W        W38450   4.173  11.711   6.129  0.0090  0.4696  0.1269
22190W        W38451   9.127  13.813   5.086  0.1633  0.0606 -0.0562
22191W        W38452  10.609   9.563  15.493 -0.3202  0.1278  0.0269
22192W        W38453  14.157   2.831  14.930  0.0725 -0.1086 -0.1084
22193W        W38454   0.504  12.945  14.923  0.0374 -0.0663 -0.1525
22194W        W38455   3.023  13.062   4.755 -0.2169  0.0956 -0.0384
22195W        W38456  14.149  14.609  14.683  0.2549  0.1116  0.0832
22196W        W38457  11.492  11.245   4.073  0.0643 -0.1371 -0.0523
22197W        W38458   0.623   7.893  14.968  0.1579 -0.1055 -0.4638
22198W        W38459   9.600  15.530   4.488 -0.0486 -0.1828  0.4129
22199W        W38460   6.836  16.317  12.383  0.2025  0.0749 -0.0259
22200W        W38461  18.047   8.122  12.887 -0.1978  0.1780 -0.1135
22201W        W38462   8.508   5.737   5.314  0.2580  0.1014  0.0715
22202W        W38463   7.542  15.998  12.270 -0.0460  0.0461 -0.1703
22203W        W38464  12.790  16.414   2.581 -0.0237 -0.0170 -0.3230
22204W        W38465  16.884   3.709   1.576 -0.4401 -0.0351 -0.2775
22205W        W38466   1.625   2.523  15.897 -0.0596  0.0733 -0.0975
22206W        W38467   2.387   3.016   0.958  0.1474 -0.4158 -0.1722
22207W        W38468  13.376   6.374  14.585  0.0880 -0.1918 -0.0496
22208W        W38469  10.444  10.859   5.421  0.1725  0.3957 -0.1081
22209W        W38470  10.327   9.525   0.406 -0.2610 -0.1294  0.2758
22210W        W38471  13.699   5.934   3.928 -0.2590 -0.0694 -0.0750
22211W        W38472   8.681   3.551  14.338  0.2565 -0.1073 -0.2963
22212W        W38473   9.020   0.484   4.049  0.0566  0.1019 -0.0255
22213W        W38474  14.110  16.242  12.081  0.4091  0.3152  0.0730
22214W        W38475   1.764   7.384   2.151  0.1122 -0.0282 -0.0084
22215W        W38476  12.950   3.456  15.660 -0.1276  0.3081 -0.2622
22216W        W38477  15.084   1.115   2.466  0.3309 -0.1761  0.0000
22217W        W38478   7.974  13.567  14.998  0.0862  0.4004 -0.0486
22218W        W38479   4.819  14.261  16.136 -0.1135 -0.1741  0.2157
22219W        W38480  11.441   9.736  15.316 -0.1309  0.1836  0.3023
22220W        W38481   5.013   7.786   0.760  0.0902  0.0568  0.0688
22221W        W38482   1.044   5.458  13.198  0.2278 -0.3506  0.5491
22222W        W38483  14.712  15.665   1.666 -0.0737  0.0299 -0.0130
22223W        W38484   1.887  12.199  12.371 -0.0639  0.1025 -0.2815
22224W        W38485   0.559  11.143  11.415 -0.0546  0.2155  0.0470
22225W        W38486   1.102  16.160  12.238  0.3100 -0.3982  0.0801
22226W        W38487   5.777  10.408  10.753  0.1478 -0.1341 -0.0036
22227W        W38488  13.105   3.478   4.239 -0.0441  0.0815 -0.2372
22228W        W38489   5.576   1.936   5.140  0.0189 -0.3698 -0.1476
22229W        W38490  12.926  15.464  14.280  0.1338  0.1073  0.0949
22230W        W38491   0.859  12.609   0.244  0.2661  0.2042 -0.0915
22231W        W38492   9.227   6.762   1.185  0.1674 -0.2110 -0.1192
22232W        W38493  13.431  11.428   3.166  0.1265  0.3773 -0.3164
22233W        W38494  16.500  12.328   3.597 -0.1686  0.0788 -0.2516
22234W        W38495  17.549   8.251  15.073  0.1525 -0.3194 -0.1656
22235W        W38496   2.619   4.038  16.059 -0.1349  0.2837 -0.1128
22236W        W38497   8.625  12.450   3.867 -0.0222  0.1397 -0.1569
22237W        W38498   6.501   7.655   3.293  0.0859  0.1228  0.1468
22238W        W38499   2.635  13.029  13.435  0.0652 -0.1538 -0.0517
22239W        W38500  16.861   3.123   2.815  0.1070 -0.0236 -0.3579
22240W        W38501  10.848  15.692  13.761 -0.2016  0.2713 -0.1163
22241W        W38502   0.946  17.198   5.183  0.2701  0.0594 -0.0079
22242W        W38503   5.631  17.414   0.782  0.1207  0.1571 -0.2868
22243W        W38504   9.056  14.530  15.844  0.3274  0.1750 -0.1308
22244W        W38505   0.505  17.906   4.997 -0.3552  0.0528 -0.3940
22245W        W38506   4.079  14.602  15.690  0.0527  0.1891 -0.1117
22246W        W38507   4.404  12.605  13.347 -0.3621 -0.4263  0.0422
22247W        W38508   1.610   9.488   0.647  0.0332  0.2703  0.3298
22248W        W38509  12.903   1.375   1.852 -0.0490 -0.1897 -0.0193
22249W        W38510   8.775  13.286   1.967 -0.1636  0.0521 -0.2733
22250W        W38511  12.354  13.746  14.766  0.3576 -0.1967  0.1782
22251W        W38512   1.289   9.929  12.200  0.0935  0.2705 -0.0455
22252W        W38513   4.108   5.985   5.290 -0.2333  0.1610  0.1447
22253W        W38514   4.784  12.771   4.348 -0.1224  0.0486  0.2725
22254W        W38515  10.468  10.487  14.269 -0.3205  0.0014  0.1036
22255W        W38516   4.003   2.635  15.463 -0.0260  0.0862  0.0161
22256W        W38517   6.651   9.633   5.946  0.0003 -0.0883  0.0941
22257W        W38518   4.447   3.414   3.833 -0.1399  0.0454 -0.2817
22258W        W38519  17.186  13.534   3.258 -0.0223 -0.0756  0.1902
22259W        W38520   3.174   5.514  12.321 -0.1000 -0.2095 -0.0005
22260W        W38521   5.077   8.410  12.108 -0.3065 -0.0503 -0.2733
22261W        W38522   0.232   2.663   3.120 -0.1981 -0.2031 -0.1947
22262W        W38523   9.842  10.924  13.363 -0.1191 -0.0129  0.0780
22263W        W38524  10.947  13.364  14.388  0.0559  0.0955 -0.1841
22264W        W38525  10.102  16.602   2.987 -0.0731 -0.0243 -0.0763
22265W        W38526  10.685  17.991   4.823  0.0056 -0.2551  0.0925
22266W        W38527  16.758  14.581   2.715 -0.0903  0.0577  0.1340
22267W        W38528   2.778  12.602   4.604 -0.1665  0.1645 -0.2340
22268W        W38529   6.365   2.588   0.250 -0.0848  0.1257  0.0879
22269W        W38530   1.587   4.314   3.829  0.1884 -0.2429  0.2785
22270W        W38531   0.808  17.955   1.820  0.1751  0.0527  0.2847
22271W        W38532   1.383   3.535   1.278  0.2684  0.3162 -0.4762
22272W        W38533   2.949  12.378   0.254 -0.0362  0.2541  0.1969
22273W        W38534   6.966   9.427   4.247 -0.2300 -0.1524  0.0052
22274W        W38535  14.550   3.329  13.205 -0.0380  0.1946  0.2213
22275W        W38536   8.221  14.204   4.693 -0.2706  0.0129  0.1565
22276W        W38537   0.933   7.191  14.350  0.2415 -0.0339 -0.1016
22277W        W38538  18.180  11.066   3.073 -0.0354  0.0756 -0.6306
22278W        W38539  16.534  10.136  13.562 -0.2699 -0.1569 -0.0662
22279W        W38540   9.863  18.051   3.201  0.1450  0.4481 -0.2793
22280W        W38541  14.703   8.541   1.963 -0.0526  0.0191 -0.2194
22281W        W38542   4.048  10.699   2.689  0.0785  0.2963  0.1166
22282W        W38543   9.200   9.042   2.676  0.0500 -0.0444 -0.1038
22283W        W38544  11.316   4.137  11.582 -0.1303 -0.0854 -0.0389
22284W        W38545  17.934   1.034   4.968  0.1310  0.0488  0.0694
22285W        W38546   5.229  15.427  14.382  0.1265 -0.0167 -0.1379
22286W        W38547   3.595   6.510   4.399 -0.0143  0.0114  0.0264
22287W        W38548   0.203   8.792   4.425 -0.0357 -0.0030  0.2314
22288W        W38549   2.127  15.535   3.470  0.0064  0.5145 -0.1525
22289W        W38550  16.597   6.447  14.236 -0.0160 -0.1733 -0.0665
22290W        W38551   6.198  11.848  11.801 -0.0429 -0.1733 -0.1430
22291W        W38552   8.671  14.336   4.529  0.1092 -0.2034 -0.0183
22292W        W38553  17.555   7.317   0.256  0.0393 -0.1961 -0.0385
22293W        W38554  17.927  11.048  14.273  0.1368  0.1954 -0.0854
22294W        W38555  15.828   4.413  11.396  0.1403 -0.3063  0.3061
22295W        W38556   0.881  13.925  14.477 -0.2025 -0.0597  0.0977
22296W        W38557  14.197   3.479   1.719  0.1109  0.3512 -0.1255
22297W        W38558   7.533   4.927  13.125  0.6040 -0.2538  0.0052
22298W        W38559  15.527   7.794  13.769  0.2847 -0.0748 -0.2287
22299W        W38560   4.844  10.291  12.416 -0.0006  0.2596 -0.3380
22300W        W38561  17.618  13.218  13.596  0.1273 -0.0913 -0.0581
22301W        W38562   2.315   7.741  15.747 -0.2136  0.0037 -0.0701
22302W        W38563  15.511   8.450  15.049  0.1685 -0.2018  0.0107
22303W        W38564  14.943   2.346  11.342  0.1172 -0.2378  0.3235
22304W        W38565  12.544  10.386   1.634  0.1900 -0.1688  0.1202
22305W        W38566   7.824   3.719   4.239  0.0289  0.2919 -0.1188
22306W        W38567   6.956   4.651   0.924  0.0351  0.0191  0.0760
22307W        W38568  15.637   1.632  14.897 -0.1681 -0.1691  0.1880
22308W        W38569   5.920  17.413   1.289  0.0407 -0.2558 -0.2751
22309W        W38570   1.536  15.798   3.273  0.3041  0.0228 -0.2128
22310W        W38571  11.526   5.362  10.747  0.1585 -0.1117 -0.4899
22311W        W38572  17.069  15.474  12.558  0.1473  0.4501 -0.2352
22312W        W38573   7.758  15.924  14.365  0.0234 -0.1610 -0.1523
22313W        W38574  12.878   5.349   1.458 -0.0280 -0.1062 -0.0347
22314W        W38575   2.020   1.572  12.564 -0.0627  0.4374 -0.2766
22315W        W38576  12.636  15.123   5.032  0.0921  0.2019  0.0672
22316W        W38577  15.545   8.142   4.574 -0.0712  0.1100 -0.2587
22317W        W38578  14.405  10.906  13.949 -0.1305 -0.0769  0.1626
22318W        W38579  12.804  18.120   5.906  0.3932 -0.4670  0.1620
22319W        W38580   6.767  13.047  15.560  0.1529  0.4091  0.0529
22320W        W38581   1.279   7.727   5.004 -0.3734 -0.2496  0.0275
22321W        W38582   5.228  14.008   2.892 -0.0991  0.2950 -0.0667
22322W        W38583   2.666   1.652   2.815  0.1529 -0.2138 -0.0789
22323W        W38584   2.738   2.109  15.325 -0.1128 -0.1155 -0.1156
22324W        W38585  16.232  10.446  11.436  0.0174 -0.0273 -0.3805
22325W        W38586   5.431  13.705  16.557  0.0898  0.1770 -0.0094
22326W        W38587   3.593  13.031   3.145 -0.2914  0.1434  0.0227
22327W        W38588   1.223   4.322   3.409  0.1455  0.0771 -0.0667
22328W        W38589  14.174  14.168  11.401  0.0670  0.1060  0.2351
22329W        W38590  12.315  12.469  14.654 -0.1788  0.1875  0.1548
22330W        W38591  10.597   9.689  11.755 -0.0248 -0.0425 -0.1896
22331W        W38592   7.326  15.136  11.629 -0.2307  0.3622  0.0286
22332W        W38593   9.127  11.015  12.122 -0.2160 -0.2302 -0.0274
22333W        W38594  12.469  10.233   3.305  0.0445  0.0005  0.2283
22334W        W38595   4.799  14.281   6.604 -0.3187 -0.2737 -0.1828
22335W        W38596   6.205   9.219  13.188  0.3070  0.0816 -0.2390
22336W        W38597  10.402  10.916  15.245  0.2125 -0.0471 -0.0986
22337W        W38598  10.639   7.311   0.977  0.0006 -0.3021 -0.1593
22338W        W38599  13.190   4.837   0.096 -0.3218 -0.2576  0.1818
22339W        W38600   4.301   5.810   2.690 -0.4654 -0.3030  0.0629
22340W        W38601  12.019  14.568   2.355 -0.0740  0.0396 -0.0620
22341W        W38602  12.733  14.632  11.626  0.3768 -0.1863  0.0469
22342W        W38603  13.272  12.208   2.153  0.0121  0.1528 -0.0883
22343W        W38604  18.085   5.625   1.723  0.1282  0.3175  0.1820
22344W        W38605   1.054   1.084  14.339  0.0375  0.1349  0.3097
22345W        W38606  16.009   0.514  11.505 -0.0420 -0.1172 -0.5331
22346W        W38607   2.105   5.132   4.885  0.2888  0.0078 -0.1950
22347W        W38608   6.864  17.147   1.139 -0.0098 -0.1810 -0.0523
22348W        W38609   2.123  11.909  16.180 -0.1755 -0.1241  0.1918
22349W        W38610  15.124   6.153   0.013 -0.1140 -0.0915 -0.0922
22350W        W38611   9.554   1.564  12.404 -0.0338 -0.0550  0.2434
22351W        W38612   0.434   7.768  15.455 -0.2756 -0.1269  0.3565
22352W        W38613   2.709  12.149  11.701  0.2438  0.0011 -0.0885
22353W        W38614   6.219  13.537  14.489  0.2677  0.0850  0.2597
22354W        W38615   9.499   4.957  11.644  0.1661  0.0051 -0.1421
22355W        W38616   5.958   8.073  11.641  0.0105  0.2287  0.3469
22356W        W38617  11.104   5.448  12.547 -0.0548 -0.1336 -0.0004
22357W        W38618  17.143   0.728   5.469  0.0962 -0.1856  0.0775
22358W        W38619  16.900   2.053   1.738  0.1201 -0.0543  0.2680
22359W        W38620  17.835  15.475   1.443  0.3644 -0.1482  0.0778
22360W        W38621   5.418   8.023   3.535  0.3340  0.0336  0.1136
22361W        W38622  12.560  11.068   0.204  0.3585 -0.4440  0.1761
22362W        W38623  17.507   6.800  16.647  0.1706 -0.2671 -0.0700
22363W        W38624   8.671   4.219   4.493  0.0354  0.0021 -0.2428
22364W        W38625   2.124  10.377  13.127  0.2129 -0.2667  0.2269
22365W        W38626   2.983  17.883  12.644  0.1227  0.3467  0.2492
22366W        W38627   5.475  11.738   3.863  0.0015 -0.0690 -0.2160
22367W        W38628   5.016   2.766  16.454  0.1208 -0.3409 -0.2268
22368W        W38629   1.786   7.611  14.787  0.1837  0.0553  0.0269
22369W        W38630  16.391  14.812  11.741  0.1335  0.2624  0.0765
22370W        W38631  12.737   8.430   5.222  0.0112  0.0137  0.1154
22371W        W38632   9.623   3.047  11.264 -0.1040 -0.1765 -0.0945
22372W        W38633   0.745   5.709   1.332  0.0281 -0.2821 -0.2178
22373W        W38634   2.018   5.694   4.394 -0.0581  0.0649  0.4188
22374W        W38635   4.529   7.594   4.192  0.0095 -0.0923  0.1225
22375W        W38636   0.627  14.867  11.474 -0.0942 -0.1785  0.0330
22376W        W38637  14.074  16.023  14.414  0.1112  0.4515  0.1411
22377W        W38638   7.739   3.541   4.819  0.1850 -0.0519  0.2512
22378W        W38639  14.291   6.991  12.372  0.1563 -0.1160 -0.0434
22379W        W38640  16.203   0.376  11.974 -0.0872  0.3486 -0.2604
22380W        W38641  17.380   6.907   3.133 -0.2274 -0.4235  0.0322
22381W        W38642   1.467  10.837   4.578 -0.2110 -0.1965 -0.0410
22382W        W38643  11.399   5.607  11.147  0.0777 -0.0076  0.1003
22383W        W38644   5.162  18.146   5.601  0.1806 -0.0057  0.1061
22384W        W38645   9.656   8.937  15.686 -0.0018  0.0618  0.0915
22385W        W38646   8.415  10.646   1.056 -0.2044 -0.1436 -0.1440
22386W        W38647   8.399   0.036  15.856 -0.0364  0.0577 -0.0390
22387W        W38648  11.615   3.544   1.020 -0.1272  0.3549  0.2459
22388W        W38649   2.523   9.424  13.112  0.0520 -0.0931  0.2688
22389W        W38650  12.146   4.081   3.617 -0.3314  0.2856 -0.0099
22390W        W38651  12.133  15.652   1.100  0.0222 -0.1531  0.1064
22391W        W38652  10.535  14.302  12.545  0.0698  0.0450  0.0408
22392W        W38653   8.626  12.823  12.719 -0.2663  0.0702  0.1834
22393W        W38654   0.536  12.169  15.702 -0.3627  0.2772 -0.1399
22394W        W38655  10.497   2.676   5.272  0.1045 -0.0061 -0.1876
22395W        W38656   3.651  12.638  14.503 -0.1095 -0.2346  0.1328
22396W        W38657   1.103  10.865  14.636 -0.0333 -0.2536 -0.1611
22397W        W38658  10.311   5.738  13.234  0.1997 -0.1073  0.0333
22398W        W38659  15.117   0.370   3.968 -0.2548 -0.2142  0.2018
22399W        W38660   2.342   3.370  15.279  0.2135 -0.0430  0.0558
22400W        W38661   4.659   7.858  16.649 -0.1911  0.0403  0.0928
22401W        W38662   3.070  14.578  13.558  0.0464 -0.0492  0.1729
22402W        W38663   9.188  15.622  13.942 -0.0960  0.1382  0.2207
22403W        W38664  14.030  13.751   4.826  0.0237  0.2273  0.0125
22404W        W38665  14.488   1.683   3.285  0.1956  0.0738  0.1064
22405W        W38666   4.471   5.166  16.266 -0.1207 -0.0511 -0.1570
22406W        W38667   1.324   7.983   4.095  0.1691 -0.0315 -0.1109
22407W        W38668   3.365   0.854   3.504 -0.1121  0.2980  0.1033
22408W        W38669   7.915  14.648   4.820 -0.1211 -0.1990 -0.2590
22409W        W38670  12.364   6.241  15.453  0.0364  0.4827 -0.2273
22410W        W38671   3.736   0.594  14.680 -0.0016 -0.0414 -0.1217
22411W        W38672   7.817  10.829  13.892  0.1856 -0.1139 -0.0751
22412W        W38673   5.479   4.807   5.339  0.4270 -0.1029  0.0034
22413W        W38674  12.245  16.371   2.495 -0.1539 -0.1247  0.0760
22414W        W38675   4.956   0.888   4.973 -0.1164 -0.0810  0.3188
22415W        W38676   1.437   6.845  16.178 -0.0697  0.0077 -0.1332
22416W        W38677  16.763  14.164   3.759 -0.0681 -0.1898  0.0761
22417W        W38678   6.858  14.988  15.424 -0.0610  0.0830 -0.1647
22418W        W38679  12.441   3.849  12.940  0.0302 -0.0792 -0.0022
22419W        W38680   4.564   2.376   0.463 -0.2710 -0.1128 -0.3935
22420W        W38681   3.541   5.013   1.113 -0.0975 -0.2578 -0.1844
22421W        W38682  11.354   0.551   1.612  0.0956  0.1360 -0.1492
22422W        W38683  12.614   8.357   4.394 -0.0928 -0.0167  0.0927
22423W        W38684  12.633   3.607  11.933  0.1231  0.1501 -0.2174
22424W        W38685   0.470   9.320  15.176 -0.0134 -0.0668  0.3508
22425W        W38686   8.779   5.584   1.088 -0.2886 -0.0366 -0.1290
22426W        W38687   3.605  14.444  12.689 -0.1250  0.2231 -0.1140
22427W        W38688  14.942   2.825  13.239 -0.1462 -0.3973  0.0697
22428W        W38689   3.206   0.736  13.360  0.0318  0.5297 -0.1434
22429W        W38690  15.519   6.733   5.788 -0.4108  0.4213 -0.1965
22430W        W38691  12.638  16.004   4.038 -0.1493  0.0449 -0.0102
22431W        W38692  10.415  12.850   2.085  0.1587  0.0846  0.0789
22432W        W38693   7.917   1.578   4.128  0.3616  0.1615  0.0291
22433W        W38694  13.171   8.985  11.417  0.2037  0.0148 -0.1526
22434W        W38695   8.397   7.073   3.870  0.1011 -0.2691  0.1414
22435W        W38696   3.216  16.628   4.406 -0.3201 -0.3288  0.2701
22436W        W38697   5.375  17.659  13.713 -0.1512 -0.0663 -0.0255
22437W        W38698  15.489   5.135  11.079  0.1298  0.0345 -0.3392
22438W        W38699  16.060  11.211  11.950  0.2102 -0.0368 -0.1121
22439W        W38700  11.095  17.236  14.426 -0.1408 -0.2044 -0.0304
22440W        W38701   2.853  12.793  12.256 -0.0962  0.0763  0.1593
22441W        W38702  11.831  14.977  16.529  0.0944  0.1567  0.3798
22442W        W38703  16.143   8.855  14.312 -0.0694  0.1455 -0.1553
22443W        W38704   6.738   3.044   4.579 -0.0842  0.3425 -0.1291
22444W        W38705   8.698   4.354  16.404  0.0803  0.0643 -0.3068
22445W        W38706   0.174  10.712  16.626 -0.1099  0.1932 -0.0389
22446W        W38707   3.348  11.340   2.543 -0.1706 -0.0932  0.1980
22447W        W38708  15.015   1.085   3.975  0.0348  0.0341 -0.0700
22448W        W38709   1.593   6.133  14.223  0.1212 -0.0401 -0.2211
22449W        W38710   6.818   7.290   4.891 -0.0052 -0.1010 -0.1988
22450W        W38711   7.772  13.063  12.953  0.0106 -0.1758 -0.1913
22451W        W38712   2.909  13.810   6.085 -0.1139 -0.2429  0.3498
22452W        W38713   7.642   0.541   4.896  0.1793  0.0891  0.1246
22453W        W38714   7.719   1.003  13.633 -0.2232 -0.0560  0.0607
22454W        W38715  10.361  16.286  11.726  0.2542 -0.0788 -0.1452
22455W        W38716  11.000  18.077   6.045 -0.2030  0.0415 -0.0189
22456W        W38717  11.925   1.343   0.382 -0.0140  0.3094 -0.1246
22457W        W38718  14.886  12.738   4.800 -0.0724  0.3436 -0.1299
22458W        W38719   4.942   8.818   2.367  0.0945 -0.0630  0.0840
22459W        W38720   5.395   5.049  13.720  0.0579 -0.1366 -0.3209
22460W        W38721   5.877  12.033   5.716 -0.0716 -0.2909  0.3960
22461W        W38722  11.202   6.823  14.776  0.0786  0.3022  0.1505
22462W        W38723   2.125   8.493  11.578 -0.0214  0.0188 -0.0340
22463W        W38724   9.426  15.023   3.069  0.1141  0.0601  0.0569
22464W        W38725  14.724  10.397   1.483  0.5436  0.1059 -0.1726
22465W        W38726   9.081  11.125  15.748  0.3661 -0.0968 -0.0130
22466W        W38727  16.598  11.645   1.899  0.2341 -0.0589  0.2650
22467W        W38728   6.030  15.464   1.194 -0.0830  0.2050  0.1744
22468W        W38729   4.502  12.186  14.414  0.0726 -0.0263  0.0246
22469W        W38730   1.377  16.123  16.279 -0.1697 -0.0220 -0.1071
22470W        W38731  14.198  12.352   5.026  0.2522 -0.0858 -0.1752
22471W        W38732   4.082  14.127  11.927 -0.0795  0.0522  0.2668
22472W        W38733   1.189   6.598   2.254  0.0529  0.1396 -0.0077
22473W        W38734   6.431  12.337   0.421 -0.1189 -0.0993  0.1230
22474W        W38735  14.054  15.797   3.342  0.0961 -0.0694 -0.3179
22475W        W38736   6.135  17.848   5.764 -0.0904  0.0758  0.1363
22476W        W38737  10.699  11.039   3.225 -0.1866  0.1591 -0.4553
22477W        W38738  11.687   2.528   1.473 -0.0921 -0.0714  0.0723
22478W        W38739  13.134   4.757   5.049 -0.2570 -0.0789  0.1011
22479W        W38740  16.338   2.322  15.772  0.3448 -0.0253 -0.1715
22480W        W38741   8.543   2.614  16.397  0.1761 -0.5814  0.1708
22481W        W38742  16.219   4.967   4.796  0.1052  0.1351  0.0928
22482W        W38743   8.305   7.024   0.045  0.4158 -0.3681 -0.2281
22483W        W38744   3.222  15.889  15.269 -0.1481 -0.1136 -0.1622
22484W        W38745   1.760  11.729  12.281  0.3359 -0.1485 -0.2575
22485W        W38746  10.483  16.066  15.201 -0.1699 -0.1498 -0.0808
22486W        W38747   2.005   1.133  13.608  0.1183  0.0340  0.3160
22487W        W38748   7.138  17.285  12.384  0.1065 -0.1606  0.1215
22488W        W38749   1.223  14.999   5.716 -0.1257 -0.1361  0.2468
22489W        W38750  15.550   1.902   5.578  0.2722 -0.2115  0.4386
22490W        W38751  16.867  13.123  14.590  0.3130  0.1131  0.1795
22491W        W38752   7.780   9.948  14.685 -0.1507  0.2233 -0.2794
22492W        W38753  17.869  12.076  16.015  0.0472  0.0078  0.1310
22493W        W38754  13.640   2.702  11.761 -0.2094 -0.0221 -0.2235
22494W        W38755   4.323   7.471  14.210 -0.0495 -0.1852  0.0081
22495W        W38756   3.018   5.297  14.149 -0.0025 -0.3347  0.1416
22496W        W38757   7.676   3.755   2.658 -0.0050  0.0501  0.0128
22497W        W38758  15.961   1.911   2.026 -0.0838 -0.0237 -0.1398
22498W        W38759   3.391   4.719  15.888 -0.0239 -0.0575 -0.3323
22499W        W38760   2.750   6.367  12.638  0.1874 -0.1979 -0.3099
22500W        W38761   0.436   9.795  12.914  0.0513 -0.0013 -0.0492
22501W        W38762   7.120  16.141  14.989  0.0695 -0.0598 -0.0373
22502W        W38763  10.124   6.012  15.682  0.3937 -0.1462 -0.3041
22503W        W38764  11.643  12.710   0.950  0.1316  0.4678  0.1983
22504W        W38765   8.262   7.181  15.201  0.0897 -0.0321 -0.0589
22505W        W38766  11.533  15.707   1.191 -0.0565 -0.1964  0.3478
22506W        W38767   4.591   6.387   3.443  0.0262  0.0306 -0.1108
22507W        W38768  11.873   3.495  15.428 -0.0503  0.2982  0.0253
22508W        W38769  12.356   8.828   4.481  0.0411  0.0061  0.1727
22509W        W38770   0.346   6.901  12.428 -0.0842  0.1843  0.0708
22510W        W38771   0.629  14.023   3.004  0.0449  0.1712  0.0420
22511W        W38772   0.256   4.942   4.140  0.0863  0.2074  0.0037
22512W        W38773   9.352   3.507   4.670  0.2152  0.0176  0.1415
22513W        W38774   4.836  10.714   2.962  0.1138  0.3230  0.0988
22514W        W38775  14.206   5.791   1.725 -0.0302  0.2742 -0.0473
22515W        W38776   7.424  13.314  11.750 -0.0890  0.2900  0.2879
22516W        W38777  14.656  16.236   3.328 -0.2447 -0.3953  0.5076
22517W        W38778   6.240   3.613  11.411  0.0400  0.3077  0.0531
22518W        W38779  10.559  11.818  14.816 -0.0530  0.2599  0.0418
22519W        W38780  14.031   4.331  11.242  0.1100  0.0541 -0.0474
22520W        W38781   7.696   8.474  14.590 -0.0353  0.0149 -0.0052
22521W        W38782  10.438  16.781  11.543 -0.0608 -0.1072  0.0196
22522W        W38783   5.933  17.448  13.050 -0.1528  0.3862 -0.1137
22523W        W38784  14.356   2.289  12.894  0.0306 -0.1267 -0.0799
22524W        W38785  18.080   5.867  14.971 -0.3464 -0.1753  0.1216
22525W        W38786   1.157   1.810  15.813 -0.0448 -0.1381 -0.2990
22526W        W38787  10.692  15.299   2.838  0.0345  0.2249 -0.0372
22527W        W38788  10.968  17.036  12.549 -0.3604 -0.0338  0.2554
22528W        W38789  17.688   1.602  12.229 -0.1442 -0.1743 -0.2246
22529W        W38790   4.221   4.961  15.505  0.0245 -0.1262 -0.3410
22530W        W38791   7.125   1.708   2.877  0.1379  0.0908  0.1281
22531W        W38792  12.744  13.021  15.048  0.2497 -0.2311 -0.1525
22532W        W38793   0.041   4.534   3.860 -0.1738  0.2101  0.2342
22533W        W38794  17.957   0.824  11.939  0.0441 -0.1513 -0.0017
22534W        W38795  17.159   8.701   4.875 -0.0414  0.0675  0.0954
22535W        W38796  15.336   7.268  11.311  0.0270 -0.2543 -0.1026
22536W        W38797   9.475  15.036   6.445  0.1571 -0.0447  0.2619
22537W        W38798   2.291   4.986  11.940 -0.0578  0.3199  0.5217
22538W        W38799  12.612   1.394  11.402  0.2024  0.1306  0.0950
22539W        W38800   2.871   7.315   0.334 -0.0600  0.1072  0.0655
22540W        W38801   0.084  16.389   1.729  0.1616 -0.0663 -0.0178
22541W        W38802   2.558   0.745   2.777 -0.1765  0.1967  0.0906
22542W        W38803   9.639   2.109  13.487 -0.0861  0.0526 -0.1922
22543W        W38804   2.245  10.830   0.459  0.2651 -0.1141 -0.0822
22544W        W38805  14.358   5.896   0.555 -0.0789 -0.3001 -0.0233
22545W        W38806  15.118   5.505   2.039 -0.5689  0.2238  0.0161
22546W        W38807   3.346  14.169  12.313  0.0803 -0.1808 -0.0813
22547W        W38808  11.681   4.781   3.116 -0.3121 -0.1146  0.2933
22548W        W38809   2.871   4.030   2.040 -0.2483  0.0744  0.1810
22549W        W38810   2.008   2.131   2.644 -0.3223 -0.0843 -0.0222
22550W        W38811  15.649  16.930  12.235 -0.0304 -0.2315  0.2935
22551W        W38812  11.822   2.574   3.081  0.3757  0.2995  0.2625
22552W        W38813  15.608   6.095  13.339 -0.0636  0.0792 -0.2613
22553W        W38814   0.138  13.389   5.366 -0.5671 -0.2405 -0.0130
22554W        W38815   8.821   5.999  14.134 -0.1338 -0.1600 -0.3592
22555W        W38816  12.107   0.726  12.761 -0.0816  0.0295 -0.0738
22556W        W38817  18.115  14.431   5.579 -0.1325 -0.2176  0.2008
22557W        W38818   3.899   8.826   4.075  0.2894 -0.0892  0.0613
22558W        W38819  15.938  17.385   4.595  0.1237 -0.4020 -0.1716
22559W        W38820  11.297   3.607  11.666  0.1738  0.0245 -0.2899
22560W        W38821   9.355   9.258   4.529 -0.2097 -0.3052 -0.1157
22561W        W38822  15.304   9.169  15.877  0.0558 -0.0469 -0.1245
22562W        W38823   0.305   8.906   0.674 -0.4447 -0.4084 -0.0349
22563W        W38824   6.265   7.637   2.037  0.1617 -0.2194 -0.0543
22564W        W38825  11.769   8.285   2.884  0.1380  0.1149  0.3868
22565W        W38826   9.751  14.100  14.224 -0.1385 -0.0956  0.1832
22566W        W38827   7.102  11.425  15.326  0.0159 -0.1039  0.0719
22567W        W38828  13.416   2.433   0.531 -0.1929  0.0739  0.1182
22568W        W38829  12.790  17.122   1.145 -0.0965  0.1783 -0.0649
22569W        W38830  10.912  11.653  12.208  0.1218  0.1795 -0.0432
22570W        W38831  14.554   9.539  13.626  0.1321 -0.1652  0.0414
22571W        W38832  12.096  13.148  12.646 -0.1836  0.4072  0.1446
22572W        W38833  10.135   9.805   5.436 -0.0173  0.0226  0.0217
22573W        W38834   7.407   2.259   6.051  0.0957  0.0774 -0.1221
22574W        W38835   7.175  17.006  13.299  0.5903 -0.0887  0.0002
22575W        W38836   8.230   1.110   1.915 -0.0477 -0.2276 -0.0727
22576W        W38837  15.458   6.487  14.359 -0.0434 -0.0877  0.0811
22577W        W38838   3.523   7.369   0.907  0.1565 -0.0648 -0.1786
22578W        W38839   2.105   0.415  14.364 -0.0395  0.0024  0.1921
22579W        W38840   4.162  14.429  12.715  0.1416 -0.1073  0.2397
22580W        W38841  17.623  16.756   3.899 -0.1438  0.3624  0.0377
22581W        W38842   7.013  10.360  11.638 -0.0265  0.0661 -0.0167
22582W        W38843  17.203  13.047   4.445  0.1130 -0.1172  0.1229
22583W        W38844  16.137  13.051   0.463  0.1456 -0.2242 -0.3627
22584W        W38845  10.157  11.734   4.171 -0.0100 -0.1315  0.2747
22585W        W38846   7.373  15.746  15.409 -0.0696 -0.0417  0.0039
22586W        W38847   1.261  13.728  13.243  0.2355 -0.3945  0.0690
22587W        W38848  16.504   6.272   1.708 -0.1115 -0.0648 -0.0822
22588W        W38849   4.757  17.259   0.169  0.1968  0.1445  0.0916
22589W        W38850   2.598  11.174   1.279  0.1633  0.1016 -0.3912
22590W        W38851  14.471   4.555   3.494  0.0393  0.1324 -0.3092
22591W        W38852  16.919  10.115   5.569  0.1305  0.2510  0.3039
22592W        W38853   6.112  17.803   0.244 -0.1099  0.1279 -0.0281
22593W        W38854   1.604  14.789  12.339 -0.0408 -0.2354  0.2978
22594W        W38855   2.203  16.106  13.866 -0.1273  0.2064  0.1555
22595W        W38856  13.054   6.520  11.816 -0.0375  0.1168 -0.1849
22596W        W38857   2.523   0.304  11.443 -0.1785 -0.2058 -0.4291
22597W        W38858  12.755   8.966  11.720 -0.0807  0.1476  0.0973
22598W        W38859   4.679  17.496  12.058 -0.2130 -0.3534  0.2993
22599W        W38860  16.251   6.580  15.362 -0.0564  0.3589 -0.0392
22600W        W38861   0.059   9.937  16.139  0.2109  0.0202  0.1120
22601W        W38862   9.852  14.842   0.572 -0.3017  0.2409  0.0092
22602W        W38863   4.454   7.989  13.168  0.1909  0.1174  0.2211
22603W        W38864   7.419  11.399  14.305  0.1008 -0.1300  0.3572
22604W        W38865  13.302   4.297  15.117  0.0820  0.4195  0.0902
22605W        W38866  13.921   9.844  11.825  0.2060 -0.0680  0.0128
22606W        W38867  10.062  13.223   3.156 -0.4858 -0.1356  0.1510
22607W        W38868   4.654  10.029  14.294  0.1191 -0.2155 -0.1131
22608W        W38869  15.076   7.222   0.951  0.0443  0.0351 -0.2104
22609W        W38870   9.907   7.918   2.526  0.1110 -0.2706 -0.0694
22610W        W38871   2.403   8.439  13.722  0.1314 -0.2599  0.1616
22611W        W38872  13.161  16.977  11.619  0.0069 -0.2871 -0.0809
22612W        W38873   7.795  14.939   3.989 -0.1908 -0.4362 -0.2425
22613W        W38874   4.084   3.408   0.430  0.1228 -0.2069 -0.0464
22614W        W38875  14.135  12.348   1.742 -0.3012  0.1915  0.1260
22615W        W38876   8.954   1.806   4.158 -0.0856 -0.1106  0.0902
22616W        W38877  16.530   1.133   0.672  0.1312 -0.3912 -0.2733
22617W        W38878   5.025   0.776  12.208  0.0753  0.2087 -0.1674
22618W        W38879   6.258  15.492   4.939 -0.0681  0.0109  0.0885
22619W        W38880  16.243  10.141  15.341 -0.1182 -0.1253  0.0839
22620W        W38881   8.643  11.234  11.339 -0.2152 -0.1243  0.0289
22621W        W38882  12.218   8.300  15.661  0.0395  0.0848 -0.1946
22622W        W38883   0.558  14.794   0.774  0.2664  0.0872 -0.3713
22623W        W38884   6.032  15.557  15.626 -0.0765  0.0159 -0.1273
22624W        W38885  11.246  18.160  14.573 -0.0621  0.1805  0.0572
22625W        W38886   9.031  16.815  12.904  0.1628  0.3667 -0.0467
22626W        W38887  17.803  17.218  13.702 -0.1279  0.0201  0.2084
22627W        W38888   6.143  13.834   5.644  0.0613  0.2128  0.2491
22628W        W38889  17.145   9.037   2.329  0.1021 -0.0081 -0.4681
22629W        W38890   5.341   5.222   0.071  0.2695 -0.3001 -0.0923
22630W        W38891   6.196   3.805  13.057  0.1754  0.0366  0.0150
22631W        W38892  14.978  16.572  11.204 -0.0677 -0.1268  0.2793
22632W        W38893   1.283   3.414   2.661  0.2595 -0.0034 -0.2120
22633W        W38894   1.552  10.156   1.313  0.1187  0.1126 -0.1897
22634W        W38895   7.397   5.734  16.567  0.0778 -0.0788 -0.0108
22635W        W38896  17.637  17.461  12.328  0.1114  0.0732  0.1899
22636W        W38897   5.321  11.375  15.283 -0.1705 -0.0699 -0.1109
22637W        W38898   5.216   4.628  14.072 -0.2266 -0.2051 -0.0050
22638W        W38899   9.777   7.968   3.816  0.1803  0.2618 -0.4206
22639W        W38900  11.168  10.517  16.163 -0.1696  0.0595  0.1178
22640W        W38901  16.530   5.869   6.553 -0.1640  0.1713  0.2862
22641W        W38902   2.103   3.835  10.929  0.0237 -0.0921 -0.1925
22642W        W38903   7.032   2.189  15.650  0.0287  0.3573  0.1916
22643W        W38904  17.770   9.783  11.343 -0.0031  0.1487 -0.1180
22644W        W38905  11.117   6.510   1.308 -0.0245 -0.0402 -0.0773
22645W        W38906   5.948  13.148   2.579  0.3735 -0.2620  0.1187
22646W        W38907   0.507  15.064   1.445 -0.1176  0.2760  0.2585
22647W        W38908  17.176   1.615   5.525  0.0950  0.0896  0.1332
22648W        W38909  13.680  13.139  14.353  0.0807  0.0944 -0.0379
22649W        W38910   6.180  11.085  15.320  0.1411  0.1862  0.2868
22650W        W38911   3.732   9.921  11.849 -0.0385 -0.2479 -0.2691
22651W        W38912  12.284   6.029  11.361 -0.2385  0.4124 -0.0555
22652W        W38913   9.319  17.154   1.876 -0.2715 -0.0928  0.3823
22653W        W38914  15.097   3.597   3.623 -0.1516 -0.0918  0.1255
22654W        W38915   6.884   1.338   0.594 -0.0903 -0.2870  0.0722
22655W        W38916  11.769   9.229   4.511 -0.0478 -0.2315  0.1292
22656W        W38917  13.577  14.229   2.740  0.1313  0.2586 -0.1570
22657W        W38918   9.005   3.421   3.915 -0.0517  0.1132 -0.1339
22658W        W38919   9.631   2.876   2.717 -0.1773  0.0431  0.0692
22659W        W38920  12.399  16.924  16.107  0.6195  0.3360 -0.5425
22660W        W38921  16.614  13.846  11.962 -0.0263 -0.0687  0.0135
22661W        W38922   7.154  16.034   4.302  0.0436  0.4172 -0.4182
22662W        W38923  13.844   0.385   2.236 -0.3005 -0.2213  0.1185
22663W        W38924  16.387   9.239   1.978  0.2781  0.0121 -0.0880
22664W        W38925  18.092  16.439  14.882 -0.4455 -0.1083 -0.0787
22665W        W38926  13.606  17.710  14.912 -0.3210  0.2463  0.0940
22666W        W38927  14.501  14.930   0.987 -0.1176  0.2486  0.0005
22667W        W38928  10.144   3.712   5.578 -0.2474  0.1675 -0.2226
22668W        W38929   3.570   5.080  11.469 -0.1477 -0.0284 -0.0836
22669W        W38930  14.250  11.819  14.319 -0.0704 -0.1429  0.0433
22670W        W38931   3.260   1.166   5.264  0.0242  0.1311 -0.2448
22671W        W38932   4.081   5.746  14.869 -0.0318 -0.2480  0.3402
22672W        W38933  15.953   4.785  12.795  0.3387 -0.1838 -0.0652
22673W        W38934  14.073   7.580   2.694 -0.2532 -0.0017 -0.0185
22674W        W38935   4.284   0.611  11.837  0.1228  0.0499  0.2562
22675W        W38936  11.335  16.824  11.814  0.1515  0.4219  0.1686
22676W        W38937   6.954   3.173  14.254  0.2657 -0.1485  0.0089
22677W        W38938  11.037   5.273  13.908  0.0607  0.1209  0.1335
22678W        W38939  14.263   5.406  12.933 -0.0120 -0.1330  0.1316
22679W        W38940  12.168   9.710   0.117  0.0089 -0.0357 -0.2376
22680W        W38941  10.523  15.937   1.692 -0.1410 -0.3063 -0.0713
22681W        W38942  10.339   2.347   4.766 -0.0963 -0.2647 -0.1141
22682W        W38943   7.048   3.800   1.188 -0.0947 -0.0587  0.3897
22683W        W38944   9.935   3.424   2.213  0.2404  0.1041 -0.0766
22684W        W38945   4.901  12.726   3.383  0.0869 -0.1069  0.0320
22685W        W38946   9.871  17.272   1.999 -0.0224  0.2342  0.1227
22686W        W38947   0.314  13.628  13.479  0.0514  0.0642  0.2487
22687W        W38948  18.093  11.695  15.007 -0.0682  0.1453 -0.1873
22688W        W38949   3.730  13.335  14.992 -0.0820  0.0290  0.0744
22689W        W38950  14.277   2.840  11.472  0.3227  0.0619 -0.0323
22690W        W38951   0.091  12.197   1.666  0.0622  0.0419  0.1014
22691W        W38952  11.518  17.515  12.706 -0.3713  0.1443  0.2298
22692W        W38953  12.229   0.085   3.874 -0.0083 -0.0026  0.3219
22693W        W38954   7.638  15.793   4.454  0.0080  0.0244 -0.1811
22694W        W38955   1.188  16.563  15.133  0.3833 -0.0520  0.0666
22695W        W38956   3.783   5.258  12.192 -0.1894  0.0619  0.0978
22696W        W38957  11.352  13.523   4.799  0.1772 -0.3239 -0.0258
22697W        W38958   6.470   4.407   4.770  0.3153  0.0119  0.1497
22698W        W38959  16.483  14.192   2.748 -0.1636  0.1821  0.0243
22699W        W38960  13.644  11.945   0.842 -0.1016  0.4122 -0.1703
22700W        W38961  12.088   1.747   4.931 -0.0005 -0.1701 -0.1157
22701W        W38962   3.872  18.018   2.013 -0.2035  0.0808  0.2209
22702W        W38963   8.765   8.121  11.676 -0.0307  0.1023  0.2008
22703W        W38964   8.080   4.471  14.220  0.3246 -0.2142  0.1634
22704W        W38965   0.289   6.601  16.555 -0.0129 -0.2145  0.0429
22705W        W38966  15.202  11.516  11.465  0.2151 -0.1525 -0.2144
22706W        W38967   0.424   4.885  16.197 -0.1124 -0.3264  0.0717
22707W        W38968   8.259   5.262  13.330  0.1449 -0.1059  0.1900
22708W        W38969  12.603   7.116   0.593  0.0132 -0.2260 -0.2953
22709W        W38970  14.654  10.724  13.017  0.3146 -0.1065  0.0040
22710W        W38971   0.336   5.214   2.000  0.0248  0.2290 -0.1242
22711W        W38972  16.835  14.764  15.407  0.0753  0.1615 -0.0455
22712W        W38973   5.120   3.320   4.166 -0.2305  0.0639 -0.3835
22713W        W38974   2.738  14.226   2.144  0.2632 -0.1006  0.1927
22714W        W38975   0.039   5.059  12.784  0.4414  0.0360  0.2370
22715W        W38976   2.382   5.834   3.548 -0.4339  0.0208  0.0432
22716W        W38977   5.928  12.576  13.754 -0.0322  0.2974 -0.1488
22717W        W38978  12.097  14.923   1.933  0.0282  0.1294 -0.2356
22718W        W38979  10.051  12.389   1.166 -0.1157  0.1180  0.0151
22719W        W38980  12.578   7.916   5.223 -0.2126 -0.1882 -0.1093
22720W        W38981   8.988   9.138   1.598 -0.0354 -0.2626 -0.1828
22721W        W38982   9.831  17.093  15.580 -0.0693 -0.0516 -0.1057
22722W        W38983  14.708  12.908  14.275 -0.1879 -0.1358  0.2588
22723W        W38984  17.622   8.281   1.061  0.4726  0.0850 -0.1055
22724W        W38985  15.409   7.444  16.001 -0.2085  0.2319  0.4440
22725W        W38986  12.882  10.296  12.444  0.0842 -0.2377  0.0604
22726W        W38987  13.280  17.057  12.522 -0.1869  0.2002 -0.1484
22727W        W38988  14.895   9.516   1.933  0.2395  0.0317  0.4815
22728W        W38989  16.226   4.507  13.133 -0.0565  0.0678  0.0511
22729W        W38990  12.422   5.468   3.266 -0.2933  0.0894  0.1115
22730W        W38991   1.455  12.739  13.468  0.3081  0.1115  0.2159
22731W        W38992   0.057   6.845   2.842 -0.3150 -0.0810  0.2039
22732W        W38993   6.216   4.755   5.524  0.0712 -0.0738 -0.0066
22733W        W38994  10.986   5.537   3.492 -0.1415  0.1776  0.3560
22734W        W38995  17.373  10.695   3.684 -0.0013 -0.0211 -0.0621
22735W        W38996  16.226  14.576  14.571  0.1107 -0.0714  0.0442
22736W        W38997   4.507  12.995  14.689 -0.0996  0.0892 -0.0478
22737W        W38998  12.140   1.770  15.514  0.1735 -0.0525 -0.0397
22738W        W38999  15.815  11.174   1.091 -0.0848 -0.2923 -0.1864
22739W        W39000   6.280   6.580   0.458  0.1692  0.2923 -0.2629
22740W        W39001   5.885   5.202  14.411 -0.2810 -0.0496  0.1670
22741W        W39002   4.716  11.530  11.396  0.0134 -0.2354 -0.5018
22742W        W39003   4.635   9.177   4.646  0.1157  0.0606  0.1171
22743W        W39004  13.903   4.765   2.851 -0.2102 -0.0356 -0.3047
22744W        W39005   6.015   3.198   0.900 -0.2209 -0.2664 -0.2417
22745W        W39006  12.050   1.636   5.449  0.1969 -0.0982 -0.0623
22746W        W39007   4.299   7.527  13.205 -0.2713  0.2246  0.2456
22747W        W39008   3.286  17.557  12.914  0.0195 -0.0186  0.0508
22748W        W39009  11.620  13.958   0.042  0.2245  0.1984  0.0990
22749W        W39010   4.415  13.914   1.174  0.1758  0.0829 -0.1056
22750W        W39011   7.539   9.960  15.525 -0.0261 -0.1795  0.1133
22751W        W39012   2.251  16.859  13.394  0.0342 -0.0010  0.0162
22752W        W39013  10.161   7.302  12.789  0.1082  0.0239  0.0111
22753W        W39014  10.488  11.987   2.572 -0.2447 -0.0766  0.3281
22754W        W39015   6.281   5.469  12.336 -0.1015  0.0557  0.2030
22755W        W39016   5.423   8.971   3.239 -0.0688  0.2204 -0.0894
22756W        W39017  12.593   5.192  12.215  0.0361  0.2153 -0.1822
22757W        W39018  12.238  17.934  14.593  0.4609  0.1543  0.0963
22758W        W39019   4.912   6.145  12.297 -0.2268 -0.2546  0.0513
22759W        W39020  12.750  15.140   0.269  0.1972  0.3621  0.0456
22760W        W39021   7.828   8.148  13.272 -0.1448 -0.1292 -0.2144
22761W        W39022   4.040   7.834   3.781  0.0014  0.1459 -0.0976
22762W        W39023  10.499  14.765  12.252 -0.0351  0.3195 -0.1047
22763W        W39024  12.665  12.605   4.730  0.0728 -0.0198 -0.3396
22764W        W39025  16.351   9.597   4.479  0.2988  0.2207  0.1146
22765W        W39026   8.877  14.548   1.000  0.0492  0.1750 -0.3333
22766W        W39027   2.996   8.689  11.560 -0.2724 -0.2997 -0.0074
22767W        W39028   9.906  17.920   4.821  0.3951 -0.0523  0.1246
22768W        W39029   6.898   6.312   3.279 -0.1954  0.0470  0.0642
22769W        W39030   4.859  11.033   3.503  0.4135  0.1467  0.1757
22770W        W39031   7.025   1.156   1.083  0.2322 -0.0317  0.0523
22771W        W39032   7.902   8.780   0.086 -0.1683  0.3020  0.2074
22772W        W39033  12.488   3.040   2.027 -0.1521  0.0911  0.0151
22773W        W39034   3.918  11.233   1.833  0.1868  0.2419  0.1397
22774W        W39035  14.718  10.666  14.320 -0.1584 -0.0059 -0.3326
22775W        W39036   5.610  17.119   3.288 -0.2792 -0.2288  0.1581
22776W        W39037   1.520   7.708   3.605  0.3297  0.1131 -0.1745
22777W        W39038   5.879  13.753   5.164  0.3373  0.0279 -0.1715
22778W        W39039  18.142  18.014   3.511 -0.0706 -0.2595  0.2779
22779W        W39040   7.009  14.857  16.298 -0.0236  0.0058  0.2854
22780W        W39041  16.136   2.736  14.972 -0.0607 -0.0991  0.2440
22781W        W39042   7.000   7.481   5.888  0.1777 -0.0102  0.0011
22782W        W39043   6.101  11.420  14.840  0.2639  0.0925 -0.2858
22783W        W39044  15.106   5.850  13.226 -0.0915  0.1116 -0.0994
22784W        W39045   4.327  14.162   5.269  0.0288  0.1297 -0.3628
22785W        W39046  11.941  14.118  12.527  0.3283  0.3915 -0.0435
22786W        W39047  16.933   3.735   5.683 -0.5367  0.0999 -0.0475
22787W        W39048   0.361   3.745  15.076  0.0366  0.0463 -0.0507
22788W        W39049   3.746  12.672  16.185  0.0875  0.0511  0.1222
22789W        W39050   2.912  18.031   4.231 -0.0966  0.1235 -0.0463
22790W        W39051   1.315   4.735   1.836 -0.0550  0.1927 -0.3153
22791W        W39052   4.093  17.114  13.882  0.2315 -0.1563 -0.3395
22792W        W39053   8.086  13.170  12.112 -0.0448  0.1760  0.0262
22793W        W39054   4.918  11.400   1.956 -0.3687 -0.0813  0.1436
22794W        W39055  14.884  13.548  11.251  0.2950 -0.4664  0.0099
22795W        W39056  18.063  16.007  12.609  0.1377  0.1676 -0.0352
22796W        W39057   8.322   6.462   4.928  0.2549  0.1395 -0.2415
22797W        W39058  12.551  14.401  13.602 -0.0781  0.1123 -0.1299
22798W        W39059   4.655   4.985   0.773  0.1656 -0.1311  0.2327
22799W        W39060  10.599  15.407   4.645 -0.4656  0.2129 -0.0094
22800W        W39061   6.978   9.246  13.717 -0.1025  0.0269 -0.0156
22801W        W39062   5.729  10.102  12.250 -0.0398 -0.1692 -0.2495
22802W        W39063   7.609   4.621   1.439  0.2198  0.1774 -0.0087
22803W        W39064  14.656  16.676   1.836 -0.2385  0.0746  0.1072
22804W        W39065  16.820  11.695   0.616 -0.3534 -0.1685  0.0862
22805W        W39066   8.577  15.603   2.329  0.3941  0.1460 -0.1774
22806W        W39067   5.693  16.706   1.620  0.3485 -0.0781  0.0237
22807W        W39068   9.274   1.957   0.536  0.0382  0.2546  0.4003
22808W        W39069   3.477  15.445  15.289  0.4120  0.0694 -0.3650
22809W        W39070  13.050   2.000  11.760  0.3660 -0.1929 -0.3462
22810W        W39071   7.157  16.094  14.228  0.2597  0.1686 -0.0073
22811W        W39072  15.396   9.857  11.840  0.1142  0.0452  0.1661
22812W        W39073  12.007  17.647  11.803  0.0820 -0.2108  0.3280
22813W        W39074   7.575  14.943   2.025  0.2247 -0.2499 -0.0736
22814W        W39075  11.782   5.166  13.029  0.1064  0.1969 -0.1807
22815W        W39076   7.334   9.911  11.810 -0.0287  0.3028 -0.1499
22816W        W39077  13.210  11.812   2.907 -0.0615  0.2052 -0.1680
22817W        W39078   8.644  10.152  13.953 -0.0508 -0.0539  0.1023
22818W        W39079   8.962   0.513  11.504  0.4533 -0.3647 -0.1756
22819W        W39080  16.278   4.398   0.107 -0.0985  0.2266  0.2158
22820W        W39081   7.277   9.026   2.319  0.1708 -0.0843  0.0099
22821W        W39082   2.099  15.257   5.718 -0.0419 -0.2245 -0.5042
22822W        W39083  11.468  15.539   2.679 -0.0041  0.2668  0.0119
22823W        W39084  16.142   9.343   4.836 -0.1236  0.0652 -0.0698
22824W        W39085   2.220   6.730  15.589  0.2021  0.2026 -0.0493
22825W        W39086   3.890   0.149   3.244  0.0711  0.0247 -0.2044
22826W        W39087   1.109   1.074  15.179 -0.0945  0.0811  0.0654
22827W        W39088   6.991  10.924  16.015  0.1072  0.1337 -0.1326
22828W        W39089  11.141   6.581  14.367  0.0634 -0.1448 -0.2046
22829W        W39090  17.766   7.247   5.722 -0.2048 -0.1339 -0.2297
22830W        W39091   2.355   2.563   2.579 -0.3128 -0.1282  0.1293
22831W        W39092   6.232  16.670  13.357  0.0707 -0.1023 -0.0056
22832W        W39093  11.471   5.261  13.382  0.2141  0.2261  0.0446
22833W        W39094   8.558   7.116   4.353  0.3152 -0.0723 -0.2214
22834W        W39095   7.446   6.285  14.935  0.1976 -0.0875  0.1151
22835W        W39096  14.924   7.884  16.597 -0.0512 -0.0177 -0.2177
22836W        W39097  16.659  16.285  13.599  0.1974 -0.1501  0.0856
22837W        W39098   1.225   8.147  15.355  0.0156  0.2621  0.1560
22838W        W39099  13.775   2.205   4.944 -0.1819  0.0412  0.4659
22839W        W39100   7.607  14.410   1.918 -0.0903  0.0946  0.1181
22840W        W39101   4.225   8.723   3.702  0.1051 -0.0065 -0.3155
22841W        W39102   0.216   2.803   1.853 -0.1245 -0.0112  0.0204
22842W        W39103   8.358   1.966  13.266 -0.1125 -0.0255  0.0837
22843W        W39104   5.391   9.300   5.297  0.1176  0.0465 -0.1194
22844W        W39105   2.806  12.442  14.475  0.0355  0.2489  0.0364
22845W        W39106  14.537   4.341   0.271  0.1673  0.0335 -0.0220
22846W        W39107   4.896   6.700  15.681  0.0341  0.0612 -0.2850
22847W        W39108  14.846  16.145  11.485 -0.0048  0.3792  0.0629
22848W        W39109   4.333  15.983   4.705  0.3500  0.1958  0.1822
22849W        W39110   3.208   6.110   4.288 -0.2288 -0.0373  0.2281
22850W        W39111  15.185  16.752   5.625 -0.4571 -0.1809 -0.1149
22851W        W39112   7.503  12.254   5.024  0.0535 -0.0149  0.2876
22852W        W39113  11.742  11.838  14.037  0.3419 -0.3196  0.1486
22853W        W39114   0.038  14.538  14.915  0.0618 -0.0233 -0.0508
22854W        W39115   3.407   2.476   1.920 -0.1623 -0.1015 -0.2999
22855W        W39116  10.789   6.078   3.058 -0.0252 -0.1299  0.0044
22856W        W39117  17.880   9.519   0.727 -0.0586  0.2498 -0.2945
22857W        W39118  12.616   8.411  16.077 -0.0486 -0.0694  0.0489
22858W        W39119   1.877  17.560   3.770 -0.1842 -0.3490  0.2093
22859W        W39120  10.728   7.287   0.500  0.0405  0.1323  0.2970
22860W        W39121  10.689  10.074  15.736 -0.2662  0.1472 -0.1394
22861W        W39122   3.944   2.605   3.336  0.2191 -0.2146 -0.1900
22862W        W39123   3.351   4.554  12.381 -0.2096 -0.0063  0.3617
22863W        W39124   6.509  17.097   3.676 -0.0508 -0.3901  0.3023
22864W        W39125  10.485   1.677  16.092 -0.2926  0.1245  0.0642
22865W        W39126  14.724  14.785   0.569  0.1260 -0.0708  0.1071
22866W        W39127   5.792   7.344  14.419  0.0252  0.2468 -0.1519
22867W        W39128  18.095   6.334   4.281 -0.0576 -0.1939  0.0357
22868W        W39129   8.469   5.365   3.802  0.1241  0.0488 -0.0447
22869W        W39130   3.799   5.665   4.028  0.2337  0.1138 -0.3563
22870W        W39131   2.308  17.713   0.941  0.0528  0.0413 -0.2214
22871W        W39132   3.792   4.524  13.289  0.2439  0.1056  0.0083
22872W        W39133  11.225  10.655   1.779 -0.3174  0.1694  0.1695
22873W        W39134   8.707   6.001  13.051 -0.0791 -0.0019 -0.1870
22874W        W39135  17.225   8.811  12.777  0.2995  0.0437  0.0266
22875W        W39136   9.415  17.959   2.901 -0.0939 -0.1495 -0.0456
22876W        W39137  16.215   2.442   3.614  0.0234 -0.3024  0.0518
22877W        W39138   0.475  16.709  16.207  0.3076  0.3809  0.0909
22878W        W39139  16.111   6.119   3.152  0.2899 -0.2770  0.1729
22879W        W39140  10.499  10.252  15.087  0.0782  0.0220 -0.0479
22880W        W39141   2.007   6.022  11.258 -0.0940  0.2288  0.2525
22881W        W39142   7.239  13.959   6.191 -0.2656  0.5281  0.1609
22882W        W39143  17.723  16.663   6.044 -0.0668  0.4212  0.3455
22883W        W39144  12.036  11.805  12.087  0.0785  0.4025 -0.0199
22884W        W39145   7.536   2.253   4.176 -0.0461  0.0255 -0.3014
22885W        W39146   4.968   0.865   2.173 -0.0279  0.1321  0.0050
22886W        W39147   5.181  17.573  11.813 -0.1508 -0.3740 -0.0001
22887W        W39148   7.020   2.686   4.966  0.1139  0.0729 -0.3500
22888W        W39149   6.140   5.381   4.773 -0.0773 -0.1216  0.2369
22889W        W39150   9.058  17.231  12.502  0.1868 -0.1506  0.0293
22890W        W39151  14.379  16.539  12.875  0.0100  0.1268 -0.1231
22891W        W39152  13.262  13.456   2.528 -0.0369  0.0287 -0.5255
22892W        W39153   4.212   7.273  16.649  0.1955  0.1525 -0.2233
22893W        W39154  11.332  17.039   3.056 -0.1820  0.0237  0.1355
22894W        W39155  16.513  16.671  16.256  0.1740 -0.2183 -0.2379
22895W        W39156   0.806  12.049  13.879 -0.3214  0.1627 -0.1688
22896W        W39157   5.932   2.304  12.430  0.2267 -0.1030  0.0980
22897W        W39158   9.838   8.278  14.106 -0.3289  0.2670  0.1607
22898W        W39159  10.807   0.217   0.516 -0.0244  0.0704  0.2142
22899W        W39160  15.831  12.649  14.192 -0.3154 -0.4100  0.1380
22900W        W39161   1.099  18.000   4.981  0.0342 -0.1559  0.3158
22901W        W39162  16.795   7.013   1.481 -0.2383 -0.0846 -0.2189
22902W        W39163  15.757   8.034  11.795 -0.0624 -0.0157  0.1547
22903W        W39164   2.747   9.837   2.440  0.0918  0.1428  0.1215
22904W        W39165  10.636   0.422  14.989 -0.2163 -0.0549 -0.0972
22905W        W39166   1.176  15.636   1.013 -0.0918  0.1356 -0.0810
22906W        W39167  10.412   4.152   4.960 -0.0967  0.0719 -0.1576
22907W        W39168   0.433   0.369   0.351 -0.0934  0.0276  0.0767
22908W        W39169   7.054   6.812   3.142  0.0945 -0.1966 -0.0986
22909W        W39170  17.200   3.211  12.417  0.0466  0.0618 -0.1179
22910W        W39171  14.001  11.632  13.903  0.1052 -0.2030 -0.3109
22911W        W39172   0.686  17.294   0.211 -0.0334  0.4628 -0.0735
22912W        W39173  17.498  11.632   0.239  0.1589  0.3437 -0.0014
22913W        W39174   4.094   0.241   1.672 -0.1448 -0.1966  0.0304
22914W        W39175  11.277   7.027  15.316  0.2355 -0.1054 -0.1561
22915W        W39176  11.362  14.854   4.491  0.3098 -0.1463  0.2774
22916W        W39177   3.256  15.754   5.513 -0.1322  0.0675  0.1280
22917W        W39178   7.121  10.026   0.964 -0.0601  0.1580 -0.0810
22918W        W39179   9.806   1.758  14.758 -0.1066 -0.0117 -0.1734
22919W        W39180  10.346  13.459  15.204  0.1347  0.0448  0.3644
22920W        W39181  13.624   6.597  15.995 -0.2928 -0.1509 -0.1087
22921W        W39182  13.933  11.239   3.084 -0.2718 -0.1646  0.0543
22922W        W39183  16.089  15.861   3.290  0.1342 -0.2625  0.1225
22923W        W39184  16.197  15.206  13.900  0.0055  0.0534  0.1909
22924W        W39185   8.456  17.559  15.079 -0.0299  0.1228 -0.0496
22925W        W39186   0.057   9.808   2.237  0.0336  0.0131  0.1452
22926W        W39187  18.047   3.540  12.636 -0.2479  0.1835  0.0146
22927W        W39188   2.707  10.709   1.060  0.2257 -0.0771  0.2803
22928W        W39189   4.697  11.527   6.187  0.2672  0.1647  0.0205
22929W        W39190   1.474   9.386  16.352 -0.0369  0.0868  0.1118
22930W        W39191   3.891  11.964  13.925  0.0774 -0.0901  0.1789
22931W        W39192   9.757  10.656  12.073 -0.3207  0.1493 -0.4706
22932W        W39193  18.077   3.878   3.697 -0.0806  0.2115  0.0977
22933W        W39194  11.826  17.237  13.203  0.3932  0.1761  0.2238
22934W        W39195  11.043  11.104   0.306  0.2230 -0.1770  0.0853
22935W        W39196   8.196   3.741   2.148 -0.2064  0.1578 -0.5286
22936W        W39197   4.386   0.463  13.491 -0.1140 -0.1923  0.0026
22937W        W39198   6.052  12.123  14.045  0.2971  0.2619  0.0001
22938W        W39199  17.016   3.647   0.098 -0.1128  0.3821  0.0726
22939W        W39200   3.621   5.780   5.576  0.0315  0.0709  0.1428
22940W        W39201   6.117  11.093   5.699 -0.1081 -0.1801  0.1319
22941W        W39202   2.629  15.637   0.367 -0.0521 -0.0067 -0.1217
22942W        W39203   1.347   3.752   4.045  0.1407 -0.3689  0.1637
22943W        W39204  10.031   0.115   2.398  0.1970 -0.0509  0.1023
22944W        W39205   3.113   1.143  15.289  0.0153  0.0816  0.2439
22945W        W39206   5.948   3.286  12.994  0.1050 -0.3110 -0.1004
22946W        W39207   8.948  13.524  13.841  0.1942  0.2909  0.3994
22947W        W39208   2.078   9.735  14.074 -0.0439  0.0765  0.2335
22948W        W39209  12.019   2.132   1.930  0.0604 -0.0489  0.2699
22949W        W39210  15.632   2.780  15.879  0.5013 -0.2795 -0.1175
22950W        W39211  16.559   3.497   3.743 -0.2146  0.3514  0.2825
22951W        W39212  16.796   9.371  11.741 -0.0024 -0.1037 -0.0410
22952W        W39213   4.851   7.201  14.266  0.0932 -0.1485  0.0055
22953W        W39214  11.037  13.781  12.919  0.1437  0.0963 -0.1189
22954W        W39215   6.670   5.308  16.181  0.0881  0.2064  0.2415
22955W        W39216   7.930   9.446  14.774  0.0145 -0.0727  0.1395
22956W        W39217  15.213   4.096   4.043 -0.0325  0.0263  0.1173
22957W        W39218  16.518  17.169   2.253 -0.3417  0.2077  0.2299
22958W        W39219  14.100   6.152   2.933 -0.0353 -0.0898  0.0800
22959W        W39220   1.073   1.654   6.011  0.3182 -0.2293 -0.0794
22960W        W39221  14.489  14.220   2.952  0.3131 -0.0511  0.0912
22961W        W39222   5.845   9.241  13.902  0.2666 -0.0725 -0.1936
22962W        W39223   7.002  14.282   1.868 -0.3557  0.0265  0.2590
22963W        W39224  12.067  18.040   2.487 -0.1376 -0.3211  0.2131
22964W        W39225   0.037   6.785  14.938  0.2648  0.0451  0.1403
22965W        W39226  15.672   7.840  13.259  0.2033 -0.0948  0.1240
22966W        W39227  15.120  14.386   1.319  0.2704  0.1584  0.1918
22967W        W39228  10.829  16.136   3.351  0.2671  0.0767  0.2157
22968W        W39229   0.539  15.411  16.207 -0.1633 -0.1350  0.3098
22969W        W39230  11.395  12.330  16.572  0.0096  0.2982  0.0155
22970W        W39231   7.326  16.313   5.164  0.0328  0.2509  0.1457
22971W        W39232  13.595   9.649   0.910  0.0493 -0.3120 -0.0834
22972W        W39233  13.609   5.184   2.091 -0.2243 -0.1023  0.1128
22973W        W39234  16.688   9.923   6.033  0.1673  0.1157  0.0804
22974W        W39235   2.150  17.540   0.089  0.2194 -0.3231  0.3385
22975W        W39236  10.485   0.009   2.595 -0.0298 -0.1189 -0.0551
22976W        W39237   5.513  10.400  16.383  0.0554 -0.0364 -0.1142
22977W        W39238   0.454  13.157  11.025  0.1062 -0.0595  0.1795
22978W        W39239   2.115  11.905   0.070  0.1500 -0.2349 -0.3042
22979W        W39240   8.086  10.513   1.935  0.1273 -0.2734  0.0932
22980W        W39241   1.635   6.846   2.040 -0.0323  0.2094 -0.0443
22981W        W39242  14.172  16.372  14.793  0.4645  0.0036  0.0436
22982W        W39243  11.648  14.160   5.558 -0.0073 -0.0455 -0.1702
22983W        W39244   0.480  17.389   5.087  0.1820  0.0325  0.1944
22984W        W39245   7.065  12.429  12.073 -0.2226  0.1482  0.0465
22985W        W39246   4.167  13.436   1.176 -0.0388 -0.0931 -0.0346
22986W        W39247   1.448   7.752  11.766  0.1557 -0.0103  0.1258
22987W        W39248   1.637  13.147  16.267  0.0610  0.1279 -0.2976
22988W        W39249   8.692  11.764   0.527 -0.0736 -0.1687  0.0045
22989W        W39250   5.439   9.808   3.024 -0.0343  0.3510 -0.2008
22990W        W39251   7.992   8.450  12.897 -0.1338 -0.1269  0.0087
22991W        W39252  13.646   2.422  15.696 -0.1797 -0.0990  0.2269
22992W        W39253  10.441  10.933  15.740 -0.1742  0.0465  0.1361
22993W        W39254   1.477   4.224   4.843 -0.0574 -0.1256  0.2533
22994W        W39255  16.039  16.731  16.533 -0.0177  0.1796  0.0973
22995W        W39256  15.796   5.157   4.532  0.0109 -0.4501 -0.2601
22996W        W39257  16.949   7.244  15.061 -0.0049 -0.1082 -0.1849
22997W        W39258   0.695  17.300  11.782  0.0476  0.0156  0.2674
22998W        W39259   6.942   8.584   2.153 -0.1846  0.0664  0.1127
22999W        W39260   7.345  12.620   0.387  0.3178 -0.1844 -0.0553
23000W        W39261   1.138   0.734   0.815 -0.1898 -0.3158  0.0859
23001W        W39262   4.703  15.959   0.901 -0.0229  0.1411  0.0540
23002W        W39263  13.987  14.722  15.609  0.0437  0.5523  0.3547
23003W        W39264  12.171  12.007   2.715 -0.0284  0.1491  0.1788
23004W        W39265  16.009   4.709  15.872  0.1232  0.3515 -0.2651
23005W        W39266  12.002  14.625  13.168 -0.2408 -0.5272 -0.0543
23006W        W39267   1.556   8.211  16.606 -0.2240 -0.1021  0.0472
23007W        W39268   0.639  10.432   5.845  0.0354  0.4962 -0.1381
23008W        W39269   2.068   3.007   1.725 -0.1069  0.1775 -0.0639
23009W        W39270  15.471   1.925   4.866  0.1594  0.3572  0.3248
23010W        W39271  17.350   7.758   5.190 -0.0651 -0.2709 -0.2678
23011W        W39272   9.885   3.391   5.272  0.1687  0.0453  0.0709
23012W        W39273   4.449   6.968  12.317  0.1088 -0.0233 -0.0905
23013W        W39274   4.114  10.479   3.243  0.0518  0.0291 -0.0203
23014W        W39275   2.428   9.529   6.228  0.0634 -0.2920 -0.1553
23015W        W39276   4.835  17.336  13.244  0.0896  0.0861 -0.2301
23016W        W39277  11.667   1.964  14.306 -0.2847  0.3273  0.0333
23017W        W39278  14.466  14.810  16.173  0.1414 -0.1982  0.2169
23018W        W39279  12.412  13.520  12.503 -0.3595 -0.1158  0.1203
23019W        W39280  11.552  13.691  12.908  0.3508 -0.2223  0.0901
23020W        W39281  10.088   9.115   4.814  0.0481 -0.1964  0.0651
23021W        W39282   7.961   0.918  14.700  0.0743  0.0012 -0.3087
23022W        W39283  17.614  10.007  12.764  0.1204 -0.1846 -0.1207
23023W        W39284   8.163  12.149   2.463  0.3027 -0.1397 -0.0550
23024W        W39285  13.240  10.879   4.602  0.0739  0.3741  0.1280
23025W        W39286   9.607  15.160  14.345  0.0716  0.1597  0.0798
23026W        W39287  11.319   3.009   4.994 -0.0020  0.0688  0.1791
23027W        W39288   7.626   6.959   0.612  0.0840 -0.0178  0.1549
23028W        W39289   9.343   8.238  14.976  0.2547 -0.0185 -0.2211
23029W        W39290  15.507   1.648  14.404 -0.1787  0.3870 -0.1065
23030W        W39291  13.957  17.063   0.695  0.0342 -0.1637 -0.4997
23031W        W39292  16.395  12.285   5.688  0.3352  0.0071  0.3041
23032W        W39293  13.554   4.051  12.525 -0.1246  0.1916  0.0952
23033W        W39294  17.272  10.879   5.189  0.0677  0.1098  0.0487
23034W        W39295   5.100  14.194  16.567  0.2134  0.1923 -0.1705
23035W        W39296  15.167  17.344   2.360  0.0919 -0.0343 -0.1032
23036W        W39297   5.559   7.071  14.808  0.4295 -0.2177 -0.0279
23037W        W39298   1.203  13.587   4.425 -0.0211 -0.2259 -0.2853
23038W        W39299  12.763  11.603   3.999  0.2462  0.3556  0.3840
23039W        W39300   5.808   3.027   5.698 -0.0111 -0.2477  0.1894
23040W        W39301   7.637   8.777   1.605 -0.1486  0.2593 -0.1297
23041W        W39302   7.857   2.320  16.239 -0.0724 -0.0756  0.1605
23042W        W39303  15.720   5.904  13.787  0.3027 -0.0698  0.0501
23043W        W39304   5.449   0.982   4.200 -0.0210 -0.2294  0.0742
23044W        W39305   2.941   7.496  15.069 -0.3467  0.3280 -0.0525
23045W        W39306  17.612  12.373   2.067 -0.1971 -0.0438  0.3056
23046W        W39307   7.546  17.219   1.706  0.1336 -0.0346 -0.2399
23047W        W39308   9.476   1.318   5.921 -0.2315 -0.2179  0.0413
23048W        W39309  13.944  11.959  15.874 -0.4237 -0.1163  0.1071
23049W        W39310   7.383  11.205  15.650 -0.2372  0.2028  0.1787
23050W        W39311  17.959  18.140  15.291 -0.2315  0.1230 -0.1681
23051W        W39312  14.240  12.922   1.726  0.2585 -0.2225  0.1624
23052W        W39313  10.756  17.378   4.829 -0.1203 -0.0204 -0.3883
23053W        W39314  15.722   2.458  13.121  0.1819  0.2274 -0.0497
23054W        W39315  16.973   2.057  13.602 -0.1055 -0.0338  0.1398
23055W        W39316   2.262   9.279   3.599 -0.0133 -0.0382 -0.1853
23056W        W39317  15.320  10.933   4.351 -0.2682 -0.1967 -0.1543
23057W        W39318   4.170   9.436   0.968  0.1422  0.1713  0.0503
23058W        W39319   8.827  12.340   5.504  0.0350  0.2707 -0.3664
23059W        W39320  16.009  15.745  13.581  0.0635 -0.0028 -0.1236
23060W        W39321   0.026  12.150  12.290 -0.2532 -0.0086 -0.0920
23061W        W39322   8.219  13.503   2.779  0.1217  0.1783  0.3387
23062W        W39323  17.536   8.070   0.100  0.0369  0.1829 -0.0062
23063W        W39324  10.050  11.109   5.026  0.0078 -0.0259 -0.1582
23064W        W39325   4.020   6.605  16.463  0.0337  0.2727  0.1772
23065W        W39326  14.450   8.915  15.634  0.2659  0.3364 -0.0338
23066W        W39327   4.109  16.201  13.484 -0.0929  0.0977  0.2964
23067W        W39328  16.698   5.207   0.342 -0.0010  0.2428 -0.1706
23068W        W39329   4.782  12.105   4.418 -0.0071  0.0726  0.1190
23069W        W39330   0.214  16.692   1.295 -0.0402 -0.1853 -0.0211
23070W        W39331  10.365  10.079  16.359  0.0582  0.1855  0.2046
23071W        W39332   7.023   9.099   5.216  0.2205 -0.0608 -0.3156
23072W        W39333  10.725   7.184  11.129 -0.1050  0.2149  0.0509
23073W        W39334   3.202  12.048  13.337  0.0155 -0.0325  0.1214
23074W        W39335   7.698  14.214   4.708 -0.0984  0.3793  0.4114
23075W        W39336   7.537   1.123  14.516 -0.1919 -0.2436 -0.0778
23076W        W39337   2.027   7.441  16.121 -0.2288  0.0921 -0.1590
23077W        W39338   5.895  10.734  14.158 -0.2885 -0.0248 -0.1810
23078W        W39339  15.761   0.879   1.055  0.1004 -0.0105  0.0097
23079W        W39340   5.449  13.018  11.912  0.2045  0.0184  0.0596
23080W        W39341  10.369  14.433   5.006 -0.0198 -0.0115  0.0656
23081W        W39342   7.664  11.888   0.791  0.1185  0.0930  0.0081
23082W        W39343  10.092  10.712   3.720 -0.1498  0.0402 -0.0526
23083W        W39344  12.571  11.460   5.062 -0.0042 -0.1526  0.0027
23084W        W39345  14.303   4.312  11.912  0.2101 -0.0891  0.0148
23085W        W39346  11.854  17.070   3.987 -0.2421  0.0318 -0.0767
23086W        W39347   1.594   6.485   2.505 -0.0141  0.0448 -0.0521
23087W        W39348   1.632   3.249   1.586 -0.0623  0.1748 -0.0889
23088W        W39349  14.417   5.707   3.802  0.1429 -0.1310  0.1564
23089W        W39350  13.127   5.387   4.739  0.4754 -0.1320 -0.2448
23090W        W39351   4.439  16.885   0.330  0.1758 -0.4966  0.0520
23091W        W39352  14.649   0.880   3.230 -0.1775  0.1324 -0.1708
23092W        W39353   5.000   6.116  14.507  0.3079 -0.1072  0.0680
23093W        W39354   3.867   6.144  16.553  0.1866  0.0866 -0.3454
23094W        W39355  10.682  10.401   0.946 -0.1559  0.0607  0.0043
23095W        W39356  10.795   4.438   4.918  0.1232 -0.0874 -0.3600
23096W        W39357   3.009  16.035  12.024 -0.0360 -0.0089  0.2178
23097W        W39358   2.622   5.539   1.008 -0.0774  0.1369  0.0285
23098W        W39359  17.830  11.795   0.633 -0.0575 -0.3744  0.0705
23099W        W39360  15.363   2.138  15.639  0.1613  0.0504  0.0836
23100W        W39361   3.348  18.015  12.256  0.0761  0.1447  0.3091
23101W        W39362  14.156   4.154   3.429 -0.1955  0.2177 -0.1764
23102W        W39363   9.741  10.236  16.532  0.0210 -0.0090 -0.0847
23103W        W39364   6.022   0.614  15.701  0.3398 -0.0763 -0.0195
23104W        W39365  12.261  14.772  16.310  0.0798 -0.4721  0.2736
23105W        W39366   0.622  16.316  15.848 -0.1165  0.2401 -0.1905
23106W        W39367  10.974   3.177  11.277 -0.1838  0.3532  0.0166
23107W        W39368  15.896  14.793  14.285 -0.0360  0.1124 -0.0449
23108W        W39369   8.365  10.376  11.836  0.0655 -0.3802  0.1287
23109W        W39370  14.830   6.707  12.891  0.3368  0.0962  0.0654
23110W        W39371  13.392  12.577   3.325 -0.2452  0.1838 -0.0511
23111W        W39372  16.656  13.821  14.275 -0.0074  0.0254  0.0261
23112W        W39373  10.912   6.460  13.786 -0.0666 -0.1728 -0.2079
23113W        W39374   5.883   5.724  12.167 -0.1057  0.0695 -0.3791
23114W        W39375   1.463   6.846  13.172  0.1997 -0.1915  0.4259
23115W        W39376  10.497  10.732  12.627 -0.1002 -0.1501  0.0916
23116W        W39377   1.892   1.383   2.337 -0.2914 -0.3072 -0.0297
23117W        W39378  12.650  15.183  12.959  0.1034  0.0488 -0.0823
23118W        W39379   6.711   6.130   6.134 -0.1070  0.0168  0.2442
23119W        W39380   9.119  10.603   5.431  0.2064 -0.0605  0.3196
23120W        W39381  13.446   7.243   3.380 -0.3246  0.0704 -0.4353
23121W        W39382   2.848   7.391   3.826  0.3155  0.3343  0.1463
23122W        W39383  17.787  15.584  13.719 -0.0940  0.1608 -0.0946
23123W        W39384   4.736   5.405  12.966 -0.1762 -0.1572  0.1184
23124W        W39385  12.025  14.820  11.469 -0.1249  0.0794  0.0642
23125W        W39386  13.247   2.803  11.374 -0.1415 -0.0066  0.3110
23126W        W39387   3.060   5.511  14.984  0.0170 -0.2594  0.1155
23127W        W39388  12.445  16.945  14.425  0.1052  0.3812 -0.3209
23128W        W39389   7.562  13.382  15.948  0.0215 -0.1642 -0.1154
23129W        W39390   9.401   8.553   0.896  0.1188 -0.3836  0.2223
23130W        W39391  13.816   2.871  12.201 -0.2373  0.1780  0.1667
23131W        W39392   9.046  15.445   2.309 -0.2815 -0.1214  0.0278
23132W        W39393   4.032   5.975   4.808 -0.0356  0.0883  0.0751
23133W        W39394  12.135   8.907   1.253 -0.2351 -0.0058  0.2410
23134W        W39395  13.691  18.051   3.011  0.1524  0.0393  0.6523
23135W        W39396  10.477  11.470  15.461  0.0103  0.1496  0.3045
23136W        W39397  12.935  15.457   4.874 -0.0718 -0.0787 -0.2763
23137W        W39398  15.743   1.719  13.910  0.0083 -0.0210  0.4173
23138W        W39399   4.526   8.969   2.011 -0.0038 -0.0440 -0.1892
23139W        W39400   5.346  16.650   2.739  0.2602  0.2395  0.0428
23140W        W39401  15.825   3.186   3.263 -0.0760  0.3035  0.0580
23141W        W39402  18.193   2.108  15.595 -0.1626  0.2436 -0.1360
23142W        W39403   8.633   3.854  12.868  0.1695  0.3454 -0.2432
23143W        W39404   8.469   5.356   4.323 -0.1516  0.4386 -0.3561
23144W        W39405  15.739   8.594   1.431  0.0220  0.3609  0.1187
23145W        W39406   3.262   5.245   3.284  0.1568  0.2091 -0.1621
23146W        W39407   9.191   0.919   1.789  0.1765 -0.0211  0.2860
23147W        W39408  17.701  10.614   5.448 -0.0241 -0.2538 -0.1255
23148W        W39409  17.475  16.986   4.292  0.4551  0.2255  0.0937
23149W        W39410  13.222   2.760   0.899  0.0263  0.2296 -0.1654
23150W        W39411  16.738   8.597   1.964 -0.1277  0.4487 -0.0458
23151W        W39412  13.145  10.335   4.550  0.1707 -0.0608 -0.2723
23152W        W39413  11.742   5.399   5.408 -0.2062 -0.1258  0.2140
23153W        W39414   7.940   5.427  14.517  0.0544 -0.0392 -0.1785
23154W        W39415  17.159  10.460  11.866 -0.0963  0.2244 -0.0475
23155W        W39416   6.349   9.978  12.837 -0.2290  0.0886  0.1377
23156W        W39417  12.493   1.786  16.362  0.2097 -0.0848 -0.4833
23157W        W39418  12.683  14.627  14.489  0.1779  0.2856 -0.2651
23158W        W39419  14.003  10.729   3.996  0.2053  0.1990 -0.1047
23159W        W39420   0.556   9.826  15.877  0.1499 -0.4457  0.3769
23160W        W39421   3.103   6.929   1.009  0.0404  0.0921 -0.0707
23161W        W39422  15.849   9.734  14.014 -0.2119  0.1526 -0.1043
23162W        W39423   8.837   9.400   4.858 -0.4674  0.2046  0.3023
23163W        W39424   2.545   2.910   5.295  0.0622 -0.3096  0.0272
23164W        W39425   9.475   5.031   1.212  0.0757 -0.3276 -0.2351
23165W        W39426   4.949   4.525   2.747  0.0522  0.1561 -0.0093
23166W        W39427   6.381   1.914  16.348  0.1267 -0.1740  0.0233
23167W        W39428   9.729   1.858  16.295 -0.0297  0.3484  0.1334
23168W        W39429   7.396   9.388   5.438  0.5150  0.1111 -0.0898
23169W        W39430  11.499  15.184   0.699 -0.2925  0.3273  0.0023
23170W        W39431   5.891  17.687  15.941 -0.2312  0.2697 -0.2407
23171W        W39432   0.896   2.013   0.537 -0.1648 -0.0368  0.0741
23172W        W39433   1.466   7.512   2.684  0.3531  0.1887 -0.0577
23173W        W39434   5.215   5.618   3.416 -0.4157  0.1531 -0.0200
23174W        W39435  15.573   9.913   3.675 -0.0927  0.0134 -0.2524
23175W        W39436  11.853  15.719   5.134 -0.0117  0.1494 -0.2050
23176W        W39437  17.799  13.432   1.122  0.0004 -0.0984  0.3012
23177W        W39438  16.489   3.087  15.736  0.0328 -0.2184 -0.3003
23178W        W39439   4.292  11.618   2.034  0.0106  0.5488 -0.2436
23179W        W39440   3.830   2.373   2.769 -0.3339 -0.0304  0.1762
23180W        W39441  16.242  15.409  11.537 -0.0326 -0.1312  0.1265
23181W        W39442   3.111   7.110   5.327  0.1119  0.0938 -0.0061
23182W        W39443   6.758   6.410  12.993  0.2511 -0.3251  0.0744
23183W        W39444  12.285  12.936  15.542 -0.0797 -0.0128 -0.0132
23184W        W39445   8.940   8.232   1.132 -0.3013 -0.2352  0.3540
23185W        W39446   0.098  13.216   2.637  0.0047  0.0951  0.0760
23186W        W39447  12.463   5.785   4.498 -0.3049  0.0498  0.1605
23187W        W39448  15.881  17.992  16.257  0.2462  0.1484 -0.2544
23188W        W39449  12.920   1.946   5.701  0.1827 -0.2167 -0.1824
23189W        W39450   8.707   7.355  12.186  0.1471  0.1642 -0.1304
23190W        W39451  17.841   4.592  14.019 -0.0778 -0.1014 -0.0635
23191W        W39452   2.822   4.188   0.317 -0.0558 -0.0696 -0.3117
23192W        W39453   9.314  16.564   1.695  0.0155 -0.0963 -0.0035
23193W        W39454   6.901   0.214   3.079 -0.1650 -0.0372 -0.0536
23194W        W39455  11.912   5.344   3.345 -0.0606  0.0079  0.0444
23195W        W39456  12.010  17.273   2.751  0.1770 -0.2297 -0.1621
23196W        W39457  12.800   5.769   0.035 -0.0312  0.3850 -0.1329
23197W        W39458   8.127  15.821   4.251 -0.2299 -0.2403 -0.1412
23198W        W39459   7.619   4.496   2.013  0.0313  0.3839 -0.0644
23199W        W39460   6.201   0.718   2.925  0.0778 -0.2021 -0.0131
23200W        W39461   5.568   8.194   2.534 -0.3119 -0.3177 -0.2537
23201W        W39462  15.098  17.236   3.604  0.0849  0.1659  0.2529
23202W        W39463  17.176   4.847  12.906 -0.0209 -0.1738 -0.3506
23203W        W39464   6.867   5.724   0.908  0.0302 -0.1505 -0.1374
23204W        W39465  17.647  18.064   5.007  0.2107  0.1095 -0.0387
23205W        W39466   2.227   6.293  12.653  0.1607 -0.1033 -0.1412
23206W        W39467   4.539  14.478  14.638  0.0404 -0.2711  0.2938
23207W        W39468  10.939  14.837   2.910  0.1311 -0.0162  0.1461
23208W        W39469   7.833   7.910   4.674 -0.2065 -0.0512  0.1551
23209W        W39470  15.914   4.802  15.299 -0.1017  0.2242 -0.1063
23210W        W39471  17.612  10.749  15.861 -0.1372 -0.0288 -0.0185
23211W        W39472   7.118   0.562   0.256  0.0355  0.1681  0.3384
23212W        W39473   6.790   1.251  13.035 -0.0203  0.3426  0.2548
23213W        W39474   8.746  13.476  12.885  0.0458  0.2650 -0.1182
23214W        W39475  12.052  11.153  12.851 -0.1756  0.2148 -0.1756
23215W        W39476  16.469   1.559  15.755  0.0281 -0.0691  0.2551
23216W        W39477  14.691   1.184  13.985 -0.3055 -0.2458 -0.0680
23217W        W39478   0.251   9.121   5.321  0.1872  0.0039 -0.1832
23218W        W39479   4.548   7.480  16.365 -0.1057  0.0623  0.1780
23219W        W39480  16.996  12.686   1.326  0.0479 -0.1758  0.1614
23220W        W39481   3.830  16.415   1.005  0.2591 -0.0849 -0.1571
23221W        W39482   4.283   5.245   3.307 -0.0810 -0.1130  0.0441
23222W        W39483  14.991   7.502   4.863 -0.3959 -0.1694  0.1428
23223W        W39484  15.952   9.958   4.753  0.1762  0.1189 -0.1207
23224W        W39485   7.283   4.975  15.863 -0.0791 -0.3189 -0.2111
23225W        W39486  18.000  10.099   5.713 -0.0098  0.1177  0.2298
23226W        W39487   6.928   9.861  11.471 -0.2370  0.2237  0.1997
23227W        W39488   5.272   7.598  13.261  0.0220  0.1336 -0.0607
23228W        W39489  15.432  13.428  11.846  0.1670  0.0384  0.1170
23229W        W39490  11.849   4.452  13.864 -0.0192  0.2449 -0.0822
23230W        W39491  16.720  15.429   3.291 -0.0980 -0.1359 -0.1565
23231W        W39492  12.356   9.065   3.739  0.1787  0.0126  0.1871
23232W        W39493  12.272   6.503  11.503 -0.2541  0.0094  0.0601
23233W        W39494  11.811   3.029  12.011 -0.0828 -0.0161  0.2883
23234W        W39495   8.225  11.747   4.148 -0.4924  0.3051 -0.2130
23235W        W39496   6.885  16.907  14.206  0.1101 -0.3850 -0.2395
23236W        W39497  12.199  10.879  15.103 -0.2675 -0.2136  0.0669
23237W        W39498  14.605  16.168   1.825 -0.1803  0.2093  0.1653
23238W        W39499  13.852  14.501  13.508 -0.0360 -0.1163  0.5127
23239W        W39500   5.908   4.049  15.871 -0.0988 -0.1074  0.0249
23240W        W39501  13.958  11.882   1.720  0.0819 -0.1608 -0.0703
23241W        W39502   2.121  13.014  12.838  0.0173 -0.0249  0.0991
23242W        W39503   7.341   9.210  12.437 -0.0782  0.1450 -0.0372
23243W        W39504  16.889  12.954  11.396  0.4055  0.2938 -0.3939
23244W        W39505  12.376  13.912  11.450  0.1609 -0.0046  0.0808
23245W        W39506  11.102   6.382  11.477 -0.1283  0.0361  0.0564
23246W        W39507  17.425   8.036  13.979 -0.2189  0.2059  0.1631
23247W        W39508  15.186   2.249   2.247  0.2496 -0.0777  0.1905
23248W        W39509   5.965  10.359   2.226 -0.3115 -0.0051  0.0123
23249W        W39510   1.631   7.392  13.094 -0.2042 -0.1076 -0.0766
23250W        W39511   7.090  12.102   2.051  0.2045 -0.0122 -0.0066
23251W        W39512   3.521   9.648   3.914 -0.2686 -0.0302 -0.2622
23252W        W39513   3.873   4.813   2.883  0.0175  0.0748 -0.0639
23253W        W39514   1.265  13.713  14.796 -0.0354  0.1509 -0.0350
23254W        W39515   7.780  14.489   3.084  0.1001  0.0175 -0.0504
23255W        W39516  11.740  12.347  12.897  0.1638  0.1790  0.2336
23256W        W39517   1.527   9.520   6.275  0.0821  0.2386 -0.4201
23257W        W39518  14.442   6.574  13.323  0.0910 -0.2149 -0.0754
23258W        W39519  17.362   7.818   2.883 -0.0540 -0.2456 -0.1305
23259W        W39520   3.049   2.768  12.751  0.3644 -0.0654  0.3034
23260W        W39521   8.484   1.834   4.076  0.2234  0.1991 -0.2287
23261W        W39522   0.480   9.945  11.440 -0.0347 -0.0844  0.1082
23262W        W39523  11.660  14.265   2.702  0.2955  0.0374  0.1056
23263W        W39524   8.790  17.164   1.545 -0.0762 -0.2330  0.1279
23264W        W39525  10.540  17.798  15.018 -0.0089 -0.2775  0.1242
23265W        W39526  15.202   1.197  14.736  0.3655 -0.0872 -0.2140
23266W        W39527   0.305   7.471   1.628  0.1657 -0.0117  0.0636
23267W        W39528   2.452  17.913   1.349  0.0104  0.0260 -0.3326
23268W        W39529   2.692   0.004   1.870  0.1616  0.0498 -0.2667
23269W        W39530  18.060   2.081   1.602 -0.2572  0.2086 -0.2759
23270W        W39531   2.973   0.140  13.797 -0.1825 -0.0847 -0.3096
23271W        W39532   5.449   1.565  12.965  0.0215  0.0029  0.2241
23272W        W39533   1.372   3.263  12.539  0.0597  0.0774  0.0843
23273W        W39534   7.549   8.136   1.538 -0.0238  0.1136 -0.1499
23274W        W39535   9.585   1.349   4.891  0.3008 -0.1338 -0.1295
23275W        W39536  18.027   7.230  12.708  0.1348  0.2500  0.1126
23276W        W39537   4.553  10.292   3.003 -0.1143 -0.0089 -0.3554
23277W        W39538   5.421   1.528  12.410  0.0582 -0.0371 -0.2246
23278W        W39539   0.128   1.926  16.564 -0.1312 -0.1188 -0.1908
23279W        W39540   7.843   1.786  13.257  0.1905 -0.0306  0.3940
23280W        W39541  16.826  13.847  16.057 -0.0688  0.1041 -0.0888
23281W        W39542  12.112   6.828   2.288  0.2568  0.1897 -0.3315
23282W        W39543  13.728   6.933  12.275  0.0307 -0.1291 -0.0834
23283W        W39544   7.311  14.077  14.463 -0.0512  0.1638 -0.1191
23284W        W39545   9.455  12.073   4.046 -0.0106 -0.1372  0.1748
23285W        W39546  14.765   5.425   3.460  0.0180 -0.0040  0.0049
23286W        W39547  10.218   3.667  15.681  0.0559 -0.0179 -0.1017
23287W        W39548  12.090   4.756   0.629 -0.3056 -0.6002  0.0902
23288W        W39549   9.217   9.692   4.794 -0.0269  0.0791 -0.1456
23289W        W39550  11.857   8.613  12.056 -0.0906  0.1793 -0.1455
23290W        W39551  14.582   4.870  14.050 -0.1165  0.2173 -0.2335
23291W        W39552  16.655   0.705  15.632  0.1177 -0.0044 -0.0637
23292W        W39553   9.707   6.078   1.883  0.0367  0.2556  0.0540
23293W        W39554   0.812   8.766  12.863 -0.0191 -0.1320  0.0115
23294W        W39555  11.096   7.390  14.863 -0.0385  0.1578 -0.0300
23295W        W39556   0.699   4.977  11.849 -0.0639  0.2079 -0.0238
23296W        W39557   6.096   5.965   3.544 -0.0089 -0.1629 -0.1539
23297W        W39558   1.171   5.996   0.069 -0.0995 -0.0196 -0.1317
23298W        W39559   0.503  13.128   2.902 -0.1558 -0.0337 -0.2093
23299W        W39560   2.300  13.090   1.823  0.4500 -0.0218 -0.0615
23300W        W39561  13.780  16.939  16.326 -0.3150 -0.1571  0.3219
23301W        W39562  10.896   7.100  11.558  0.0515 -0.1370 -0.1490
23302W        W39563   8.328  15.328   1.587  0.0672  0.0271  0.2752
23303W        W39564  17.580  12.152   0.247  0.0525 -0.1354  0.1432
23304W        W39565   4.139  13.312   0.295 -0.0398 -0.1344  0.3437
23305W        W39566  13.833  10.660  15.382  0.1575  0.1348 -0.0595
23306W        W39567  14.023  16.367  14.041  0.2010  0.0164 -0.2226
23307W        W39568   6.343   5.159  12.794 -0.0966 -0.1573  0.1229
23308W        W39569   8.715   4.739   5.136 -0.0801  0.1914  0.2723
23309W        W39570  13.602   8.763   3.863  0.2428 -0.1595 -0.1064
23310W        W39571  16.133   8.730  15.291  0.1784  0.1614 -0.2243
23311W        W39572   1.070   4.119   3.788  0.1237  0.0993 -0.1902
23312W        W39573  10.359   0.445  13.817 -0.2088 -0.1621 -0.2671
23313W        W39574  13.196  17.497   1.978  0.0572 -0.0087 -0.0040
23314W        W39575   0.156   8.909  15.108 -0.2057  0.1859  0.3342
23315W        W39576   2.537   5.365  15.340  0.4563  0.1953 -0.0464
23316W        W39577  12.347  12.008  16.560 -0.2286 -0.1094  0.1702
23317W        W39578  17.269  14.355  15.167  0.0289 -0.0758 -0.1999
23318W        W39579   4.074  14.312   6.122 -0.1196 -0.0313 -0.1375
23319W        W39580   7.943  16.508  16.298 -0.0709  0.1980 -0.4733
23320W        W39581   2.304   9.474  16.592 -0.1543  0.2757  0.4247
23321W        W39582   9.425  13.457   4.968  0.1467 -0.0487  0.2469
23322W        W39583   0.137   3.176  16.484 -0.1734  0.0820 -0.0067
23323W        W39584  12.927  16.261   1.387  0.1916 -0.0786 -0.0093
23324W        W39585   0.828   6.140  15.572  0.0536 -0.2059 -0.0803
23325W        W39586   4.067   6.448   6.165  0.0040 -0.1689 -0.0989
23326W        W39587  15.957   9.109  15.619 -0.0798 -0.2305 -0.1505
23327W        W39588   0.542  11.384   0.953  0.0044  0.2511  0.0539
23328W        W39589   3.570   7.204   2.505 -0.0427 -0.1396 -0.1187
23329W        W39590  16.829  16.259   0.604  0.1711  0.1714 -0.0650
23330W        W39591  14.137  12.180  16.432  0.2082 -0.0764 -0.0654
23331W        W39592   5.199   1.334   2.267  0.0691 -0.0319 -0.2496
23332W        W39593   0.791  18.037  14.595  0.1152 -0.4547 -0.0135
23333W        W39594   7.919  11.237  14.172 -0.2097  0.0753  0.2843
23334W        W39595   5.055   6.372  11.047 -0.0366  0.1635 -0.1377
23335W        W39596  12.102   5.693   1.020 -0.0603  0.0389 -0.3969
23336W        W39597   0.354   9.425  15.984  0.1544 -0.2353 -0.0234
23337W        W39598  12.895   9.492  13.091 -0.1619  0.1509 -0.2930
23338W        W39599   5.415  15.468   3.480  0.3774  0.2654  0.2068
23339W        W39600   9.766   3.270  16.520 -0.1094 -0.1663  0.2040
23340W        W39601  13.583  13.997   4.854 -0.2745  0.2419  0.1193
23341W        W39602   4.207  14.941  11.881 -0.1073  0.2874 -0.0978
23342W        W39603  15.493   2.665   0.494 -0.0372 -0.0185  0.3894
23343W        W39604   3.052   5.102   1.438  0.0119 -0.0321 -0.0685
23344W        W39605   5.092   1.671   3.239  0.0845  0.3863  0.2919
23345W        W39606  14.767   8.857   5.127  0.0651 -0.3012 -0.0096
23346W        W39607  10.169   4.030  11.027 -0.0997  0.2913  0.1148
23347W        W39608   7.362  16.526   0.673 -0.1063 -0.1041  0.1757
23348W        W39609   3.743  14.685  13.732  0.3139 -0.0296 -0.0071
23349W        W39610  16.221  13.737   2.669  0.2307 -0.0298 -0.0322
23350W        W39611   0.412   1.916   6.589 -0.1574 -0.0780 -0.1828
23351W        W39612   7.018   6.100  13.387  0.0043  0.0745  0.1374
23352W        W39613  10.468  11.379   1.155  0.1482 -0.0339  0.1717
23353W        W39614  15.314  10.652   5.623  0.2021  0.0602  0.0557
23354W        W39615   7.919  15.949  12.544  0.1898 -0.1095  0.1907
23355W        W39616   9.048  10.583  14.588  0.0632 -0.1897 -0.1541
23356W        W39617   3.502  16.755  12.097 -0.1331 -0.1052  0.1395
23357W        W39618   2.995  16.053  13.025 -0.1260 -0.0182 -0.1844
23358W        W39619  17.289  14.580   5.354 -0.1730 -0.1861  0.1337
23359W        W39620   1.611  15.348   5.083  0.1634  0.0789  0.2476
23360W        W39621   2.228  16.140   6.403 -0.0582 -0.1670 -0.1313
23361W        W39622   0.523  17.184   3.276 -0.0125 -0.4083  0.3679
23362W        W39623  15.899   5.761   3.673 -0.3611 -0.0349 -0.6045
23363W        W39624   7.149   2.344  16.583  0.4548 -0.0269 -0.2652
23364W        W39625   5.677  12.311   5.363 -0.4053  0.2220  0.0171
23365W        W39626  10.809  12.983  15.638 -0.0388 -0.0169  0.1890
23366W        W39627   2.888   1.789   0.990 -0.4040 -0.0604  0.1460
23367W        W39628  16.353  11.338   4.780 -0.2329 -0.2806  0.1514
23368W        W39629   2.491   8.293  12.823 -0.0872  0.0594 -0.2347
23369W        W39630   1.886  11.606   4.388 -0.1978  0.0745  0.1015
23370W        W39631  15.619   4.325  11.856  0.2283  0.0454  0.2792
23371W        W39632   1.864  11.396  15.413  0.1581  0.3672 -0.0940
23372W        W39633   3.857  12.198   4.111 -0.1288 -0.1285 -0.0048
23373W        W39634  14.616  14.714  13.849 -0.2915 -0.1632 -0.1272
23374W        W39635  16.732  16.336  14.170  0.0338  0.1013  0.0476
23375W        W39636   9.457  11.485  13.453 -0.0160  0.0273 -0.0100
23376W        W39637   3.815   3.488  15.552  0.0803 -0.0405 -0.0998
23377W        W39638  13.192  16.297  14.885  0.0645 -0.0481 -0.0783
23378W        W39639  12.195  13.901  12.185 -0.1695 -0.2517  0.1855
23379W        W39640  11.068   9.920   0.409 -0.2334 -0.0649 -0.0355
23380W        W39641   5.521   0.142   0.313  0.0634  0.1384  0.1972
23381W        W39642   5.076  16.613   5.360 -0.1045 -0.3882 -0.0815
23382W        W39643  15.423  12.695   6.455 -0.1363 -0.3012 -0.3789
23383W        W39644   3.165  18.021  13.112  0.0920  0.4654 -0.1751
23384W        W39645  14.912   4.947  11.941  0.0725 -0.1844 -0.1877
23385W        W39646  16.853  13.659  13.786  0.2474  0.1422 -0.3000
23386W        W39647   0.140  10.825  12.326  0.1026  0.0093 -0.1297
23387W        W39648   9.542  10.284   5.210  0.1271  0.1193 -0.3076
23388W        W39649   4.037   0.307  16.291 -0.0225  0.0984 -0.2104
23389W        W39650   2.285   4.756   5.988  0.2343  0.1037 -0.1103
23390W        W39651  10.098  18.123   4.194  0.1366 -0.2728 -0.1766
23391W        W39652  15.307   2.037  11.547  0.0855 -0.2341  0.1037
23392W        W39653  16.215   8.548  13.459  0.0823  0.0856 -0.1131
23393W        W39654  14.192  16.319   3.261 -0.0808 -0.1257  0.3083
23394W        W39655  12.576   1.814  11.642 -0.1422  0.3711  0.1785
23395W        W39656  14.180   4.048   2.620 -0.2215  0.0898 -0.5069
23396W        W39657   6.804   3.626   4.808 -0.0969 -0.1236 -0.1358
23397W        W39658   9.054   0.749   3.209  0.1761  0.1573 -0.1503
23398W        W39659  11.603  12.174  11.743 -0.0746 -0.0991  0.3670
23399W        W39660  12.781   9.227   2.397 -0.0874 -0.0284  0.1248
23400W        W39661   3.170   0.306  12.710  0.0889 -0.1006 -0.1458
23401W        W39662  18.067   3.647   0.059 -0.1589 -0.0115  0.0237
23402W        W39663   7.817  14.531   1.150 -0.3249 -0.3156  0.1520
23403W        W39664   4.818   8.145   0.482 -0.0215 -0.0343 -0.2139
23404W        W39665   9.575   7.762  12.627 -0.1910  0.1047  0.0156
23405W        W39666  14.698   2.737   0.415 -0.1411 -0.0099  0.0767
23406W        W39667   5.833   6.519   0.038 -0.1967 -0.0099 -0.4168
23407W        W39668   2.185   6.632   3.416  0.2853  0.3677  0.0438
23408W        W39669   8.038   2.306  14.108  0.0478  0.4914  0.0310
23409W        W39670  16.418  10.614  14.244 -0.1858 -0.1045  0.2568
23410W        W39671   4.555  16.460   3.179 -0.0428 -0.3317 -0.3224
23411W        W39672  11.269   7.362  11.204  0.0346 -0.0574  0.1381
23412W        W39673   1.886  14.917   3.584 -0.0814 -0.1114 -0.0754
23413W        W39674  11.724   8.671   4.684 -0.0931  0.2452  0.4256
23414W        W39675   6.935  10.589  14.376 -0.1672 -0.1789  0.0390
23415W        W39676   5.710  13.767   0.595 -0.0692  0.0578  0.1220
23416W        W39677   0.534  17.509  14.440 -0.2583  0.2734 -0.0512
23417W        W39678  15.408  18.055   4.993 -0.2687  0.1982  0.0256
23418W        W39679  12.015   5.346  13.860 -0.2942 -0.0584 -0.0594
23419W        W39680   6.031   2.268  12.956 -0.3153  0.2555  0.2396
23420W        W39681  12.648   6.326  14.598 -0.1395  0.2972  0.2498
23421W        W39682   4.022  13.691   4.676  0.0038 -0.0476  0.0333
23422W        W39683   6.119   3.276   2.528  0.0689  0.1486 -0.1671
23423W        W39684   1.274  13.726   1.576  0.0180  0.0318  0.1181
23424W        W39685  13.506  12.009   4.463 -0.0773 -0.1436 -0.0246
23425W        W39686   3.208  11.785   4.453 -0.1653 -0.3241 -0.0400
23426W        W39687   3.794  17.943   2.960 -0.1475  0.0934  0.1146
23427W        W39688   8.309   2.946  15.701 -0.0772  0.1728  0.0427
23428W        W39689   0.521  10.734   1.866  0.4830 -0.0278  0.1595
23429W        W39690  10.859  11.738  15.220 -0.2447 -0.0024  0.0994
23430W        W39691   0.677  16.468  16.614  0.0446 -0.2907  0.1090
23431W        W39692   0.114   4.421  16.118  0.1199  0.3136  0.0676
23432W        W39693   7.003  17.946  14.691  0.0941  0.0939 -0.3617
23433W        W39694   8.226   2.763   4.923 -0.0118 -0.0260 -0.4180
23434W        W39695   2.397  16.359   1.803 -0.1594  0.0320 -0.2693
23435W        W39696   3.017  10.793  13.066  0.0446 -0.3015  0.1884
23436W        W39697  18.103   1.482  12.615  0.0404 -0.1174  0.0465
23437W        W39698   7.804   6.651  15.253 -0.0912  0.0751 -0.0424
23438W        W39699   9.767  10.173   0.977 -0.1551 -0.3006  0.1228
23439W        W39700  11.859  17.613  16.063  0.1582  0.1728  0.3011
23440W        W39701   6.874   0.688   5.355 -0.1145  0.0457  0.0698
23441W        W39702  16.118   2.257  16.639 -0.2180  0.2786  0.1069
23442W        W39703   4.972   3.451   2.077  0.0679  0.0165  0.0857
23443W        W39704   2.036   4.456  14.715  0.1964  0.1389 -0.0411
23444W        W39705  11.303  16.120   2.713 -0.0281 -0.0978  0.3291
23445W        W39706   7.109  11.879  15.133  0.0227  0.0454  0.0358
23446W        W39707   6.000   3.572   3.852  0.3326  0.1336 -0.0484
23447W        W39708  14.557  12.407  16.647  0.2586  0.1605 -0.0058
23448W        W39709   2.370   6.627   6.621  0.1243 -0.1751 -0.1685
23449W        W39710   9.754   7.008  15.514  0.0561 -0.0812 -0.0514
23450W        W39711   8.984  12.328   0.997  0.3424  0.4754  0.2118
23451W        W39712  16.955   2.823  14.249  0.1599 -0.4387  0.0590
23452W        W39713   3.111   4.725  14.872 -0.0675  0.0900  0.0334
23453W        W39714  12.390  15.167  15.331 -0.2594  0.2477  0.1072
23454W        W39715   4.609   4.178   5.073 -0.1972 -0.2372  0.1124
23455W        W39716   1.187  17.741  14.209  0.1627 -0.0112 -0.0776
23456W        W39717   5.352   5.691  15.144 -0.1267 -0.1287  0.4665
23457W        W39718  17.234   1.687   1.807  0.2150  0.1500 -0.3378
23458W        W39719  12.489   2.442   5.187 -0.0421 -0.0289  0.1307
23459W        W39720   3.328  12.599   3.346 -0.0720 -0.2683 -0.1156
23460W        W39721  13.382   7.632   4.185  0.1162 -0.0060  0.3066
23461W        W39722   9.691   8.420   0.159 -0.3305  0.0557 -0.1145
23462W        W39723   2.328   2.444  15.314  0.0558 -0.0513  0.1541
23463W        W39724   5.606   2.839   0.601  0.0880 -0.0083 -0.0293
23464W        W39725   7.474  12.851   3.269 -0.0056  0.0395  0.0543
23465W        W39726   5.726   4.122   5.833  0.0225  0.1581  0.1906
23466W        W39727   6.932   5.348   0.579  0.1965 -0.2502 -0.2226
23467W        W39728  10.843   8.226  14.029 -0.2086 -0.2142  0.0251
23468W        W39729  11.842   7.819   0.312 -0.1146 -0.0823  0.4395
23469W        W39730   5.456  16.883   4.492  0.0195  0.0629 -0.1646
23470W        W39731   5.350   6.627   3.755  0.0057 -0.0483  0.0293
23471W        W39732   9.308  12.428   3.660 -0.1757 -0.1606  0.2641
23472W        W39733   5.338   5.641  15.672 -0.0186 -0.4695  0.0149
23473W        W39734  11.275  14.325   5.242 -0.0149  0.3811  0.2566
23474W        W39735   6.538   3.471   4.315 -0.1603 -0.0585  0.3455
23475W        W39736  11.907  15.239  11.712 -0.0468  0.4248 -0.1299
23476W        W39737   9.877   4.802  13.141 -0.0808 -0.3943 -0.1184
23477W        W39738   9.299   6.317  15.833 -0.1359 -0.0475  0.1310
23478W        W39739  17.310  15.229  12.107 -0.3702 -0.1538 -0.2451
23479W        W39740   7.161  16.219   5.651  0.1550 -0.0639  0.1376
23480W        W39741   7.446  16.711   4.937  0.3650  0.0272  0.0140
23481W        W39742   7.209   5.131   5.569  0.1016  0.1439  0.0998
23482W        W39743  11.230   8.289  11.537  0.0571  0.1546  0.0127
23483W        W39744  15.025   8.190  12.810 -0.1049 -0.3831 -0.2686
23484W        W39745   0.702   4.722   1.086 -0.1681 -0.1045  0.2096
23485W        W39746  13.846  10.295   0.146  0.1860 -0.0882  0.0782
23486W        W39747  14.516   7.470  12.413 -0.3294  0.0575 -0.0523
23487W        W39748   4.141   6.092  12.537  0.0390  0.1991 -0.0325
23488W        W39749  16.529   4.155   0.468 -0.3169 -0.2940  0.0452
23489W        W39750  16.324   8.827   2.752 -0.3888  0.1972  0.0266
23490W        W39751   5.895   8.326  14.497  0.1734  0.1222  0.0588
23491W        W39752  14.548  12.554   0.528  0.2029  0.1198 -0.2870
23492W        W39753  18.177  14.397  14.182 -0.0301 -0.0582  0.3079
23493W        W39754   7.841  15.473   4.820  0.2452 -0.2148  0.1153
23494W        W39755  10.407   2.306  11.642  0.1762  0.1536  0.3119
23495W        W39756  11.947  12.492   3.749 -0.0365 -0.0254  0.0281
23496W        W39757   0.098  13.254  14.825 -0.0775 -0.0635  0.1362
23497W        W39758  11.701   9.893   4.459  0.1746 -0.1860 -0.2340
23498W        W39759   4.961  15.504   4.347  0.2833  0.0588 -0.0057
23499W        W39760   5.260  15.901  15.816 -0.0996 -0.2976 -0.0318
23500W        W39761  17.346   9.541  11.527 -0.0665 -0.3924 -0.0285
23501W        W39762  12.550   4.689   0.682  0.0531 -0.0606  0.0047
23502W        W39763   7.964  12.894  11.669  0.0650 -0.0429 -0.0685
23503W        W39764  15.394   3.285   3.353  0.1436  0.1986  0.1029
23504W        W39765  14.012  15.659   1.167  0.0505  0.2859 -0.0255
23505W        W39766   3.976  17.343   3.992 -0.0065  0.1055  0.1912
23506W        W39767  14.038  16.505  15.471 -0.0642 -0.1665  0.1155
23507W        W39768   5.542  17.188   1.713  0.0190  0.1931 -0.0738
23508W        W39769   3.343   5.113  14.588 -0.0452 -0.1938  0.1278
23509W        W39770  15.122   0.029  16.640 -0.1519  0.0039 -0.0586
23510W        W39771   8.923   5.221   4.336  0.3899  0.0383 -0.1408
23511W        W39772   6.595   4.549   5.223  0.0944 -0.0486 -0.0104
23512W        W39773   4.942  13.201   4.549 -0.1400 -0.2385 -0.0378
23513W        W39774  13.473   2.938   4.989 -0.0970 -0.1894 -0.2683
23514W        W39775   2.383   4.128   6.044 -0.1363  0.0844 -0.0882
23515W        W39776   8.318   0.654   4.478 -0.1889  0.1276 -0.0003
23516W        W39777   2.662   2.896   2.732  0.1665  0.0681  0.0174
23517W        W39778   2.935  11.756  15.558  0.3076 -0.2977 -0.0133
23518W        W39779   4.120  12.828   0.559  0.4022 -0.0936  0.0484
23519W        W39780   3.271   5.629  12.802  0.2135  0.3383  0.1290
23520W        W39781  11.673  11.847   2.890 -0.1374  0.1852 -0.2793
23521W        W39782  16.913   7.472  13.053 -0.2031 -0.0307 -0.1667
23522W        W39783   0.458   6.205  11.961  0.0375  0.0950  0.3832
23523W        W39784  17.120  14.068   5.373 -0.1767  0.1533  0.0155
23524W        W39785   4.985   4.494   2.232 -0.2513  0.0672 -0.0920
23525W        W39786   7.128   7.651   3.682  0.2877  0.2374  0.0852
23526W        W39787  16.350  16.381   1.484  0.1768 -0.0886  0.0745
23527W        W39788   3.679   9.811   4.964 -0.0579  0.1970  0.1102
23528W        W39789   1.081  12.672  16.402 -0.2370  0.1838  0.1519
23529W        W39790   0.338  10.142  16.619  0.0738 -0.3257 -0.0958
23530W        W39791  14.978   1.800  16.450 -0.1751 -0.4921  0.0570
23531W        W39792  11.574   4.340   3.761  0.2898  0.1015  0.3963
23532W        W39793  13.730   3.141   1.057  0.1167 -0.3317 -0.0716
23533W        W39794  10.411   8.423  11.625  0.0698 -0.3931 -0.0155
23534W        W39795   7.145  16.517  13.256  0.0250  0.1194 -0.1456
23535W        W39796   9.881   7.113   2.726 -0.1248  0.2001 -0.0041
23536W        W39797   2.888   2.097   4.113 -0.0357 -0.3371 -0.0422
23537W        W39798   4.892   6.862   0.146  0.0325  0.0392  0.0345
23538W        W39799   0.383  12.996  12.033 -0.0028 -0.1692 -0.2041
23539W        W39800   8.247   8.232  14.558  0.1221  0.1214 -0.0730
23540W        W39801   7.948  10.791   4.663  0.0866 -0.0887  0.1141
23541W        W39802   7.023   5.514  11.370 -0.0307 -0.0545 -0.0080
23542W        W39803   2.733   6.799   4.193  0.0093 -0.1219  0.2486
23543W        W39804  12.613  13.722  12.993 -0.0094  0.5039  0.3113
23544W        W39805   7.103   3.320  12.375  0.2516  0.3314 -0.0446
23545W        W39806   4.187   9.166  11.997  0.1460 -0.0727 -0.2278
23546W        W39807  14.456   2.708  13.201  0.0840  0.0861  0.0488
23547W        W39808   4.666   0.061  16.516  0.4272 -0.1211 -0.1363
23548W        W39809   2.640   6.862   0.153  0.2084  0.3943 -0.1859
23549W        W39810  10.851  16.154  11.989 -0.0697  0.0442 -0.1626
23550W        W39811  15.853   0.106   4.275 -0.0415 -0.3052  0.0124
23551W        W39812   0.671  10.640   2.375  0.1649 -0.0038 -0.3870
23552W        W39813  15.380   0.109   0.452  0.0705  0.0119 -0.3644
23553W        W39814   8.368   5.656  12.977 -0.1327  0.1669 -0.0768
23554W        W39815   9.587   2.931  11.741 -0.2680  0.0839 -0.3736
23555W        W39816   9.719   5.404   0.753  0.3326 -0.2303 -0.0053
23556W        W39817   8.800   4.578  15.575 -0.0068  0.2400 -0.1445
23557W        W39818  11.691  15.535  16.421  0.4620  0.1726 -0.0152
23558W        W39819  15.449  17.643   4.727  0.1381  0.0863  0.3241
23559W        W39820   8.323  17.760  12.664 -0.2982 -0.0542 -0.1729
23560W        W39821   3.680   6.041   0.774  0.2015 -0.1509  0.1987
23561W        W39822  15.351   7.732   4.435 -0.1122  0.0671 -0.2464
23562W        W39823   6.333  13.650  16.517  0.1309 -0.1616 -0.1536
23563W        W39824  12.381  14.149  15.937  0.1170 -0.0791 -0.3186
23564W        W39825   2.263   6.119  16.370 -0.1516 -0.1413  0.2074
23565W        W39826   5.698   1.050  13.079  0.1061 -0.1849  0.2641
23566W        W39827   6.789   1.086   4.980  0.2637 -0.1132  0.1979
23567W        W39828  17.832   9.594   2.107 -0.1397  0.0944 -0.4209
23568W        W39829   9.598   6.119  12.443 -0.0709 -0.0626  0.0207
23569W        W39830  12.596   9.785  13.427  0.0484  0.1930 -0.0285
23570W        W39831  12.149  17.444   3.208 -0.2281  0.2128 -0.1481
23571W        W39832  16.270   8.913  12.208  0.1432  0.0327  0.1235
23572W        W39833  17.005   4.218  14.287  0.0488 -0.0899 -0.1078
23573W        W39834  13.405   0.121   2.302 -0.1593  0.0755  0.2622
23574W        W39835  15.659  16.880  11.707 -0.0907  0.0819 -0.2430
23575W        W39836  14.990  10.851  16.566 -0.2168 -0.0334 -0.1677
23576W        W39837   7.778   5.225  15.050  0.0873  0.0153  0.1370
23577W        W39838   9.212   7.804   0.924 -0.0989  0.0349  0.0569
23578W        W39839  10.045   5.674  15.317 -0.0298  0.2434 -0.4297
23579W        W39840   9.258   4.435  11.666  0.1413  0.1203  0.3681
23580W        W39841   5.726   6.016   0.226 -0.1692  0.0290 -0.2473
23581W        W39842  11.475  14.751  14.471  0.3430  0.1865  0.0714
23582W        W39843   3.313  16.517   5.472  0.0762 -0.0512  0.1644
23583W        W39844  13.668   1.221  11.886 -0.0666 -0.3100 -0.3337
23584W        W39845   0.357  13.681  16.363  0.0731 -0.0145 -0.0557
23585W        W39846   1.155   9.988  13.730  0.4160 -0.3118 -0.0328
23586W        W39847   3.787   3.266  13.793  0.1653 -0.3065 -0.0758
23587W        W39848   5.796  15.265   6.818 -0.0915 -0.1656  0.1604
23588W        W39849   9.575  12.250  11.486  0.0921 -0.0453 -0.2170
23589W        W39850   7.316  14.184  15.392 -0.2859 -0.0272  0.0341
23590W        W39851   3.283   7.366   3.014  0.2973  0.2017 -0.0607
23591W        W39852  13.265  14.546  14.518 -0.0248 -0.0930  0.1007
23592W        W39853   9.509   3.844   0.009 -0.1606  0.2438  0.0425
23593W        W39854   1.874  14.053  13.484  0.1015  0.0547 -0.1347
23594W        W39855  17.021  11.035  12.793  0.0462  0.0988 -0.0138
23595W        W39856   5.896   4.577  12.591  0.2074 -0.3184 -0.2431
23596W        W39857   7.351   7.668   2.789 -0.3529  0.0684 -0.1732
23597W        W39858   8.956   6.545  16.091 -0.0299  0.1167 -0.0212
23598W        W39859   5.719  10.970   1.819 -0.0367 -0.1113 -0.0020
23599W        W39860   9.528   7.964  15.432 -0.1112  0.4729 -0.1113
23600W        W39861   1.438  11.373  15.119  0.3536  0.1279 -0.0313
23601W        W39862   0.229   0.028  14.721 -0.1269  0.2056 -0.0068
23602W        W39863   6.300   4.709   0.200 -0.2269  0.0958 -0.0096
23603W        W39864   0.361   5.135   1.203 -0.0147 -0.0720  0.0704
23604W        W39865   7.541   2.782   6.280  0.1928 -0.3983  0.3290
23605W        W39866  16.104   3.126  11.266  0.1721 -0.2974 -0.0181
23606W        W39867   6.973   4.293   3.474 -0.0608  0.1563  0.1093
23607W        W39868  17.555  11.227  16.049  0.1847  0.0252  0.0649
23608W        W39869   6.664   6.616   3.699  0.1988  0.4740 -0.0569
23609W        W39870  13.317   4.297   0.160 -0.0298  0.0270  0.0036
23610W        W39871   8.422   4.082  14.412  0.0051  0.2035 -0.2418
23611W        W39872  10.025   9.782   0.068 -0.0524  0.0557  0.1059
23612W        W39873  13.238  12.422  14.658 -0.3819  0.0155 -0.1482
23613W        W39874   2.000  18.151  13.559  0.1339  0.2852 -0.1251
23614W        W39875   6.217  10.493  15.231  0.1597 -0.0931 -0.0859
23615W        W39876   8.723   4.624   5.974 -0.3470  0.0768  0.1431
23616W        W39877  11.302   9.976  13.732  0.0147 -0.2077  0.0057
23617W        W39878   6.655   3.008  12.507 -0.2568 -0.0727  0.0442
23618W        W39879  16.335  14.193   6.027  0.2513  0.2307 -0.3880
23619W        W39880  12.895   9.308   5.265 -0.2692 -0.0632  0.1754
23620W        W39881   6.113  10.102  11.937 -0.0844  0.0031  0.3119
23621W        W39882  17.056   6.324   4.666 -0.1929 -0.0766  0.3190
23622W        W39883   9.547   3.648  16.174  0.2950 -0.3595 -0.0945
23623W        W39884  17.039   6.421  11.957  0.0499 -0.0334 -0.0820
23624W        W39885  11.684   8.439  12.759 -0.0601  0.0116 -0.1429
23625W        W39886  11.780   4.635   2.294 -0.1649 -0.2833  0.1105
23626W        W39887  11.051  15.800  12.331 -0.3085  0.0222 -0.0891
23627W        W39888   1.521  14.035   5.137  0.2030  0.1884 -0.0063
23628W        W39889   6.132   2.121   1.530 -0.1476 -0.0859 -0.0128
23629W        W39890   4.602  11.749  15.330  0.1276  0.0156 -0.1679
23630W        W39891  11.384  13.872   2.889 -0.0164 -0.1748 -0.0655
23631W        W39892   3.600  13.529   5.451 -0.3266 -0.0607  0.0368
23632W        W39893   9.716   1.613  13.339  0.1847  0.0509  0.1597
23633W        W39894  13.723   0.654   3.598  0.0152 -0.0777 -0.2063
23634W        W39895  12.742   3.554   5.131  0.1040  0.0544  0.1301
23635W        W39896   9.391  17.881  13.573  0.0731  0.3576 -0.0137
23636W        W39897   6.672   5.811  11.524  0.0403  0.0838 -0.0993
23637W        W39898   3.648   4.201  12.942 -0.1873  0.1699 -0.1136
23638W        W39899   1.883  14.915   5.040  0.2891 -0.1906 -0.0016
23639W        W39900  13.073   6.430   4.650 -0.2287  0.2117  0.0030
23640W        W39901   2.607   1.712  16.596 -0.0180  0.2033  0.1157
23641W        W39902   9.258  17.239   2.665 -0.3530  0.1735  0.2661
23642W        W39903  10.535   7.621  12.857  0.0195  0.1285 -0.1723
23643W        W39904  16.721   5.701  13.793  0.1187 -0.0792  0.0705
23644W        W39905   6.182   9.316   4.199  0.2216  0.1113 -0.2025
23645W        W39906  18.186   0.649  14.054  0.0868 -0.3862 -0.2934
23646W        W39907   7.514   6.039  12.683 -0.4009  0.1265 -0.3278
23647W        W39908  13.441   5.497   4.339  0.1775  0.0361  0.1179
23648W        W39909  17.209   1.572   0.931  0.2687 -0.0330 -0.2876
23649W        W39910  17.109  15.072  13.947  0.0434 -0.0970  0.0484
23650W        W39911   0.661   7.765   3.036  0.0805 -0.2405 -0.0394
23651W        W39912   0.862   3.123  16.547 -0.1243 -0.2676 -0.0086
23652W        W39913  16.183   4.234  14.611 -0.3031  0.2012  0.0531
23653W        W39914  12.927   9.273  14.544 -0.1304  0.0444  0.0609
23654W        W39915   8.246   6.141  12.878 -0.2840 -0.0787 -0.2817
23655W        W39916   9.833  15.071  12.550  0.0892  0.2188  0.1480
23656W        W39917  14.143  17.992   2.840  0.1161  0.2722  0.1012
23657W        W39918   2.819   8.976   1.671  0.3994  0.0668  0.1855
23658W        W39919   0.515   1.393  11.635  0.1518 -0.1232 -0.1680
23659W        W39920  10.908  10.363   2.182 -0.1131 -0.1460 -0.2239
23660W        W39921   3.838   5.633  15.823 -0.1268  0.0354  0.3516
23661W        W39922   8.765   8.920  13.336  0.1642  0.2267 -0.3397
23662W        W39923   1.983   8.236   5.739 -0.1030 -0.1182  0.2643
23663W        W39924  13.757   4.510  15.949  0.1221  0.3288  0.2483
23664W        W39925  12.543   3.579   1.962 -0.0070 -0.0251  0.0141
23665W        W39926  12.108   8.209  12.807  0.4942 -0.0369  0.0593
23666W        W39927   8.410  14.378  16.352  0.0915  0.0261 -0.0091
23667W        W39928  10.367   7.289   4.348 -0.2604 -0.1412  0.0220
23668W        W39929   2.689   8.576   2.807  0.3945 -0.2867  0.0415
23669W        W39930  13.119  14.911   1.137  0.1100  0.0258 -0.1617
23670W        W39931   3.981  12.707   4.192 -0.1107 -0.0265 -0.0041
23671W        W39932  16.998  13.294  15.456 -0.0574 -0.1457  0.0285
23672W        W39933  12.995  10.499   5.447  0.1472 -0.2983  0.2343
23673W        W39934   9.170  13.659  12.278  0.1327  0.2060 -0.1757
23674W        W39935   4.336  11.820  12.801 -0.1605 -0.1861  0.0303
23675W        W39936  13.013   6.404   5.130 -0.1515  0.1522  0.0029
23676W        W39937  15.754  16.161  13.767  0.0966 -0.0741  0.1135
23677W        W39938   7.580   1.924  16.393 -0.0212  0.1127  0.0382
23678W        W39939   6.092   2.693  14.356 -0.2454  0.0627  0.0362
23679W        W39940   6.095  17.449  11.861  0.0416 -0.1000  0.1803
23680W        W39941  13.036  15.907   2.869 -0.1592 -0.2264 -0.1082
23681W        W39942   9.119   2.880   5.140  0.1340 -0.4077  0.1167
23682W        W39943   8.159   3.976  12.562  0.2309  0.1217  0.1291
23683W        W39944  14.343   6.222   1.401  0.0308 -0.1129 -0.0577
23684W        W39945   5.002   3.053   2.442  0.2132  0.1120 -0.1751
23685W        W39946   9.083   9.569  16.497  0.2935 -0.3199 -0.0635
23686W        W39947  16.892   4.253   2.456 -0.1648 -0.0316  0.1361
23687W        W39948  12.415  11.845   2.296 -0.1272  0.2726 -0.1080
23688W        W39949  15.407  10.835   1.124  0.0000 -0.1223  0.0940
23689W        W39950   6.981   5.797  16.202  0.0986  0.3411 -0.1518
23690W        W39951   2.020   8.491   1.499  0.0912 -0.3272  0.3858
23691W        W39952   2.904   2.405   2.572 -0.1571  0.2410 -0.2920
23692W        W39953  15.860  15.522  13.143 -0.0244  0.0623  0.4287
23693W        W39954   3.489  15.165   4.782 -0.1007  0.2703  0.1147
23694W        W39955   0.429  14.507  12.221  0.3506  0.1460 -0.1401
23695W        W39956  12.988   3.710  13.292 -0.0030 -0.1290  0.0951
23696W        W39957   5.725   1.920   0.210  0.0428 -0.1195 -0.1200
23697W        W39958   0.679   8.877   5.602  0.4107  0.1813 -0.1557
23698W        W39959   7.430   3.089   0.597  0.0696 -0.4136 -0.0636
23699W        W39960  11.899   4.486  12.245 -0.3568 -0.1362 -0.2980
23700W        W39961   4.879   2.368  15.104 -0.0168 -0.2506 -0.1025
23701W        W39962   0.956  14.344   2.153  0.3283  0.3134  0.0146
23702W        W39963  14.180  14.777   4.369  0.1466  0.0235 -0.3308
23703W        W39964   0.341   4.545   2.955 -0.2438  0.2739 -0.0657
23704W        W39965   3.185   3.148   0.562  0.1041  0.0230 -0.0989
23705W        W39966   9.155   7.438  11.451 -0.2541 -0.0551  0.0251
23706W        W39967   7.676  13.076   4.193  0.0542 -0.1575  0.0854
23707W        W39968   9.929  15.478   4.963  0.1651  0.2830  0.1770
23708W        W39969  15.356  10.349  14.067  0.2117  0.1771 -0.1748
23709W        W39970   9.348  10.699  15.674 -0.1491  0.0495  0.2667
23710W        W39971  12.619   5.121  15.969  0.3321 -0.1846  0.1360
23711W        W39972  11.205  13.023   2.293  0.0691 -0.1175 -0.3437
23712W        W39973  11.646  10.918   5.715  0.1354 -0.2394  0.2735
23713W        W39974   3.793   7.771  14.715  0.1018  0.0233  0.2749
23714W        W39975  15.387   4.480   3.376  0.4270 -0.3351  0.2329
23715W        W39976  12.284   2.438  13.078  0.1188  0.0334 -0.2456
23716W        W39977   9.900   1.046   3.474 -0.3717 -0.2382 -0.0132
23717W        W39978  12.621   2.028  13.159  0.2150 -0.4053 -0.2503
23718W        W39979   0.240   2.288   5.173 -0.2533  0.0828  0.1002
23719W        W39980   2.528   1.990   3.233 -0.0286  0.0032  0.0023
23720W        W39981  16.107   5.163   1.026 -0.0289 -0.2387 -0.4104
23721W        W39982   6.281   4.888   4.842  0.1330  0.0212  0.0588
23722W        W39983   8.412   1.844  11.434 -0.1353  0.0231  0.1976
23723W        W39984  10.993  16.276  15.157  0.2324 -0.2171 -0.2554
23724W        W39985   9.588  17.063  11.495  0.0080  0.1306 -0.1936
23725W        W39986  11.163  15.580   0.092 -0.1562 -0.1057 -0.0674
23726W        W39987   8.055  10.136  11.177 -0.0076  0.0732 -0.1969
23727W        W39988   4.438   4.783   0.005  0.1261  0.2807  0.0413
23728W        W39989  16.139  13.823  12.644 -0.0860 -0.1915  0.1596
23729W        W39990   0.311   2.600  12.788  0.2233 -0.0848 -0.1094
23730W        W39991   0.698   1.378   4.218 -0.0073 -0.1630 -0.1769
23731W        W39992   5.170  12.199   3.149 -0.1437 -0.2020  0.3390
23732W        W39993   7.623  15.931  15.010  0.2829  0.1629 -0.0165
23733W        W39994  17.017  15.288   2.324 -0.1401  0.1508 -0.3375
23734W        W39995   2.307   4.221   3.522 -0.0962  0.0611  0.2974
23735W        W39996  15.459   8.236   3.002 -0.1469 -0.1059  0.1074
23736W        W39997   4.129   0.275   4.690  0.1152 -0.1649 -0.4118
23737W        W39998   5.342  12.251   1.658  0.0094  0.3709  0.2289
23738W        W39999   3.808   0.670  11.936 -0.4075 -0.0428 -0.0045
23739W        W40000  16.099   8.053   3.388 -0.1528 -0.1112 -0.0248
23740W        W40001  18.002  17.575   2.678  0.2745 -0.1655  0.2130
23741W        W40002   3.307   5.696   3.882 -0.1434 -0.0109 -0.2528
23742W        W40003   3.517   0.327   6.135 -0.0151 -0.0744 -0.0755
23743W        W40004  11.878   8.577  13.951 -0.3825 -0.3772  0.0281
23744W        W40005  16.813  17.716   4.431  0.0009  0.0351  0.2094
23745W        W40006  11.550   5.213   5.872 -0.0809  0.1704 -0.0153
23746W        W40007  12.898   4.751  11.560  0.0410  0.1071 -0.2010
23747W        W40008   0.026  16.827  15.234  0.1059 -0.0277  0.1138
23748W        W40009  17.758   9.711   5.792  0.0138  0.0655 -0.0958
23749W        W40010  17.102   3.382   2.402 -0.0471 -0.1185  0.1291
23750W        W40011   0.816   3.073   5.918  0.0612  0.2481  0.2772
23751W        W40012  13.073   9.893  15.071  0.1891 -0.0790 -0.2154
23752W        W40013   5.682   5.172   5.002 -0.1179  0.0318  0.2138
23753W        W40014  16.520  10.568  12.318 -0.1381  0.4736  0.0305
23754W        W40015   3.144  13.288   5.323  0.0675  0.0828 -0.0162
23755W        W40016   0.532   4.751  13.963  0.2638  0.0505 -0.0910
23756W        W40017   6.431  13.279  10.985  0.0885  0.2073 -0.1313
23757W        W40018  13.680   0.318   3.135 -0.2220 -0.1170  0.0899
23758W        W40019   8.357  12.776   2.136 -0.0080 -0.2917 -0.0320
23759W        W40020  14.429   1.609  12.035  0.1149  0.0417 -0.3273
23760W        W40021   7.251   7.883  12.406 -0.1494 -0.0568  0.0239
23761W        W40022  10.520  11.910  11.971  0.1744 -0.0388  0.2324
23762W        W40023   5.921  11.919   1.259  0.3356 -0.1097  0.0960
23763W        W40024  10.584  14.628   2.642 -0.1404  0.0862  0.1640
23764W        W40025   4.160   1.235  13.210  0.4777  0.1894 -0.2201
23765W        W40026  15.564  15.416   4.849 -0.0557  0.2083  0.4135
23766W        W40027  12.608   1.875   2.520  0.0495  0.0183 -0.1241
23767W        W40028   7.308  12.962   4.532 -0.1729 -0.1897 -0.3719
23768W        W40029   7.954  12.903   5.807 -0.0172  0.0062  0.2893
23769W        W40030  10.792   4.851  11.353  0.0111 -0.2400 -0.2682
23770W        W40031   3.196  16.791  14.620  0.3089 -0.0935  0.0769
23771W        W40032  15.064  13.088  16.151  0.0705  0.1396  0.0766
23772W        W40033  16.707   1.124   2.591 -0.0455 -0.0971  0.3249
23773W        W40034   6.669   6.631  14.684  0.1665  0.0867 -0.1961
23774W        W40035   0.741  15.243  14.704 -0.0987  0.0485 -0.0054
23775W        W40036  15.965   8.026   2.281  0.0002  0.0397 -0.0893
23776W        W40037   4.763  17.131   5.132  0.1239  0.2504 -0.3181
23777W        W40038   2.651   6.458  15.424  0.2335 -0.1829  0.1579
23778W        W40039   8.541   1.653  14.849 -0.2589  0.3328  0.1801
23779W        W40040  12.694   9.293  13.550  0.0539 -0.0116  0.0448
23780W        W40041  14.715  17.493  15.384  0.0059 -0.4141  0.1593
23781W        W40042   1.140   2.752   4.062 -0.2852  0.2194 -0.0834
23782W        W40043   0.037   5.399   6.604  0.2171 -0.1417  0.1711
23783W        W40044  14.770  16.256   0.201  0.0997 -0.3699 -0.0514
23784W        W40045  13.865  15.020   4.757 -0.1146  0.0702 -0.0109
23785W        W40046   8.430  15.408   1.083 -0.0482 -0.1397 -0.0498
23786W        W40047   1.101   6.891  13.867 -0.5293  0.1821 -0.1853
23787W        W40048  18.010  11.597   0.157 -0.1146  0.1001 -0.3361
23788W        W40049  11.727   3.920   1.295 -0.0907  0.0645 -0.0968
23789W        W40050  18.050  11.227  13.093 -0.1476 -0.0071  0.1719
23790W        W40051  10.528   6.257  10.921  0.1227 -0.1513  0.1108
23791W        W40052  11.315  14.807   3.368  0.2074 -0.0242  0.0732
23792W        W40053   8.768  14.704   0.509  0.0597 -0.1853  0.2120
23793W        W40054   0.768   2.812   4.460 -0.0614  0.0821  0.4066
23794W        W40055   4.302   5.393   5.195 -0.1135 -0.2853  0.0340
23795W        W40056  10.976   1.493  12.400 -0.0857  0.1419  0.1120
23796W        W40057  16.493   6.588  12.787 -0.1003  0.0477  0.0277
23797W        W40058  17.169  14.693  11.105 -0.3773  0.0766  0.0712
23798W        W40059   0.440   3.407   3.731  0.0644 -0.0112  0.0388
23799W        W40060   7.225   6.959  13.603 -0.2053 -0.0195 -0.3564
23800W        W40061  11.646   9.084  12.001  0.4781 -0.0442  0.1790
23801W        W40062   9.033   3.491   2.478  0.2140 -0.2711 -0.0506
23802W        W40063   8.529   2.368  14.280  0.3058 -0.1803 -0.0513
23803W        W40064  16.367   1.440  16.239  0.0275 -0.0784 -0.2128
23804W        W40065  12.116  12.690   1.099 -0.0420  0.0336 -0.0339
23805W        W40066   7.604   6.675  13.246 -0.0730  0.2722  0.2225
23806W        W40067  17.240   6.026  12.274 -0.2403  0.3520  0.0400
23807W        W40068  13.694   8.342   3.593  0.1418 -0.2484  0.0874
23808W        W40069   4.649   8.337  11.911  0.1742  0.1412  0.0548
23809W        W40070   8.109  17.280  14.057 -0.1729 -0.0032 -0.1221
23810W        W40071  10.205  13.928  16.386 -0.1412 -0.2017  0.0420
23811W        W40072  10.702   5.921   4.572  0.1859  0.0893 -0.3080
23812W        W40073   9.274   2.488   0.637  0.2864 -0.0212  0.3658
23813W        W40074   6.555  11.358  13.551 -0.0660 -0.0844  0.2465
23814W        W40075  11.543   5.441  16.186  0.0825  0.4831  0.0171
23815W        W40076  12.387  15.553   4.192  0.1982 -0.0616 -0.0812
23816W        W40077   1.431   0.492  12.075  0.0887 -0.4134  0.0352
23817W        W40078   3.512  17.168  12.741  0.2808 -0.1022  0.0013
23818W        W40079  11.710  16.317   2.450  0.6234  0.0603 -0.0114
23819W        W40080  10.818  11.560   3.148 -0.1145  0.5646 -0.4011
23820W        W40081  14.593  13.346  10.925  0.0542  0.0512  0.2193
23821W        W40082  17.844   1.888  12.799 -0.0100  0.3831 -0.1618
23822W        W40083   7.089  17.859   5.274  0.1158  0.0356 -0.3323
23823W        W40084   7.361  14.300  13.025 -0.3460  0.0660  0.0294
23824W        W40085   2.271  11.804   3.662 -0.2450  0.0558 -0.0316
23825W        W40086  18.115  13.943  13.447 -0.1205 -0.2661 -0.0687
23826W        W40087  16.208   4.431  15.480  0.2472  0.0267 -0.2233
23827W        W40088   2.207  13.541  13.749 -0.1169 -0.1644 -0.0220
23828W        W40089   1.681   9.912   1.851 -0.2922 -0.0216  0.1805
23829W        W40090   1.253  16.472  13.213 -0.1030  0.0398  0.4383
23830W        W40091   0.798   2.774  12.684 -0.1438  0.3010  0.2875
23831W        W40092  15.955   3.891   5.290 -0.1615  0.0836  0.0691
23832W        W40093  13.840  16.791   1.582  0.1643  0.0945  0.0883
23833W        W40094   9.582  16.985   4.676  0.0779  0.4437  0.0819
23834W        W40095  13.390  10.416  11.698 -0.2372 -0.0851 -0.0466
23835W        W40096  13.248   8.231   4.545  0.0278 -0.3340  0.2109
23836W        W40097   1.108   6.505   0.339 -0.1310 -0.2253  0.1552
23837W        W40098   2.102  15.052   4.296 -0.1030  0.1618  0.1730
23838W        W40099   9.618   7.312  15.862  0.0407  0.1670 -0.0673
23839W        W40100   0.051   7.091   5.430 -0.2601  0.1010  0.2849
23840W        W40101  15.559  10.449  15.858  0.0634  0.0160  0.2782
23841W        W40102   6.499   4.147  12.326  0.1254  0.2387  0.1769
23842W        W40103   9.291  14.820   4.067  0.3553 -0.2029 -0.2240
23843W        W40104   6.990  13.746   4.311  0.1714  0.1598  0.0325
23844W        W40105  11.234   3.919   3.385  0.2492  0.1285  0.0609
23845W        W40106  12.156  17.804   1.840  0.1118 -0.1306 -0.1570
23846W        W40107   5.624   8.866   6.031 -0.0675  0.1320 -0.1159
23847W        W40108   6.165   0.585  14.126  0.2774  0.0818 -0.2243
23848W        W40109  15.443   6.026  12.709  0.0446  0.1182  0.2826
23849W        W40110   4.940   8.825  11.880  0.3074 -0.0405 -0.2092
23850W        W40111  12.303  17.135   2.233  0.4722 -0.4929 -0.0757
23851W        W40112   3.917   6.985   6.184 -0.0386 -0.2884  0.0452
23852W        W40113  14.102   0.661   5.395 -0.0285 -0.1548  0.5017
23853W        W40114  10.743   7.951  15.047  0.1081  0.2776  0.0428
23854W        W40115   0.756  11.520  13.512  0.0565  0.0230  0.0870
23855W        W40116   2.055   9.051  13.755 -0.0314  0.1077  0.0034
23856W        W40117   0.266   1.775   1.876 -0.0973 -0.3195  0.2102
23857W        W40118   3.037  12.811   2.930  0.0826  0.1488 -0.4678
23858W        W40119   1.889   9.881   4.833  0.1858 -0.1818  0.1202
23859W        W40120  14.802  13.510  13.121  0.0240 -0.2076 -0.2897
23860W        W40121  13.593  17.218   5.366 -0.2212 -0.2188  0.3312
23861W        W40122  15.740   6.419  14.968  0.1551  0.2002 -0.1367
23862W        W40123   1.361   4.755  12.518  0.1535 -0.1984 -0.2558
23863W        W40124  12.429   8.781  11.274  0.0956  0.1197  0.1281
23864W        W40125   4.366   2.587  14.413  0.1191 -0.0618 -0.0020
23865W        W40126   6.601  10.506  14.753 -0.1712 -0.3772  0.2124
23866W        W40127   7.569   3.333  15.556 -0.3468  0.4181  0.3370
23867W        W40128  13.534   9.444  11.482 -0.1312  0.0474 -0.1165
23868W        W40129   7.849   4.508   0.150 -0.0941 -0.1653 -0.0048
23869W        W40130   1.051   5.720   3.394 -0.0841  0.0970 -0.0019
23870W        W40131   9.900  12.695   3.156 -0.1107  0.0124  0.2024
23871W        W40132  16.548   2.882   0.762  0.0756  0.1004 -0.0640
23872W        W40133  10.800   5.557   2.929  0.0943 -0.1075 -0.2606
23873W        W40134   9.930  13.557  13.612  0.0323  0.2004 -0.1771
23874W        W40135  10.791   0.278   4.732  0.1091 -0.0031  0.0661
23875W        W40136   2.959  10.505   2.452  0.2742  0.1395  0.0817
23876W        W40137  15.969  16.632   6.137 -0.2964 -0.1595 -0.1243
23877W        W40138  17.364  13.661   1.936  0.0302  0.1565 -0.4428
23878W        W40139  16.149  15.472  15.952  0.0386  0.2426  0.2896
23879W        W40140   3.269   1.621  15.266 -0.3220 -0.1058 -0.1976
23880W        W40141   5.334   7.767  14.361 -0.2198  0.0572 -0.2514
23881W        W40142   9.048   6.118   0.237 -0.0363  0.1085  0.0753
23882W        W40143  10.121  14.602  12.637  0.0599  0.2749  0.2116
23883W        W40144   1.409  14.427  15.233 -0.1962  0.0580  0.2484
23884W        W40145  16.963   8.047   3.817 -0.2071  0.0643 -0.1330
23885W        W40146   2.187   0.117   1.535  0.1461 -0.3507  0.0839
23886W        W40147   7.605  17.670   4.848 -0.0045 -0.1040  0.3294
23887W        W40148  10.884  11.839   1.087 -0.1020 -0.2100 -0.0273
23888W        W40149   8.713  17.705   0.845  0.3541  0.1388 -0.0087
23889W        W40150   1.543   4.992   2.745 -0.0209 -0.1847  0.1229
23890W        W40151   5.862   3.035  16.127  0.0443  0.4355  0.0587
23891W        W40152   3.694   9.016  12.136 -0.0058 -0.2777  0.1866
23892W        W40153   4.020  17.994   0.292  0.0371  0.0374 -0.3004
23893W        W40154   4.358   0.964  15.151  0.1299 -0.2088  0.1741
23894W        W40155  14.992   8.305  14.862  0.0099  0.1108 -0.4879
23895W        W40156  14.911  13.176  15.511  0.3244  0.2492 -0.5071
23896W        W40157  12.518   4.433   3.347  0.1384  0.0812 -0.2683
23897W        W40158  15.216   0.983  15.650 -0.1149  0.0480 -0.2788
23898W        W40159   2.376   4.801   3.418 -0.4525  0.1208 -0.1041
23899W        W40160  12.689   6.530   0.732 -0.3050  0.1735 -0.1594
23900W        W40161  13.244   7.509   3.716  0.0692 -0.1528  0.0762
23901W        W40162  16.825   9.702  10.934  0.0577  0.1717  0.0387
23902W        W40163   4.751  17.342   2.026 -0.3001  0.0434 -0.1127
23903W        W40164   4.539   0.887   1.426 -0.1296 -0.1480 -0.2105
23904W        W40165   2.046   2.379  11.849  0.0606  0.3518  0.3457
23905W        W40166   5.757  14.142   2.915 -0.0200  0.3591 -0.2796
23906W        W40167   2.003   4.073   3.875  0.0674 -0.0157 -0.0320
23907W        W40168  16.408  10.361   3.903  0.1550  0.1492  0.0985
23908W        W40169   1.763   4.175  15.154 -0.1512  0.3518 -0.0192
23909W        W40170   6.564   3.768  13.755 -0.1115 -0.2405  0.2419
23910W        W40171  16.211  14.516   4.585 -0.1422  0.1675  0.1897
23911W        W40172  15.197  15.405   5.818 -0.0223  0.2434 -0.1038
23912W        W40173   2.485   0.017  14.347 -0.2334  0.0743  0.0282
23913W        W40174   4.947   1.237  12.441 -0.6263  0.1490 -0.1931
23914W        W40175  10.967  16.197   4.101 -0.3038 -0.4128 -0.1236
23915W        W40176   6.583  17.601  15.426 -0.4832  0.0753 -0.0492
23916W        W40177   3.567  14.418  14.604  0.0091 -0.1741 -0.0982
23917W        W40178   6.728  16.394  15.280 -0.0293  0.1021  0.0422
23918W        W40179   7.907   1.063  14.199 -0.5023 -0.0619 -0.0893
23919W        W40180   9.812   7.715   3.409  0.0057 -0.1973  0.2861
23920W        W40181  12.265   6.463   2.009  0.0066 -0.1148  0.1451
23921W        W40182  16.880   7.232  16.142  0.0167  0.1333 -0.0976
23922W        W40183  11.972   5.793   4.432  0.0655  0.1735 -0.1664
23923W        W40184   7.842   0.677   4.426  0.1802 -0.2349  0.2484
23924W        W40185   6.491   1.465  12.714 -0.1949  0.1834 -0.2040
23925W        W40186   1.972  12.797  16.082  0.4616  0.0136  0.1635
23926W        W40187   3.712   8.184  13.913 -0.3214 -0.1199 -0.1533
23927W        W40188   3.650  13.659   0.647 -0.0723 -0.0795  0.3355
23928W        W40189   4.789  16.440  15.285 -0.1079 -0.2008  0.1198
23929W        W40190   9.767   6.167   5.694 -0.0583 -0.0684  0.0264
23930W        W40191   2.789   7.196  12.249  0.2306  0.0681  0.1756
23931W        W40192   8.305  15.187  12.102 -0.0013  0.0180  0.0981
23932W        W40193   4.194  16.681  12.182  0.1303 -0.4027 -0.1421
23933W        W40194   6.168   6.046  11.786 -0.1451 -0.0674 -0.4049
23934W        W40195  10.898  18.194   0.978  0.2476 -0.1143  0.0323
23935W        W40196   1.799  11.828  15.210 -0.1029  0.0675  0.0552
23936W        W40197   5.142   9.820  14.064  0.2474 -0.0083 -0.2177
23937W        W40198   0.079   2.462   5.749  0.0296 -0.2885  0.0735
23938W        W40199   5.246   1.275  14.869 -0.2508 -0.0879  0.1670
23939W        W40200   9.177   6.131  15.284 -0.0704  0.1424  0.2923
23940W        W40201  14.712   4.583  15.363 -0.2223  0.3743  0.1695
23941W        W40202   4.194   4.593  12.018 -0.1822 -0.1979  0.3616
23942W        W40203  10.014   5.099   0.922 -0.2720 -0.1497 -0.0488
23943W        W40204  11.091   3.651  15.111 -0.0338  0.0199 -0.1426
23944W        W40205  16.992  16.281  12.550  0.2866  0.2028 -0.2609
23945W        W40206  12.689   4.133  13.467  0.0179  0.2725 -0.1006
23946W        W40207   5.921   2.424   0.619  0.0865  0.2878 -0.1064
23947W        W40208  11.557   1.018  14.726 -0.0992  0.0810  0.0828
23948W        W40209  11.466   9.711   3.849 -0.0360 -0.0761  0.0841
23949W        W40210  13.092   7.029  15.088  0.1148  0.1038 -0.2135
23950W        W40211  13.057   0.247   1.883  0.1585 -0.1190  0.0917
23951W        W40212   2.332   7.864   0.923  0.4365  0.0452 -0.3647
23952W        W40213   8.494  17.889   4.894  0.1286 -0.1989  0.0724
23953W        W40214   6.136  12.583  16.252 -0.0971  0.0296  0.0162
23954W        W40215  15.084  11.252   3.173  0.1478  0.0107 -0.0881
23955W        W40216  14.271  12.383  15.953 -0.2735  0.2796  0.3174
23956W        W40217   5.466  14.211  12.147 -0.0674  0.1444  0.0837
23957W        W40218   8.192  15.258  14.592  0.1260  0.0058  0.3807
23958W        W40219  14.897  14.206   4.398  0.0876  0.0623 -0.0688
23959W        W40220   8.292   3.029   2.814 -0.3491  0.0050  0.6134
23960W        W40221   1.567  13.854  12.353  0.1341 -0.1714 -0.0391
23961W        W40222  15.480  15.264  11.385 -0.1119  0.1985  0.3904
23962W        W40223   5.879   4.523   3.827 -0.2474  0.5503 -0.2140
23963W        W40224   7.305   9.598   1.119  0.3218 -0.1838  0.0039
23964W        W40225   2.785   8.444   0.990 -0.3073  0.0530 -0.2487
23965W        W40226   8.875   7.393   0.590 -0.2519 -0.1474 -0.2110
23966W        W40227  17.385  17.132   2.108 -0.0183  0.1305 -0.0443
23967W        W40228   7.836   0.009   2.802  0.1336  0.2613  0.0930
23968W        W40229  11.178   1.015   2.850 -0.0227  0.5094  0.4429
23969W        W40230  15.302  16.906   3.936  0.0988  0.2764 -0.1859
23970W        W40231   7.951   6.976   4.150 -0.1294  0.1549 -0.0884
23971W        W40232  14.121   5.503   0.844  0.2648  0.3530 -0.0282
23972W        W40233  14.512   0.384  12.325  0.0604 -0.1785 -0.3757
23973W        W40234   4.547  16.298  13.591  0.0288  0.0509 -0.1846
23974W        W40235  14.002  16.156   2.804 -0.0578 -0.1434 -0.1391
23975W        W40236  17.285  11.805  14.040  0.2148 -0.1621 -0.2027
23976W        W40237   6.090   1.800  11.784 -0.0664  0.1137 -0.2044
23977W        W40238  12.390  16.589  12.014 -0.0118 -0.2655  0.1017
23978W        W40239  15.179   5.898   3.573 -0.0204 -0.0265  0.0103
23979W        W40240   5.754  14.338   0.752 -0.0037  0.1815 -0.0267
23980W        W40241  11.601  10.300   1.704 -0.1433  0.0363 -0.3017
23981W        W40242   2.476   9.266  15.366  0.1365  0.0388  0.1537
23982W        W40243  14.982   9.670  12.034 -0.1383  0.1146 -0.0237
23983W        W40244  14.669   4.465  16.418  0.0915 -0.1224  0.1484
23984W        W40245  16.480  14.332  11.818 -0.2531 -0.5478  0.0424
23985W        W40246  14.826   9.173   0.094 -0.3168  0.0356  0.1714
23986W        W40247  17.041  14.988   3.188  0.1676 -0.0244  0.0499
23987W        W40248   2.312  14.716   0.946 -0.1154 -0.1562 -0.0337
23988W        W40249   1.811   1.126   2.779 -0.2392  0.1226 -0.0531
23989W        W40250   6.544  12.659  16.534  0.1277 -0.0436  0.2496
23990W        W40251   2.560  10.393  14.478  0.0436 -0.3284 -0.0850
23991W        W40252   1.845  11.791  12.749  0.1695  0.1288 -0.0704
23992W        W40253  12.741   0.368   2.830 -0.0629 -0.0219  0.1046
23993W        W40254  13.400   2.002   0.083  0.0695 -0.0946  0.0385
23994W        W40255  16.725   9.372  14.993 -0.1752  0.0772  0.1940
23995W        W40256   3.171  15.609   3.010 -0.0108  0.2775  0.1104
23996W        W40257  13.865   5.129  14.905  0.0841  0.2463 -0.2886
23997W        W40258  13.369   2.995   3.113 -0.3490  0.3690 -0.0931
23998W        W40259  17.356  13.163   1.239  0.0188 -0.1649 -0.1709
23999W        W40260  15.796  16.989   4.852 -0.2536 -0.1251  0.0648
24000W        W40261  10.668   0.021  14.596  0.2140 -0.1201  0.1345
24001W        W40262   9.747   7.342   3.700 -0.2097 -0.1074  0.0342
24002W        W40263   3.416  14.129   0.718 -0.0111  0.0082 -0.0901
24003W        W40264  11.517  14.093  15.756 -0.1359 -0.0213  0.2056
24004W        W40265  14.443  17.596   4.892  0.2448  0.0916  0.0796
24005W        W40266  13.181   2.337  13.608  0.0623 -0.2511  0.2956
24006W        W40267  13.743   1.836  15.585 -0.0644 -0.1134 -0.1744
24007W        W40268  12.063   0.422   0.445 -0.4454  0.2329  0.2275
24008W        W40269   0.221   6.196  14.740  0.2577 -0.0749 -0.2984
24009W        W40270   3.788  15.450  15.898  0.1614 -0.0841 -0.0213
24010W        W40271  14.077   6.815  11.914 -0.3892  0.0391 -0.2213
24011W        W40272  11.224   6.585  16.349  0.1451 -0.3022  0.0349
24012W        W40273  16.725   5.369   3.350  0.0892  0.0765 -0.1674
24013W        W40274  10.921   1.329   5.673  0.0054 -0.0039 -0.3369
24014W        W40275   4.866   6.455   0.435  0.1158  0.1320  0.0233
24015W        W40276  14.428   7.804   3.121  0.0516  0.2664  0.1031
24016W        W40277   1.485   7.329   3.202  0.0768 -0.0996 -0.1656
24017W        W40278  15.028   9.317  11.652  0.0218 -0.0340  0.1607
24018W        W40279  11.050   7.716   4.263 -0.3099  0.0633 -0.2356
24019W        W40280   5.307  14.153   0.844  0.1910 -0.0732  0.1620
24020W        W40281   6.950   9.212   4.711 -0.0004  0.1731  0.1002
24021W        W40282   4.038  13.543  12.292 -0.0933  0.2014  0.0100
24022W        W40283  12.356  15.089   1.091  0.0405  0.0349  0.1026
24023W        W40284   3.668  10.901   2.286 -0.2215  0.2844 -0.0640
24024W        W40285   9.750  10.339   2.430 -0.2026 -0.0280 -0.0012
24025W        W40286  11.209  10.704  11.379 -0.0774 -0.1771 -0.1339
24026W        W40287  11.971  11.387  14.138  0.2683  0.0523 -0.1326
24027W        W40288   7.458   2.599  14.811  0.5275 -0.1815 -0.0785
24028W        W40289   3.551  15.130  16.291 -0.0057 -0.1259  0.2512
24029W        W40290  11.456   8.440   3.768  0.0118 -0.1279  0.0964
24030W        W40291  12.832   7.105  11.040  0.1966 -0.0242 -0.3432
24031W        W40292   0.995   0.831  12.008 -0.1140  0.0690  0.0983
24032W        W40293  10.289   4.665   4.749  0.2437 -0.3959  0.2806
24033W        W40294   7.895  17.011   4.268  0.0134 -0.0252  0.1695
24034W        W40295  16.603   7.815  13.264 -0.2979  0.1061  0.0367
24035W        W40296  18.084  13.608   5.008  0.2896  0.5018  0.1192
24036W        W40297  13.879   4.289  12.189  0.1542  0.1153  0.2326
24037W        W40298   2.164   9.161  15.701  0.4089 -0.2076  0.1069
24038W        W40299   1.940   4.808  15.111  0.0014  0.0221  0.0699
24039W        W40300   0.757  11.122  15.850 -0.2197  0.3775  0.2330
24040W        W40301   9.921  12.951  12.107  0.0629 -0.0855  0.0557
24041W        W40302  10.475   4.569  15.051 -0.1078  0.0703  0.1666
24042W        W40303   0.642   4.652   0.538  0.1973  0.0722  0.0037
24043W        W40304   7.541  14.634   0.450  0.0995  0.1543  0.2454
24044W        W40305  15.454  11.228   5.468 -0.1946  0.1033  0.2125
24045W        W40306   4.790   6.019   0.224  0.3301  0.2967 -0.1452
24046W        W40307   2.095   8.366  11.124 -0.1187  0.1189 -0.3154
24047W        W40308   6.866  16.911   2.202 -0.2573  0.0104  0.0730
24048W        W40309   9.040  10.908  12.637 -0.0023 -0.0276  0.1865
24049W        W40310  13.055  13.817   5.156 -0.0208 -0.1521 -0.1264
24050W        W40311   7.428   0.204   3.062  0.2889 -0.0134 -0.2303
24051W        W40312   3.831   0.434  15.795  0.2430 -0.0630 -0.0761
24052W        W40313   1.468  14.253   3.356 -0.0652 -0.0816  0.2966
24053W        W40314   4.294   3.172  11.915  0.0254 -0.0422  0.0323
24054W        W40315   4.066  10.532   4.277  0.4315 -0.3031  0.0040
24055W        W40316  11.407   0.292   4.265  0.4693  0.0825  0.1490
24056W        W40317   9.788   6.874   3.346  0.0048  0.1605  0.0615
24057W        W40318  15.510   0.394  11.640 -0.0543  0.1761 -0.0279
24058W        W40319  11.527  15.075  15.288 -0.1103 -0.0770 -0.2416
24059W        W40320   9.040  14.122  13.146 -0.1157  0.1496 -0.2360
24060W        W40321  12.840  16.487   0.444 -0.0489  0.0500 -0.1055
24061W        W40322  10.458  10.101   4.695  0.2379 -0.3760  0.0357
24062W        W40323   1.059   5.987   3.798  0.1266  0.1737 -0.0471
24063W        W40324  13.055   7.182  12.830 -0.1188 -0.1135 -0.0730
24064W        W40325  10.538   1.455  11.600  0.1310  0.0838 -0.1396
24065W        W40326   7.587   7.490  15.819  0.1271  0.0396  0.2357
24066W        W40327  15.912   9.717  16.458 -0.1304  0.2238  0.1019
24067W        W40328  14.968  14.653   3.755 -0.3547  0.0790 -0.0969
24068W        W40329   9.840  17.582   5.240 -0.2512 -0.1848 -0.1123
24069W        W40330   9.604  14.592  14.415  0.2626 -0.1948 -0.0815
24070W        W40331  10.695  17.473   1.554 -0.0044  0.0388 -0.2800
24071W        W40332  12.887   8.735  15.661  0.0080 -0.1272 -0.1436
24072W        W40333   6.161  13.882   3.126  0.2813 -0.0178 -0.4379
24073W        W40334   5.975  16.634   2.047 -0.1871  0.1161 -0.0333
24074W        W40335   7.320  17.070   1.241 -0.0071 -0.3218 -0.1389
24075W        W40336  16.785   1.291  15.414 -0.0014  0.0415  0.0100
24076W        W40337   4.892  18.002  15.200 -0.0785 -0.3187  0.0374
24077W        W40338   4.662  12.008   3.938 -0.1934 -0.4032  0.0866
24078W        W40339  17.758   7.158   4.470 -0.1216  0.0441 -0.1829
24079W        W40340   4.765   1.564   5.524  0.1967  0.1781 -0.0015
24080W        W40341   6.642   1.681  15.144  0.0291  0.1122 -0.1531
24081W        W40342   2.724   5.038   0.840 -0.3475  0.1491 -0.0360
24082W        W40343  13.816  13.988  14.309 -0.0200  0.2090 -0.0990
24083W        W40344  10.703   2.902   2.501 -0.0399 -0.2660 -0.1927
24084W        W40345   8.957  13.402   5.349 -0.1751 -0.2731  0.0841
24085W        W40346   1.194  16.918  15.549 -0.3012 -0.2716  0.2820
24086W        W40347  15.147  14.312   5.455  0.4533 -0.0337 -0.0197
24087W        W40348   8.795  14.628   5.344  0.1679  0.0129 -0.0663
24088W        W40349   2.782   0.586   4.767  0.3944 -0.2976  0.1840
24089W        W40350  14.081   3.874  12.029  0.0505 -0.0008 -0.0674
24090W        W40351   2.868  11.946   3.052  0.0158  0.2605  0.0258
24091W        W40352   3.356  11.256   2.063  0.2408  0.1039  0.0264
24092W        W40353   5.423   9.532  13.188  0.0633 -0.2862 -0.0807
24093W        W40354  14.373   6.653  14.467  0.2966 -0.0055  0.1048
24094W        W40355  10.566   2.708  11.421  0.1436  0.1777  0.0733
24095W        W40356   4.371   9.527   3.437  0.0713 -0.3142  0.1311
24096W        W40357  10.743   5.629   1.734  0.1549  0.4876 -0.2176
24097W        W40358   5.507   8.918  16.216  0.0386  0.0717 -0.1187
24098W        W40359   1.572  13.705   3.392  0.0728  0.0071 -0.2242
24099W        W40360   0.821  12.262   1.035 -0.0178 -0.2581 -0.2451
24100W        W40361   6.324  11.020   3.560  0.0215  0.1602 -0.0917
24101W        W40362   2.564   8.151   0.110 -0.4676  0.7002  0.2012
24102W        W40363   7.686   7.602  12.522 -0.2213 -0.0784 -0.1844
24103W        W40364   2.714  11.854   1.647  0.1008 -0.1453  0.0171
24104W        W40365  14.624   9.103  15.209  0.1478 -0.1769  0.2468
24105W        W40366   8.857  10.703  15.613  0.0385  0.1402  0.0954
24106W        W40367  14.632   2.475   4.816 -0.1807  0.2516 -0.1815
24107W        W40368   2.264   6.598   3.950 -0.2062  0.2641 -0.2873
24108W        W40369   8.301   4.154   1.483 -0.0757  0.0458 -0.0474
24109W        W40370   8.884  13.411  14.925  0.2798  0.0276 -0.1650
24110W        W40371   9.709   3.649  12.956 -0.0724 -0.0786 -0.1912
24111W        W40372   1.088  15.549  15.423  0.1857  0.0389  0.1758
24112W        W40373   0.972  13.741  12.275 -0.1789  0.0817  0.0424
24113W        W40374   3.500  13.921   0.196  0.0764  0.0131  0.0441
24114W        W40375   6.098  14.898   1.328 -0.2224 -0.2503  0.1615
24115W        W40376  15.788   6.055  14.268  0.1985  0.0750  0.1303
24116W        W40377  12.333   8.774  14.033  0.1118  0.0282  0.1785
24117W        W40378  14.278  12.090   2.166  0.2506 -0.3223  0.0119
24118W        W40379   1.829   7.256  12.137 -0.0941 -0.1773 -0.3314
24119W        W40380   7.080   2.109   4.911 -0.1242 -0.0888  0.2786
24120W        W40381   0.606  11.262  14.829 -0.1908  0.0734  0.0437
24121W        W40382   7.914   4.904   1.978 -0.0978 -0.0367  0.1807
24122W        W40383  17.781   3.692   0.453  0.2419  0.3294  0.1446
24123W        W40384  13.173   6.985  13.900 -0.0888 -0.1698  0.0819
24124W        W40385   4.771   9.568   4.923  0.0944  0.1281 -0.5777
24125W        W40386  16.587   2.259   2.636 -0.1229 -0.0722  0.4395
24126W        W40387   8.237   3.327  14.230 -0.1645 -0.1854  0.0012
24127W        W40388  14.895  11.183  15.149  0.1768  0.1702 -0.2654
24128W        W40389  16.176  12.288   2.594 -0.3015 -0.0819 -0.0896
24129W        W40390  17.762   7.369  15.495 -0.0591 -0.1159 -0.1566
24130W        W40391  18.072  12.934  11.694 -0.0672  0.2132  0.1051
24131W        W40392   6.800   8.557  11.425  0.2201  0.2263  0.1110
24132W        W40393   7.588  11.092   4.357  0.0217  0.1728  0.1626
24133W        W40394   1.158   6.285  13.137  0.0726  0.1002  0.2718
24134W        W40395  14.954   5.019   3.953 -0.0121  0.1390 -0.2029
24135W        W40396  14.705   3.196   4.133  0.0003  0.0634 -0.2553
24136W        W40397  13.655   8.699   5.125  0.1032  0.1923 -0.1886
24137W        W40398  12.147  10.010  15.158 -0.0339 -0.1168  0.0815
24138W        W40399   0.112  13.239   0.223 -0.0716 -0.2962  0.1312
24139W        W40400  17.753  16.461   5.342  0.0993 -0.3291  0.2840
24140W        W40401  17.126  15.878   3.413  0.3390 -0.4453 -0.1188
24141W        W40402   8.306   9.107  13.257  0.1670 -0.0195 -0.0625
24142W        W40403   8.475   0.999  14.743 -0.1097 -0.1602  0.3495
24143W        W40404  12.098   8.833  13.005 -0.0523  0.4720  0.1421
24144W        W40405   4.890   8.782   0.625 -0.0469 -0.0969  0.0249
24145W        W40406  14.508   0.307   0.667 -0.4976  0.1293 -0.2433
24146W        W40407   4.671  10.254  11.893  0.0502 -0.2293 -0.0992
24147W        W40408   0.848  17.534   3.031  0.0647 -0.1755 -0.1570
24148W        W40409  14.303  12.921   3.616  0.0395  0.0374 -0.0934
24149W        W40410   3.420   5.975  13.086  0.0967  0.0572 -0.0764
24150W        W40411   4.315  17.642  14.442  0.0229  0.0755 -0.1288
24151W        W40412  17.863  13.285   2.359 -0.1522  0.0986  0.0181
24152W        W40413  15.435   7.031  15.753  0.0063 -0.0295  0.0164
24153W        W40414  15.548   2.466  14.427  0.3176  0.0024 -0.1968
24154W        W40415   1.331  11.969   1.209  0.1525  0.0590  0.2010
24155W        W40416  13.293  12.542  15.489 -0.0798  0.0419  0.0174
24156W        W40417  16.238  12.229  11.263 -0.0920  0.0557 -0.0304
24157W        W40418   5.614   2.881  13.657 -0.4359  0.0445 -0.1045
24158W        W40419  13.455   8.913  15.287 -0.2113 -0.2294 -0.0214
24159W        W40420   5.424   6.592  15.808  0.1628 -0.3389  0.0029
24160W        W40421  13.768   8.300  12.385 -0.0687  0.1018  0.1562
24161W        W40422   7.213  14.670  14.626 -0.2381  0.1183  0.0165
24162W        W40423   1.625   2.390  12.693 -0.0011 -0.0739  0.2962
24163W        W40424   1.382  16.287   6.498 -0.3529 -0.1772  0.1835
24164W        W40425  15.128  10.642  12.286 -0.6138 -0.2062 -0.0157
24165W        W40426   3.942  13.073   3.777  0.0813  0.2777 -0.1258
24166W        W40427  16.904   6.566   1.746 -0.0909 -0.0504 -0.0097
24167W        W40428   8.439  16.842   5.522 -0.1054 -0.3432 -0.0265
24168W        W40429   9.206  17.769  14.721 -0.1174 -0.3577  0.0252
24169W        W40430  15.093   0.534  12.782  0.1377 -0.1295 -0.1717
24170W        W40431   4.901  17.872   2.079  0.4782 -0.2638  0.1783
24171W        W40432   6.765  13.184   0.644 -0.1032 -0.0366  0.0146
24172W        W40433  15.506   1.493   3.294  0.2483 -0.3013 -0.0830
24173W        W40434  11.174   2.279  16.502 -0.0689  0.1554 -0.0048
24174W        W40435  13.192  16.903   5.257  0.0423  0.1035  0.1296
24175W        W40436   4.789  17.694  13.753 -0.0337  0.0680  0.2497
24176W        W40437   8.608  10.827   5.515 -0.0500  0.2256 -0.0847
24177W        W40438   3.697  17.763   6.516 -0.0666  0.0881  0.0564
24178W        W40439   6.988  15.650   1.361 -0.2124 -0.2528 -0.1032
24179W        W40440  16.545   2.668  15.402  0.0336 -0.0338  0.0177
24180W        W40441   4.377  17.180   0.777 -0.0431  0.1379  0.0005
24181W        W40442   1.895   9.597  13.158 -0.5608 -0.0921  0.1862
24182W        W40443   9.053   6.366  13.927  0.1246 -0.0568  0.4160
24183W        W40444   4.743   4.071   2.452 -0.1414  0.1758 -0.0200
24184W        W40445   8.780   4.583   3.114 -0.0620  0.1093  0.0465
24185W        W40446   5.798  13.262   0.547 -0.3638 -0.3734 -0.0473
24186W        W40447  12.184   5.038  14.745 -0.0656 -0.2996 -0.0424
24187W        W40448   4.582   7.760  15.014  0.1044  0.1746  0.0200
24188W        W40449  13.304   8.082  12.143 -0.1714 -0.1092 -0.0712
24189W        W40450  16.190   2.041   6.465  0.0176 -0.1587  0.1811
24190W        W40451   7.828   7.986  16.240  0.0739  0.4312  0.1863
24191W        W40452  15.527  15.288   0.811  0.1172  0.4427  0.1132
24192W        W40453   0.228   1.467  15.851 -0.0514  0.1042 -0.0073
24193W        W40454  12.476   3.175  15.481 -0.3844  0.0161 -0.3331
24194W        W40455   8.604   8.782  12.415  0.1370  0.1781 -0.0813
24195W        W40456  10.107   9.791   4.514 -0.2316  0.0531 -0.2076
24196W        W40457  12.562   0.884   3.424 -0.1449 -0.0132 -0.1338
24197W        W40458   8.655  11.857   3.294  0.0194 -0.3188 -0.3499
24198W        W40459  15.391  17.580  14.348 -0.2096 -0.0092  0.2358
24199W        W40460  18.147  16.416  16.151 -0.2052  0.3282 -0.1391
24200W        W40461  10.044   1.997   4.595 -0.0422  0.1811  0.1698
24201W        W40462  11.860   6.334   0.483  0.3665  0.4512 -0.0177
24202W        W40463   0.459   0.470  13.917 -0.1407  0.1230  0.1315
24203W        W40464  17.375  13.803   1.080  0.2808  0.2541 -0.2828
24204W        W40465  13.885  15.217  12.245 -0.0293  0.0213  0.0332
24205W        W40466  16.314   9.071   6.168 -0.1498  0.5025  0.0891
24206W        W40467   3.709  14.482  12.170  0.2692 -0.0732 -0.0206
24207W        W40468   2.465   7.993  15.360  0.1384 -0.0651 -0.2226
24208W        W40469  14.917   6.278  14.249 -0.3879 -0.0161 -0.0256
24209W        W40470  15.545   6.710   2.050 -0.0225  0.0472  0.3448
24210W        W40471   4.679   9.561  14.014  0.0628  0.1488 -0.0207
24211W        W40472   1.661   1.797   5.648  0.0774 -0.2765  0.1962
24212W        W40473  13.440   1.250   0.538 -0.0281  0.0346  0.1718
24213W        W40474   1.595   4.160  13.922 -0.1121 -0.0063 -0.1026
24214W        W40475   7.731   9.518  12.491  0.2071  0.1937  0.0234
24215W        W40476   4.435   1.786  15.176  0.2744  0.0401  0.2292
24216W        W40477  16.501   4.502   2.571 -0.1590 -0.2424  0.0061
24217W        W40478   3.711  10.499   3.881  0.0971  0.1083 -0.1086
24218W        W40479  13.679   7.884  13.275  0.0558  0.0041 -0.1891
24219W        W40480  15.565  10.560   1.494  0.4569  0.1691 -0.4011
24220W        W40481  14.668   9.776   2.610  0.0704 -0.2026 -0.0436
24221W        W40482  17.237   0.244   4.177  0.2381  0.2991 -0.0233
24222W        W40483  17.300  12.600  15.305 -0.3676 -0.0954  0.2186
24223W        W40484   2.522   8.187  15.845 -0.0798  0.0720 -0.2619
24224W        W40485  14.705   1.362  13.373 -0.1474 -0.2030  0.1965
24225W        W40486   1.903   9.398  12.051 -0.5946  0.0153 -0.0811
24226W        W40487   2.674   2.950   1.465  0.2123 -0.2268  0.1663
24227W        W40488  15.528   8.728   2.891 -0.1452  0.1511 -0.2174
24228W        W40489  11.887   4.644  11.288  0.1171  0.0602  0.4329
24229W        W40490  16.809  12.106   0.912  0.2240 -0.1460  0.0764
24230W        W40491  11.716   8.176  14.690 -0.0136  0.0907 -0.1614
24231W        W40492   0.119   1.171   4.691  0.0818 -0.2905 -0.1457
24232W        W40493   4.459   0.076  13.136 -0.3828  0.1305 -0.3332
24233W        W40494  12.319   0.044   0.135 -0.2300 -0.2162 -0.1286
24234W        W40495  12.036   2.047  11.530  0.3575  0.2288 -0.2361
24235W        W40496   6.146  16.851   3.334  0.1330 -0.1865 -0.1443
24236W        W40497   9.822   0.541  12.333 -0.2818 -0.0257  0.0901
24237W        W40498   0.787   8.776   0.520 -0.0123 -0.0902  0.2771
24238W        W40499  11.494  14.608   5.558  0.0221  0.0973  0.1945
24239W        W40500  13.673  11.141  15.158 -0.2419  0.0571  0.1537
24240W        W40501  12.683   4.953  14.566 -0.2357  0.0251  0.1939
24241W        W40502  12.390   2.854  11.324  0.1692 -0.2171 -0.2381
24242W        W40503  17.779   9.465  15.452  0.1756 -0.1832 -0.0327
24243W        W40504  16.419   4.860   0.063  0.2160 -0.0176 -0.2043
24244W        W40505  14.824  17.592   4.033 -0.0192 -0.1744  0.1891
24245W        W40506   1.519   4.063   1.428 -0.0341  0.1071  0.0641
24246W        W40507   3.467   0.456   2.430  0.2079 -0.0220  0.0938
24247W        W40508   0.466   2.905  12.332 -0.1440  0.0923  0.1437
24248W        W40509   3.221   4.118  15.125 -0.1035  0.1814 -0.0293
24249W        W40510  16.088   8.240  15.428  0.1127 -0.1969 -0.1060
24250W        W40511   8.831   4.564  13.133 -0.0192  0.1999 -0.0159
24251W        W40512   5.761  17.277   3.775 -0.3854  0.2265 -0.2021
24252W        W40513   6.037  10.010   3.458  0.0060  0.4769  0.1054
24253W        W40514   2.029  10.717  13.470 -0.2211 -0.1395  0.1580
24254W        W40515   2.813   6.491   0.901  0.2738  0.1357  0.0064
24255W        W40516   6.525   2.947   0.697 -0.1527 -0.2504  0.1490
24256W        W40517  18.183   6.802  15.540 -0.1062  0.0758 -0.3174
24257W        W40518   7.047   4.801   0.223 -0.3101  0.2687  0.3836
24258W        W40519   9.231   2.445   3.917 -0.0987 -0.2007  0.0801
24259W        W40520  16.614  11.586   2.460  0.2972  0.0357 -0.0332
24260W        W40521   1.786  14.295  12.138  0.3961 -0.5242  0.0859
24261W        W40522  13.951   5.508   3.526 -0.2071  0.2247 -0.3368
24262W        W40523   9.202  12.655   5.261 -0.0285 -0.0504 -0.1931
24263W        W40524   9.851  11.285  12.308  0.0704  0.0951  0.0133
24264W        W40525   1.123   3.417   3.554 -0.2727  0.2328 -0.1848
24265W        W40526  15.786   1.872  11.093  0.2349 -0.1560  0.1079
24266W        W40527  13.483   4.869   3.172 -0.1414 -0.0634  0.0343
24267W        W40528   1.932  18.150  14.531  0.0712  0.0504  0.0810
24268W        W40529  16.367   4.974  16.139 -0.0547 -0.1999 -0.0116
24269W        W40530  16.964  13.080   5.209 -0.0437  0.2211  0.0577
24270W        W40531  17.096   5.509  12.418  0.2945  0.0631  0.0127
24271W        W40532   7.598  15.936   2.543  0.3697  0.0281 -0.3526
24272W        W40533   7.394  15.135   0.577 -0.1984 -0.2431  0.0486
24273W        W40534  17.447   2.634   2.925  0.0258 -0.1019  0.0621
24274W        W40535   6.061   7.044   2.686 -0.1473 -0.2341 -0.0346
24275W        W40536  12.115   1.488   3.755  0.1631 -0.0081 -0.2943
24276W        W40537  17.880  10.896  12.689  0.0986  0.0241  0.1573
24277W        W40538  16.881  13.974  14.739  0.0257  0.0769  0.2061
24278W        W40539  16.019   1.637  14.390  0.1974  0.3479 -0.1924
24279W        W40540   1.705  14.424   1.666  0.0851 -0.0382 -0.2415
24280W        W40541   3.149   4.839  11.695 -0.0618  0.1805 -0.3059
24281W        W40542   1.439  18.072  14.476 -0.2317 -0.4497 -0.1448
24282W        W40543   5.435  10.976  12.321  0.2510  0.0701  0.2885
24283W        W40544   8.792   8.048   5.630  0.0844 -0.0648 -0.0793
24284W        W40545  13.441  12.320  16.282  0.2975  0.1096  0.1217
24285W        W40546  16.877  14.356   0.710 -0.2622  0.0964  0.0218
24286W        W40547   6.296   6.567  12.000  0.0782  0.0430 -0.0373
24287W        W40548  10.504   2.084  13.593  0.0658 -0.3096 -0.1533
24288W        W40549   1.425  15.882   2.023 -0.1710 -0.4610  0.0041
24289W        W40550   0.219  15.012  16.307 -0.1358 -0.3963  0.4883
24290W        W40551  10.248   9.170  15.521  0.0314 -0.1773 -0.3409
24291W        W40552   0.059   6.935  13.764 -0.2873  0.1503  0.2677
24292W        W40553  13.663  17.445  16.433  0.2128 -0.1137  0.0315
24293W        W40554   2.724   4.064   2.745  0.5156  0.0612 -0.1493
24294W        W40555   8.013   8.594   3.548  0.0679  0.0947 -0.1510
24295W        W40556  15.133   5.018  13.876  0.0590 -0.0619 -0.1234
24296W        W40557  10.434  11.101   4.060 -0.1074  0.1621  0.0715
24297W        W40558  14.033  11.270  11.648  0.0684 -0.0221 -0.3188
24298W        W40559  13.627   3.529  11.194 -0.2386 -0.0547 -0.0443
24299W        W40560   8.174   4.027   4.353  0.0337 -0.0792  0.3639
24300W        W40561   5.539   4.740   2.820 -0.0718 -0.0121  0.0896
24301W        W40562   7.773   0.181   5.238 -0.0039  0.1930 -0.1538
24302W        W40563   9.363   6.468   5.423  0.3021  0.2259 -0.0279
24303W        W40564   4.545  12.660  11.800  0.1835 -0.2313 -0.1364
24304W        W40565   6.245  15.494   4.034  0.0646  0.3550 -0.1325
24305W        W40566   8.945   9.140   1.036 -0.0016 -0.3290  0.0071
24306W        W40567  15.447   0.817   2.912  0.1846 -0.0253  0.0793
24307W        W40568  13.100   4.214   1.396 -0.2394  0.2171  0.0871
24308W        W40569  14.987  12.365   2.842  0.0490  0.1772  0.1854
24309W        W40570   2.137  17.082   5.905 -0.2624  0.5809 -0.2295
24310W        W40571   4.705   5.625   3.014  0.1204  0.1617 -0.1078
24311W        W40572   9.338   8.019  13.188  0.0801 -0.0995  0.1560
24312W        W40573  12.521   5.548  13.549 -0.1028  0.0229  0.0741
24313W        W40574  15.802   0.643  13.557  0.0534  0.0556  0.1802
24314W        W40575  15.384   5.278  16.366 -0.0597 -0.1897 -0.2557
24315W        W40576   2.104   8.784   2.415  0.0893 -0.0518  0.0039
24316W        W40577  17.706  10.476   5.921 -0.4020  0.3187  0.3012
24317W        W40578  16.790  16.338   0.070  0.0596  0.3251  0.0339
24318W        W40579  16.318  11.186   4.140 -0.3288 -0.0225  0.0483
24319W        W40580   0.702  11.487   0.173  0.0266 -0.0370  0.0038
24320W        W40581  10.156  17.040  12.469 -0.0342 -0.1165 -0.2009
24321W        W40582   0.452  13.448   4.913  0.2487  0.1423  0.0492
24322W        W40583  11.250   0.944  14.387 -0.2689  0.1907 -0.1301
24323W        W40584  17.918   3.028   4.354 -0.3127  0.4420 -0.2638
24324W        W40585  18.177  17.309  15.006 -0.3954 -0.2280  0.2884
24325W        W40586   4.794  12.254   1.519  0.0493 -0.0004 -0.3409
24326W        W40587   8.174  15.299   4.339 -0.3349 -0.0099 -0.1233
24327W        W40588   1.361  13.411  12.336 -0.0273 -0.1126  0.0035
24328W        W40589  16.268  13.502   0.574  0.1576  0.3257  0.1643
24329W        W40590   9.780   9.723   3.555  0.2164  0.0682 -0.2604
24330W        W40591  13.669   7.429   1.857  0.1908  0.3407 -0.1040
24331W        W40592  13.969   8.120  12.811 -0.1526  0.0190 -0.4326
24332W        W40593   2.284   1.407  14.958 -0.2959  0.0807  0.0335
24333W        W40594   7.297   1.275  12.403 -0.0441 -0.0815  0.1758
24334W        W40595   8.948   7.497   2.330  0.0838  0.0062  0.1137
24335W        W40596  10.618   8.488  13.628  0.2136  0.2499  0.2614
24336W        W40597   5.953   3.647   0.661  0.1056  0.0796 -0.1597
24337W        W40598  15.121   0.439  12.304  0.0649  0.0273  0.1455
24338W        W40599  10.811  11.612   1.500  0.2796 -0.0988 -0.0366
24339W        W40600   6.791   0.859  12.093 -0.0689 -0.0401  0.2289
24340W        W40601  10.512  11.230   2.388  0.2879 -0.1590  0.0286
24341W        W40602   5.910   9.393  14.384 -0.1992 -0.1695 -0.0587
24342W        W40603   3.922   5.032  13.080 -0.1893  0.1898  0.0970
24343W        W40604  13.344  10.614   5.812 -0.1116  0.2447 -0.0551
24344W        W40605  12.592  18.064   2.956 -0.4820  0.1783 -0.3452
24345W        W40606   5.782   2.141   3.219  0.0771  0.2743  0.3822
24346W        W40607  18.074  13.963   0.485 -0.0361  0.0120 -0.0730
24347W        W40608   4.776  17.188  12.697 -0.0055 -0.0244  0.0765
24348W        W40609   5.484  16.829  12.082 -0.0686  0.1524  0.2119
24349W        W40610  18.178   5.495   1.204 -0.0947 -0.0894  0.0936
24350W        W40611   0.909   0.200   2.974  0.0433  0.2471 -0.1549
24351W        W40612  17.957   5.905  16.317 -0.2951  0.0081  0.1652
24352W        W40613  11.474   2.844   4.155  0.2762  0.2051 -0.1585
24353W        W40614   2.090   1.511   3.825 -0.3979 -0.1199 -0.0237
24354W        W40615   3.721  12.510  16.613  0.2894 -0.1812 -0.1407
24355W        W40616  11.073   7.973   0.752  0.3427  0.1268 -0.3916
24356W        W40617   8.762   1.562   3.695 -0.1193  0.2379  0.0056
24357W        W40618   0.582   9.852   0.837 -0.1408  0.1569  0.0775
24358W        W40619  15.275  14.491   3.364  0.1575  0.2482 -0.2468
24359W        W40620   3.713   8.302  12.197 -0.1415 -0.3021  0.0040
24360W        W40621  17.975   7.719  14.626 -0.1845 -0.2867 -0.0834
24361W        W40622  16.332   3.757   4.194 -0.0480 -0.1468  0.2603
24362W        W40623   0.612   7.815  13.940  0.0393 -0.2480 -0.1608
24363W        W40624  18.013   1.306  14.875  0.1890 -0.2439 -0.1425
24364W        W40625   6.551   1.125   2.346  0.2021 -0.2993 -0.1406
24365W        W40626  13.283  11.245   4.976 -0.4275  0.0542  0.3039
24366W        W40627  17.805   5.082  13.113 -0.0502  0.0615 -0.0057
24367W        W40628   7.497   3.636  14.128  0.2270  0.2322 -0.0109
24368W        W40629  16.971   2.433  15.576  0.0645  0.0941  0.0800
24369W        W40630  12.602   4.999   4.137  0.1239  0.1880  0.1342
24370W        W40631  11.840   6.488   4.747 -0.2107 -0.1486 -0.3064
24371W        W40632  11.346  16.773   0.217 -0.0328  0.1603  0.2647
24372W        W40633   6.450  12.784  13.489 -0.4017 -0.1612  0.2715
24373W        W40634   7.959   6.361  16.107 -0.2417 -0.0267  0.0262
24374W        W40635   4.314   8.081   3.193 -0.2086 -0.2036  0.0330
24375W        W40636   3.055   7.028  11.907 -0.1284  0.1186  0.0303
24376W        W40637  10.010  12.405   1.877  0.2059  0.0018 -0.1904
24377W        W40638   6.451   5.247   1.700  0.6130 -0.2794  0.2762
24378W        W40639   2.674   3.393  13.396  0.4164 -0.1288  0.0000
24379W        W40640   5.452  12.810   5.505  0.3073  0.0923  0.0509
24380W        W40641  12.269   4.574   1.086 -0.0011  0.1089 -0.0442
24381W        W40642  17.053   5.052   5.469  0.0214 -0.0251 -0.2508
24382W        W40643  13.132  12.688  15.016  0.2476 -0.0780 -0.0561
24383W        W40644  16.782   7.686  11.830 -0.0017 -0.1288 -0.0584
24384W        W40645  13.487   7.986  12.715 -0.0761 -0.1236  0.1575
24385W        W40646  12.350  17.019   3.030  0.0596  0.1240  0.0770
24386W        W40647  12.909   4.768   1.597  0.3727  0.0824  0.0567
24387W        W40648  14.425  10.137   4.715 -0.0391  0.0481 -0.1610
24388W        W40649   9.944  12.205   5.742 -0.0599 -0.2756 -0.2612
24389W        W40650  14.646   7.084   2.567  0.1184 -0.1997 -0.1011
24390W        W40651   4.365   8.196   0.184  0.1089 -0.4759  0.2039
24391W        W40652  13.773  11.867   2.171  0.2773 -0.1371 -0.0244
24392W        W40653  14.174  10.465   2.696 -0.1423  0.1516  0.1978
24393W        W40654   6.914   0.905   3.493 -0.3390 -0.1523 -0.0381
24394W        W40655   7.757   8.971   3.677 -0.0179 -0.0400 -0.0041
24395W        W40656  10.182  16.321   4.418  0.1180  0.0015  0.2355
24396W        W40657   9.693  14.361  13.503  0.3014  0.2442  0.3037
24397W        W40658  17.122   8.197   3.251  0.0995 -0.0861  0.2569
24398W        W40659   1.531   6.066   3.675  0.2868 -0.2270  0.0992
24399W        W40660  14.496  10.721  15.913 -0.2396  0.1556  0.2652
24400W        W40661   3.033   8.196   0.568 -0.2798 -0.2416  0.2922
24401W        W40662  15.995   8.550  16.457  0.2450  0.2147  0.2888
24402W        W40663   4.442   3.524  14.345  0.0419 -0.2628  0.1698
24403W        W40664  12.014  11.142  13.649  0.1822 -0.2685 -0.1411
24404W        W40665   8.309   8.842  11.891  0.0922  0.1532 -0.2965
24405W        W40666  16.707   2.486   1.095  0.3035  0.0178  0.0568
24406W        W40667   3.272   4.107   5.240 -0.0560 -0.0776  0.1869
24407W        W40668  10.625   1.439  14.180  0.0930 -0.0800  0.1576
24408W        W40669  12.373  16.976   1.341 -0.2692 -0.0642 -0.2769
24409W        W40670  14.970   1.589   4.889  0.1514  0.3475 -0.0372
24410W        W40671   9.236   6.427  12.865  0.1064 -0.1155  0.1540
24411W        W40672  10.125  15.296   5.479 -0.2034  0.2465 -0.1367
24412W        W40673   3.697   4.419   5.584 -0.0827 -0.0017 -0.0207
24413W        W40674   9.382  16.359   1.178  0.0809 -0.7381  0.0054
24414W        W40675  16.457   7.006  11.383 -0.0427  0.1887 -0.0449
24415W        W40676  12.921   9.203   0.243  0.4312 -0.2175  0.3511
24416W        W40677  13.823   9.869   3.611  0.0129  0.1467  0.0159
24417W        W40678   4.466  16.865   3.794  0.0397 -0.0361 -0.1415
24418W        W40679  15.918   2.008  12.285  0.1322 -0.0759  0.0827
24419W        W40680   0.823   3.359  15.943 -0.2559  0.1582 -0.0696
24420W        W40681   4.843  12.448   3.935 -0.0238  0.0333 -0.1698
24421W        W40682   4.247   5.300   6.039 -0.2155 -0.2223  0.0733
24422W        W40683  10.793  12.280  12.108  0.2271 -0.2268  0.0325
24423W        W40684  18.047   5.604   4.802  0.0812 -0.2560  0.1384
24424W        W40685   1.014   1.835   4.341  0.2070  0.1691  0.2158
24425W        W40686   9.418   5.973   1.433 -0.3148  0.0625  0.0346
24426W        W40687   2.245   4.460   0.355 -0.0246  0.0482  0.1488
24427W        W40688  11.796   6.210  11.535  0.3550  0.1918 -0.1479
24428W        W40689  13.948   8.259   0.344  0.1986 -0.0413  0.0763
24429W        W40690   4.248  16.960   4.213  0.0999 -0.3005  0.2689
24430W        W40691   1.270   4.614  13.242 -0.0086  0.2285 -0.5936
24431W        W40692   6.924   4.334   1.946 -0.0141  0.1202 -0.0076
24432W        W40693   9.357  10.482  16.344 -0.2308 -0.0531 -0.5459
24433W        W40694  15.477   7.482   0.657  0.1493 -0.0358 -0.0428
24434W        W40695   9.719  15.116   4.196 -0.0867  0.3979  0.0866
24435W        W40696   3.093  12.103   1.075  0.0384  0.0585 -0.1016
24436W        W40697  18.174   2.420   4.752  0.1152  0.0815 -0.2017
24437W        W40698  13.176   2.066   4.132  0.0478 -0.0130  0.2728
24438W        W40699   4.054   3.419  16.001 -0.0836 -0.2085  0.1111
24439W        W40700   5.810   2.923   2.925 -0.1769 -0.3997 -0.0997
24440W        W40701  11.872   0.483  13.220 -0.0435 -0.0363  0.0049
24441W        W40702   4.876   1.233  14.092  0.1172 -0.0614 -0.0315
24442W        W40703  13.820  12.001  12.651 -0.1438  0.2016  0.2267
24443W        W40704   7.673   3.691  16.262  0.2374  0.1315  0.1006
24444W        W40705   6.303   2.877  16.222 -0.1418 -0.1459  0.0721
24445W        W40706   1.377  15.601  12.745  0.2267 -0.1184  0.3850
24446W        W40707   6.182   9.943   2.547  0.1341 -0.3852 -0.2370
24447W        W40708  11.502  12.365  12.451  0.0490  0.4690  0.1252
24448W        W40709   9.685   0.071  12.179  0.0401  0.0366 -0.2315
24449W        W40710   5.125   1.945  12.757 -0.1114 -0.0566  0.0523
24450W        W40711   0.423   4.058   5.680 -0.3595  0.1766 -0.0212
24451W        W40712   7.736  13.898  15.295  0.0803  0.1450  0.1346
24452W        W40713  11.289  12.904   2.850  0.1574  0.1745 -0.0069
24453W        W40714  16.691  10.297  16.104  0.0545 -0.1193  0.0610
24454W        W40715  16.785   8.504  12.234  0.0078 -0.0067  0.1256
24455W        W40716   3.933   7.375  12.922 -0.2904  0.1883 -0.3302
24456W        W40717  17.374   2.733  14.022  0.1820 -0.0874  0.2192
24457W        W40718   4.187   8.716   0.044  0.2903 -0.0014  0.1060
24458W        W40719   9.207   2.797   1.031 -0.1720  0.0563  0.2082
24459W        W40720   1.315   5.084   4.080 -0.0965 -0.0137 -0.0307
24460W        W40721   2.822   7.058   2.926 -0.0238  0.0578  0.0812
24461W        W40722   0.082   7.735   5.096  0.0225 -0.5016 -0.0746
24462W        W40723  11.805  14.688   4.656 -0.1620 -0.0049  0.1250
24463W        W40724   3.334   6.546  11.935 -0.2686 -0.1639  0.0291
24464W        W40725   6.351   6.838   1.496 -0.0546 -0.0879 -0.2444
24465W        W40726   8.013   5.090  12.955  0.1288  0.0245 -0.0184
24466W        W40727   2.943   3.882  16.564  0.1996 -0.0886 -0.0275
24467W        W40728  13.650  11.869  13.073  0.2437 -0.1450  0.0100
24468W        W40729   2.088   9.882   3.893 -0.1963 -0.0290 -0.0084
24469W        W40730  15.983   9.339  11.392 -0.1670 -0.2343 -0.1504
24470W        W40731  15.697   7.576  11.402  0.0232 -0.1099 -0.0470
24471W        W40732   7.701   4.969   1.047 -0.0019 -0.0027 -0.1179
24472W        W40733   5.897  15.896  12.239 -0.1367 -0.2796  0.2942
24473W        W40734  12.928  15.914  16.266  0.0480  0.0099  0.1663
24474W        W40735   5.083  14.691   5.667 -0.0431 -0.0073 -0.1664
24475W        W40736   4.075  17.129   1.487 -0.2018 -0.0955 -0.0246
24476W        W40737  13.579  13.003   0.119  0.0230  0.1806 -0.3585
24477W        W40738   0.856  16.554  13.626 -0.0300  0.0091 -0.1486
24478W        W40739  13.460  13.540   4.885 -0.1319  0.0205  0.1645
24479W        W40740  12.263  13.060   1.880  0.0723  0.0965 -0.2931
24480W        W40741   4.899   8.562   5.004  0.1604  0.1234  0.1716
24481W        W40742   3.938  15.095  14.490  0.2423  0.0349 -0.1737
24482W        W40743   6.391   6.490   2.300  0.2522 -0.2361  0.0928
24483W        W40744   6.139   4.927  15.928 -0.0079 -0.0621 -0.2326
24484W        W40745  14.752   6.430   0.218 -0.1457  0.2218 -0.1183
24485W        W40746   2.943   8.215  11.552  0.0594 -0.1253 -0.1675
24486W        W40747  16.266  14.773   0.242  0.0714 -0.0810 -0.4287
24487W        W40748   0.871   6.026  12.761  0.1090 -0.0867  0.2603
24488W        W40749  10.360   7.325  12.136 -0.0111  0.0534  0.0651
24489W        W40750  11.356   1.758   4.993 -0.1025  0.3427  0.2071
24490W        W40751   8.690   2.061  12.279 -0.0672  0.0306  0.2013
24491W        W40752   3.619   0.151  16.542  0.1428  0.1367  0.0456
24492W        W40753  11.113   5.559   2.072  0.1017  0.1388  0.1993
24493W        W40754   8.925   9.559   5.295  0.0909 -0.0897 -0.1729
24494W        W40755   8.597   4.401   1.004  0.0943 -0.1938 -0.2930
24495W        W40756  10.970  13.961  12.424  0.1063 -0.2196 -0.0209
24496W        W40757   1.820  13.732  13.961  0.0103 -0.0553 -0.0131
24497W        W40758  10.201  13.633   3.954  0.2880  0.2579 -0.2984
24498W        W40759   4.711   8.609   1.619  0.3279 -0.1833 -0.1149
24499W        W40760   2.908  12.286   1.573  0.0090 -0.1503 -0.0142
24500W        W40761   9.196  12.794  12.540  0.0848  0.0127 -0.5322
24501W        W40762  13.003  13.318   4.886 -0.1215 -0.2998 -0.0520
24502W        W40763   9.405  10.567   1.713 -0.0555  0.2534  0.2507
24503W        W40764  10.913  16.031  13.426  0.3720 -0.2516  0.1590
24504W        W40765   0.095  13.422   0.777  0.2156  0.3672  0.0627
24505W        W40766  15.786  12.336   3.326  0.0977 -0.1565  0.0734
24506W        W40767  12.178   3.680  15.808  0.0514 -0.0348  0.1138
24507W        W40768   3.552  15.845   6.443  0.1274  0.3250  0.0286
24508W        W40769   9.982   8.205  15.493 -0.6616 -0.2188 -0.0946
24509W        W40770   2.653  17.706   3.107  0.0704  0.0593  0.1280
24510W        W40771   0.420   1.269   5.458  0.1963 -0.0205  0.2597
24511W        W40772  10.936  12.450   3.941  0.1008  0.1399  0.1324
24512W        W40773   1.134  13.462   3.545  0.0086 -0.0897 -0.2408
24513W        W40774  12.494   6.144  16.432 -0.2326 -0.1989  0.0580
24514W        W40775  12.203   9.893   3.520  0.1408 -0.2211 -0.0264
24515W        W40776   5.444   4.364   2.076 -0.0993 -0.1547  0.2559
24516W        W40777   9.889   4.721  14.965 -0.0823  0.0826  0.1682
24517W        W40778   6.668   5.543   2.116 -0.0248  0.0850 -0.1571
24518W        W40779   5.815  12.374  15.790  0.0822  0.1185  0.1163
24519W        W40780  12.887   9.938  15.824 -0.0595  0.2315 -0.2961
24520W        W40781   9.571  13.107  11.715 -0.1821 -0.0592 -0.0321
24521W        W40782  11.950   5.739  12.946  0.2294 -0.2655  0.0895
24522W        W40783  15.500   0.084  12.220  0.1068  0.2935 -0.0472
24523W        W40784   3.861   0.730  15.128  0.2447 -0.1341 -0.0634
24524W        W40785  10.220  10.965  12.982  0.3592 -0.1458 -0.0410
24525W        W40786  12.819   5.060  12.686  0.0092  0.2883  0.0304
24526W        W40787   3.643   0.909  16.450 -0.0300 -0.3894 -0.2900
24527W        W40788  15.119   1.932   0.654  0.1440 -0.1112 -0.0343
24528W        W40789  18.036  15.896   2.557 -0.0614  0.4125 -0.2225
24529W        W40790   3.630   6.415  16.163  0.1709 -0.2178 -0.0677
24530W        W40791   2.263   7.207   5.692 -0.0883  0.0160 -0.0301
24531W        W40792  11.504  15.977  15.957  0.0675  0.1098 -0.0034
24532W        W40793   0.539  10.370  16.135 -0.0283  0.0980 -0.2879
24533W        W40794  15.598   4.560  13.092 -0.0291 -0.1745  0.0842
24534W        W40795  16.066   3.135   5.091 -0.0626 -0.1139 -0.0990
24535W        W40796   3.893  14.319   5.565  0.0829 -0.0571  0.1746
24536W        W40797   0.596  10.435   0.323 -0.1265  0.1366  0.1597
24537W        W40798   2.528  17.357  13.467  0.2837  0.0982  0.0915
24538W        W40799  15.259   9.024   3.925  0.1322  0.2429  0.0948
24539W        W40800   3.169  16.548   5.949  0.0970  0.0939  0.0732
24540W        W40801   7.056  13.791   1.936  0.0491  0.0109 -0.0345
24541W        W40802   5.149  10.032  12.002 -0.0256  0.0359 -0.0151
24542W        W40803   9.114  12.531  12.954 -0.2617  0.1748 -0.0079
24543W        W40804  10.549   2.337   0.691 -0.2133  0.0904 -0.1131
24544W        W40805   5.186   3.841   4.396 -0.0100  0.0115 -0.1190
24545W        W40806   9.539   5.352  15.515  0.1044  0.4788 -0.4148
24546W        W40807  12.079  11.123   3.370  0.2633 -0.1058  0.2268
24547W        W40808  13.251   4.948   1.283 -0.1518 -0.4743  0.0307
24548W        W40809  10.947   0.140   3.933 -0.1391 -0.2703 -0.1615
24549W        W40810   6.272   4.787   1.548  0.2456 -0.2274  0.2257
24550W        W40811  15.860  13.454   3.943 -0.3607 -0.3355 -0.0305
24551W        W40812  11.358  15.928  13.752 -0.0232 -0.1116  0.2410
24552W        W40813  15.652   4.062   4.945  0.3795 -0.1478 -0.2059
24553W        W40814  12.763   6.729   0.283 -0.0737  0.0456  0.1177
24554W        W40815  10.710  15.208   1.564 -0.0643 -0.3487 -0.3057
24555W        W40816  15.620  10.965  12.031  0.1323  0.0292  0.1286
24556W        W40817  17.643  12.409   6.136 -0.1201  0.3067  0.2341
24557W        W40818   1.186  14.571   2.528 -0.1129  0.1754 -0.0897
24558W        W40819   2.879   2.273  12.453 -0.2136  0.1851 -0.2609
24559W        W40820   0.896  13.590  14.104  0.0251  0.2314  0.0824
24560W        W40821  17.032   3.742  14.545 -0.3240  0.1263 -0.0383
24561W        W40822   7.982   2.283  13.069 -0.1427 -0.2458 -0.2293
24562W        W40823  10.129  11.032  14.774  0.2908 -0.1258  0.0036
24563W        W40824  11.401   8.087   2.198  0.2852  0.1991  0.2534
24564W        W40825   6.770   0.294  13.292 -0.0017  0.0186  0.1828
24565W        W40826  11.316  18.030   2.043 -0.1199  0.2271 -0.4754
24566W        W40827   2.907  17.427   1.169  0.1871  0.1520 -0.2885
24567W        W40828   4.755   3.697  16.378 -0.1767  0.2092  0.0086
24568W        W40829  10.282  16.630   3.442 -0.1506  0.0734 -0.2476
24569W        W40830  14.831   0.660  15.657  0.2300 -0.2010 -0.0701
24570W        W40831   1.793  14.463  13.177 -0.0801 -0.2708  0.2461
24571W        W40832  10.019   4.110   3.631  0.0747  0.1676 -0.2334
24572W        W40833   9.565   2.190   4.801  0.2526  0.0888  0.0193
24573W        W40834  10.284  10.800   3.207 -0.0018 -0.1563 -0.2094
24574W        W40835   8.398   7.280  14.716  0.0081 -0.0276  0.1952
24575W        W40836   5.557   8.642   2.834 -0.0573  0.0347 -0.1434
24576W        W40837  11.220   4.022  14.643 -0.0775  0.0771 -0.0087
24577W        W40838  10.836  14.111   0.806 -0.0857  0.3507  0.1211
24578W        W40839   9.793  16.245   5.699  0.0509  0.1481 -0.0492
24579W        W40840  10.776   6.183  15.932 -0.0312  0.1033 -0.2074
24580W        W40841   2.171  17.888   0.422  0.1632 -0.0369 -0.1674
24581W        W40842   6.434   0.418  13.708 -0.1384  0.2680 -0.0574
24582W        W40843  14.855   0.940  13.190  0.0763 -0.1230 -0.0953
24583W        W40844  12.577  18.193  13.399 -0.2485  0.2426 -0.0477
24584W        W40845   4.759   6.208  15.917 -0.0403  0.1163  0.0426
24585W        W40846   4.825  13.122  12.404  0.0997 -0.1378 -0.1255
24586W        W40847  14.736  13.556   5.443 -0.1484 -0.0609  0.0645
24587W        W40848  17.604   8.082   2.451 -0.0381 -0.1770  0.0472
24588W        W40849   3.168  12.140  12.464  0.0413 -0.0479 -0.4155
24589W        W40850   1.041  14.971  12.317 -0.2428  0.1957  0.0729
24590W        W40851   9.298  15.075  12.294 -0.0623  0.1267  0.1889
24591W        W40852   6.050   1.830   1.981 -0.1196  0.0552 -0.5227
24592W        W40853   4.619   8.434  14.254 -0.1264  0.2703  0.0334
24593W        W40854   3.694  13.341  11.960 -0.0940 -0.3464 -0.3752
24594W        W40855  16.066  12.881  16.588 -0.2982 -0.2406  0.3284
24595W        W40856   2.933   4.865   3.260  0.1384 -0.2429 -0.0525
24596W        W40857   6.760  13.788   1.380 -0.0308  0.1245 -0.1339
24597W        W40858  11.823   6.789  15.786 -0.0213  0.0377  0.1038
24598W        W40859   0.824   0.599  14.223  0.2251 -0.2970  0.1175
24599W        W40860   0.671   9.819  14.351  0.0603  0.0747 -0.1663
24600W        W40861  16.043  12.080   5.217 -0.0704 -0.2695  0.5202
24601W        W40862  18.020  14.513   4.723  0.0648  0.3661  0.1067
24602W        W40863   3.849  10.963   1.414  0.2222 -0.1418 -0.1388
24603W        W40864  13.847   4.867  10.820  0.3005  0.0541 -0.1737
24604W        W40865   3.778  10.719   0.950 -0.2735 -0.0404  0.1571
24605W        W40866   4.575  13.163   6.299 -0.0829  0.1425 -0.0170
24606W        W40867   5.232   7.037   5.877  0.0653 -0.1027  0.1769
24607W        W40868   8.649  13.434  11.942  0.0290 -0.0829 -0.0672
24608W        W40869  14.918   2.257  11.847  0.0729 -0.0049 -0.1627
24609W        W40870   3.504  12.183   0.224 -0.0107  0.3603 -0.2338
24610W        W40871  10.745  13.404   3.916  0.0719  0.0870  0.3420
24611W        W40872   2.012  14.798   1.885  0.2531 -0.1285  0.2922
24612W        W40873  14.838  15.471  14.013  0.0885 -0.0944  0.2587
24613W        W40874   5.482  15.488   2.942 -0.1594 -0.2575 -0.0991
24614W        W40875  14.878   5.107   0.562 -0.2479  0.1377 -0.0261
24615W        W40876  13.574   7.783   3.463 -0.3760  0.0434  0.2087
24616W        W40877  18.152  16.684   4.080 -0.1890  0.1377  0.0015
24617W        W40878   9.418   3.594   2.120  0.0852  0.1263  0.2196
24618W        W40879  14.075   3.112  13.084  0.1216  0.5380  0.0574
24619W        W40880  17.740   6.982   2.640  0.1484 -0.1793  0.0996
24620W        W40881  13.740   6.457   5.580 -0.3054 -0.0444  0.1688
24621W        W40882  15.453  16.446  14.829  0.0104 -0.2245  0.1754
24622W        W40883  11.212   3.486   1.303 -0.2667 -0.0886  0.3348
24623W        W40884   3.531   2.560   6.062 -0.1061 -0.2960  0.2253
24624W        W40885   9.509   5.887  11.650  0.0756  0.0802  0.1977
24625W        W40886  14.980   8.795  13.653 -0.3686 -0.0151  0.0072
24626W        W40887   1.281  11.741   0.739  0.2928 -0.1851  0.1653
24627W        W40888   2.491  12.165   3.883  0.1759  0.1350  0.0738
24628W        W40889   7.016  14.177   4.102 -0.2333 -0.3855 -0.3798
24629W        W40890  16.645  11.374   3.317 -0.1623  0.0699  0.1756
24630W        W40891  17.345   1.017   3.796  0.2264  0.1069 -0.1350
24631W        W40892   3.305  14.110  14.851  0.2051 -0.1400 -0.0171
24632W        W40893   7.973  18.021  12.967  0.2380  0.2155 -0.0459
24633W        W40894  13.449  15.811  14.322  0.0493 -0.2844 -0.2239
24634W        W40895  13.571   2.617   2.891  0.0954 -0.0683 -0.0609
24635W        W40896  10.240  16.161   2.699 -0.3500  0.2743  0.2045
24636W        W40897   1.566   2.040  15.719 -0.3902  0.1657 -0.1464
24637W        W40898   9.692  13.946  13.768  0.2103 -0.2631 -0.1955
24638W        W40899  16.674   3.530  15.489  0.2408  0.0595  0.2313
24639W        W40900  13.676   1.886   5.349 -0.2073  0.2134 -0.1212
24640W        W40901   7.932  11.795  14.248  0.1345 -0.1322 -0.0463
24641W        W40902  12.100   7.102  11.780 -0.0499  0.1626 -0.1209
24642W        W40903  11.761  11.612   1.003 -0.1036 -0.0412  0.0161
24643W        W40904  13.779   3.011   0.076 -0.1134 -0.0359 -0.0881
24644W        W40905  16.855   4.429   0.017 -0.1918  0.0869  0.1468
24645W        W40906  10.677   6.164  13.272  0.0546 -0.1322 -0.3559
24646W        W40907   8.251   5.302   5.528 -0.1322  0.1131 -0.0697
24647W        W40908   1.589   6.671   0.068  0.4392 -0.1601 -0.1669
24648W        W40909  14.526  12.083   0.888 -0.3999 -0.1043  0.1003
24649W        W40910  13.012  12.226  15.140  0.0767 -0.2447 -0.0397
24650W        W40911   0.802   3.561   2.768 -0.0649 -0.3304  0.0079
24651W        W40912   2.387  15.052   4.880  0.0902 -0.2038  0.4993
24652W        W40913  16.323  15.543   3.592 -0.0985  0.4622  0.2474
24653W        W40914   4.632   9.232  11.832  0.3748 -0.0522 -0.1925
24654W        W40915   3.331  16.110   3.605 -0.0819  0.1348 -0.1436
24655W        W40916   3.532  17.713  11.929 -0.3628 -0.1726 -0.1710
24656W        W40917   6.437   2.177   1.892 -0.2418  0.0414  0.0823
24657W        W40918   8.944  15.520   5.432 -0.0570 -0.0931  0.0129
24658W        W40919  16.939  12.624  16.527 -0.0791 -0.4703 -0.1751
24659W        W40920  12.361  17.794  16.490 -0.1617 -0.4862  0.2020
24660W        W40921   0.020  14.983   2.906 -0.2671 -0.3086 -0.0264
24661W        W40922  14.240  16.175   1.064 -0.1627  0.1633  0.6033
24662W        W40923  14.012   8.031   2.909  0.0254 -0.0847  0.0233
24663W        W40924   5.439   0.919   1.606 -0.0068 -0.0672 -0.1500
24664W        W40925   5.520  16.358  11.866 -0.2059 -0.0148  0.0942
24665W        W40926   6.991   8.110  13.769  0.0198 -0.1757 -0.1777
24666W        W40927   6.965  17.420  16.205 -0.2308  0.2922 -0.1103
24667W        W40928   4.505  13.511  12.508  0.1651  0.0179 -0.1988
24668W        W40929  10.694  15.142   2.179 -0.0118 -0.2045  0.0485
24669W        W40930  12.380  17.446  16.060 -0.0554 -0.1321  0.1075
24670W        W40931   2.637  14.567   3.599 -0.1222  0.1691 -0.0144
24671W        W40932  14.691  11.445   5.982  0.3466  0.2791  0.0053
24672W        W40933   8.874  15.914  12.857  0.2033 -0.0287  0.1854
24673W        W40934  18.173  15.435   1.865 -0.3699  0.2827  0.2941
24674W        W40935   8.587   9.440   1.122  0.0244 -0.1948  0.1815
24675W        W40936   9.500  14.283  13.034  0.0180 -0.2523  0.3573
24676W        W40937   0.708   0.491  15.674  0.3391  0.3593  0.0373
24677W        W40938  13.870   8.778   1.996  0.0515  0.2929 -0.1134
24678W        W40939   8.262   9.523   2.193  0.4872 -0.3161  0.1872
24679W        W40940   9.098  17.771  16.029  0.2420 -0.0137  0.0016
24680W        W40941   7.946  15.130  12.477 -0.1387 -0.0139  0.0006
24681W        W40942  17.260  14.002   3.289  0.1108 -0.1556  0.0060
24682W        W40943   5.346   7.471  11.380  0.2877 -0.0416 -0.2872
24683W        W40944   0.853  11.823  12.157  0.2188 -0.0425 -0.0992
24684W        W40945  12.402   0.530   3.100  0.0663  0.1782 -0.4437
24685W        W40946   1.025  17.329  13.502  0.1441 -0.0350  0.1093
24686W        W40947   4.879   3.596   2.556  0.0744 -0.0834  0.0710
24687W        W40948   1.511  11.731  13.081  0.1012  0.0050 -0.1103
24688W        W40949  10.052   1.127   2.542  0.2881  0.0338 -0.0655
24689W        W40950   8.975  14.526  14.479  0.1738 -0.0963  0.0487
24690W        W40951   3.912  13.583  13.300  0.2874 -0.0024  0.4646
24691W        W40952  16.616  16.767  13.365  0.0348 -0.0468 -0.1814
24692W        W40953  17.952  10.399  12.587  0.1947  0.2151 -0.3526
24693W        W40954  10.211  13.074   0.319 -0.1108  0.0355 -0.2562
24694W        W40955   0.101   9.159  11.903 -0.0393  0.0775  0.4235
24695W        W40956  15.375   1.333   2.073 -0.1986  0.0649 -0.1442
24696W        W40957  15.123  14.824   0.155  0.4409 -0.1702 -0.1690
24697W        W40958   0.361   6.413   2.963  0.1085 -0.2498  0.3175
24698W        W40959   2.695   0.391  12.461 -0.0762  0.1762 -0.1072
24699W        W40960   5.141   9.118   4.541 -0.1107 -0.2358 -0.2904
24700W        W40961   3.570  14.747  15.787  0.0562 -0.0871 -0.0233
24701W        W40962   7.055   4.870  13.282  0.0233 -0.2619  0.2370
24702W        W40963  12.986   3.097  15.347  0.0447 -0.0078  0.3416
24703W        W40964   5.205  16.919  14.583 -0.1232 -0.1462  0.1880
24704W        W40965   8.231   9.291   0.557 -0.1532  0.2298 -0.2909
24705W        W40966   2.465   4.845  15.394  0.1393  0.1877  0.0578
24706W        W40967  12.515   2.903  15.042 -0.2883 -0.1912  0.3033
24707W        W40968  12.823  17.291   2.238  0.0597 -0.2035 -0.3876
24708W        W40969  18.007   4.140  13.300  0.2010  0.1784 -0.1173
24709W        W40970   4.814   5.829  14.188 -0.1634 -0.1153  0.1007
24710W        W40971   2.744  16.176  13.435 -0.0741  0.2429  0.0726
24711W        W40972  12.328   7.984   0.294 -0.0349  0.1942 -0.1845
24712W        W40973   7.887   0.066  15.828  0.0666 -0.0390  0.2686
24713W        W40974   5.064  12.942  14.916 -0.4997  0.1123 -0.0167
24714W        W40975  16.575  14.830   4.745 -0.0884 -0.2367  0.1486
24715W        W40976   0.927  18.184  15.697 -0.0305 -0.0022 -0.4199
24716W        W40977  13.620   5.917   4.415  0.0903  0.2844 -0.0034
24717W        W40978  11.063  17.665  15.645  0.0257 -0.1643  0.0517
24718W        W40979   6.876  16.795   3.649 -0.0172 -0.0162 -0.0142
24719W        W40980   3.633  16.638   2.148  0.0581 -0.1479 -0.2359
24720W        W40981   9.499   0.590   1.187  0.1970  0.0185  0.0470
24721W        W40982  17.290  10.508  13.827 -0.0651  0.1779  0.1353
24722W        W40983  14.453   7.609  11.441 -0.0715 -0.1718 -0.0420
24723W        W40984   7.796   4.212   4.626 -0.0278 -0.1344  0.0948
24724W        W40985   6.209  12.967   1.375  0.0033 -0.1549 -0.0693
24725W        W40986   8.830  12.720   3.189  0.3078 -0.1693  0.2972
24726W        W40987   8.005  14.846  13.718  0.2113  0.0416 -0.1485
24727W        W40988  15.815  11.808   3.468 -0.0888  0.3636 -0.0351
24728W        W40989  15.959   6.075   4.087 -0.0523  0.1194  0.0753
24729W        W40990   5.260  16.126  12.614  0.0126 -0.2177 -0.2169
24730W        W40991  10.361  16.442   0.141 -0.2077  0.0086 -0.1995
24731W        W40992  17.424   1.771  16.174 -0.4278  0.2663  0.2218
24732W        W40993   2.381  12.934  15.672 -0.0624 -0.0641 -0.1089
24733W        W40994  14.719   7.712   2.185  0.0658  0.1118 -0.1871
24734W        W40995   3.780  11.303   5.691  0.0549  0.0395 -0.0305
24735W        W40996   7.449  11.172  13.671 -0.0370  0.0637  0.1737
24736W        W40997  14.253  10.648  12.613 -0.0582  0.1276 -0.0734
24737W        W40998   6.400  13.098   2.321  0.2988  0.0366 -0.1287
24738W        W40999  18.130  12.196   4.017 -0.0810  0.1996 -0.1804
24739W        W41000  13.324   4.195  12.062 -0.0335 -0.3298  0.2715
24740W        W41001   7.621   1.065   4.707 -0.1279 -0.3561 -0.2621
24741W        W41002  13.490  15.344   0.102  0.1566 -0.0240  0.0539
24742W        W41003  17.041  13.540  14.477  0.1216  0.2483 -0.2190
24743W        W41004  17.439  15.460   5.643 -0.0861  0.0812  0.1125
24744W        W41005  17.228  13.558  13.482 -0.4153 -0.0318  0.0314
24745W        W41006  18.056   1.057   0.726  0.0749  0.1992 -0.2666
24746W        W41007   6.010  15.290  14.984 -0.0922 -0.0050 -0.3763
24747W        W41008   1.608   8.999  12.030 -0.1066  0.0249 -0.0450
24748W        W41009  11.289   0.852   2.042 -0.2827 -0.3325 -0.1859
24749W        W41010   6.824  14.882   3.784  0.0517 -0.0072  0.0813
24750W        W41011   2.136   0.841  13.141  0.0381  0.1628 -0.0038
24751W        W41012  15.867  12.593  11.996 -0.1442  0.1073 -0.1624
24752W        W41013   9.400  11.993  15.398  0.2199  0.1237  0.3508
24753W        W41014  12.359   2.046  12.726  0.1210  0.3190  0.0659
24754W        W41015   7.836   5.592  15.889  0.0989  0.0343 -0.1315
24755W        W41016   6.914   8.114   4.900 -0.2279 -0.2533  0.3210
24756W        W41017  12.230  16.023   3.173  0.0347  0.4652  0.0200
24757W        W41018  16.461  15.996  14.557 -0.0327  0.0326 -0.2734
24758W        W41019   2.313  10.462  11.723 -0.3122  0.1104  0.2154
24759W        W41020   2.063   0.658   3.599 -0.0005 -0.0010  0.1079
24760W        W41021  15.690  16.346   4.879  0.1077  0.0676  0.2930
24761W        W41022   7.924  11.929   5.166 -0.3264 -0.1630 -0.0751
24762W        W41023   9.990  15.318  14.758  0.3774 -0.3317  0.1141
24763W        W41024   5.766   4.873  13.452  0.0483 -0.2355  0.0899
24764W        W41025  14.354  12.598  14.543  0.2250  0.0036 -0.0866
24765W        W41026   8.557   0.424  14.783 -0.1597  0.1414  0.0698
24766W        W41027   2.572   8.298   3.609  0.2101 -0.0475 -0.0897
24767W        W41028  16.412   5.872   5.042  0.0747 -0.2193  0.1784
24768W        W41029   7.536   5.370  12.811  0.1294 -0.0704  0.0827
24769W        W41030  18.100   3.024   1.369  0.1395 -0.2921 -0.0926
24770W        W41031   5.607  17.909   0.017  0.1723  0.3013 -0.0242
24771W        W41032   3.985  12.590   0.990 -0.0931 -0.0239 -0.1353
24772W        W41033   8.824   5.315   0.173  0.2355  0.1033 -0.0262
24773W        W41034  10.230   1.214   2.077 -0.0873  0.0300 -0.3109
24774W        W41035  15.638   3.530  14.462  0.0678 -0.2277  0.0397
24775W        W41036  15.188   0.733  11.404 -0.0229 -0.1885  0.3216
24776W        W41037  17.821   3.121  16.612 -0.0297  0.2473 -0.2593
24777W        W41038   5.273  18.051  11.662 -0.0783  0.0421 -0.1451
24778W        W41039   8.901   8.272   0.103  0.0329  0.2192  0.0326
24779W        W41040   7.117  15.575  13.418 -0.0044 -0.1197 -0.3349
24780W        W41041   5.598   3.789   2.571 -0.2986  0.0369  0.0800
24781W        W41042   6.689  17.925   1.118 -0.1138 -0.3840 -0.0424
24782W        W41043   8.354  17.917   5.787  0.1315 -0.1524 -0.1558
24783W        W41044  14.061   3.842  11.286  0.0241  0.0250  0.0517
24784W        W41045   8.062  18.068   0.013  0.0184 -0.1317 -0.2854
24785W        W41046  15.215  15.195  13.706  0.2110  0.0305  0.1710
24786W        W41047   1.502   1.898  13.436 -0.1980  0.0895  0.2234
24787W        W41048   9.379   6.412   1.667 -0.3428  0.2076  0.3224
24788W        W41049  14.982   6.349  11.929  0.2745 -0.2731  0.1028
24789W        W41050  11.601  10.426   5.544  0.0110  0.2995  0.0977
24790W        W41051   1.367  17.235   5.366 -0.0714  0.1223  0.0578
24791W        W41052   3.320   9.749   0.028  0.0225  0.0653  0.0781
24792W        W41053   2.618   9.987  13.066 -0.0601  0.0522  0.1581
24793W        W41054   8.340   2.744   2.341  0.1832 -0.0972 -0.0797
24794W        W41055  13.535   3.056  16.298 -0.1594 -0.0115 -0.1804
24795W        W41056  10.081  10.780  13.788 -0.0143  0.3523  0.0595
24796W        W41057  10.706  10.067   1.410 -0.1892  0.1191  0.0956
24797W        W41058   1.773   8.084  11.523  0.5240  0.0356  0.1578
24798W        W41059  16.853  16.582  14.798 -0.0834  0.4315  0.2118
24799W        W41060  12.725   2.516   4.760 -0.1680 -0.2115  0.2195
24800W        W41061   3.150  15.970   1.606  0.0030 -0.1449  0.0902
24801W        W41062   6.827   8.870  14.301  0.0295  0.2465  0.1091
24802W        W41063   3.688   5.881  13.503 -0.3790  0.0598 -0.0913
24803W        W41064  16.179  11.165  13.364  0.0692 -0.3844 -0.2778
24804W        W41065   7.756   0.022  12.019 -0.2704 -0.2391  0.0841
24805W        W41066  13.176   0.522  14.660  0.2984  0.1043 -0.0057
24806W        W41067   3.690   5.944  14.561  0.2868 -0.3353  0.0661
24807W        W41068  15.875  18.057   1.379 -0.0853 -0.0056 -0.0663
24808W        W41069  13.933   9.683  16.580 -0.1466  0.1828  0.1812
24809W        W41070   2.247   0.361   2.701  0.1402 -0.1651  0.0971
24810W        W41071   0.461   8.550   1.539 -0.0997  0.0558  0.0718
24811W        W41072   4.716  16.416   0.540 -0.1332  0.0239 -0.2946
24812W        W41073   2.562  13.364  11.548 -0.1074 -0.2002 -0.2848
24813W        W41074   9.907   0.924   5.761 -0.1124 -0.0345  0.4682
24814W        W41075   9.884   7.067   4.682  0.1834 -0.1907 -0.1793
24815W        W41076  16.952   8.258   4.575 -0.1620 -0.2758 -0.1581
24816W        W41077   1.315  15.838  14.378 -0.3298  0.1428 -0.0060
24817W        W41078   4.922   6.364   3.792  0.0532 -0.0996 -0.3420
24818W        W41079   4.140   6.518   4.660  0.0261 -0.0624  0.0221
24819W        W41080   8.006   8.570  12.407 -0.2070  0.2935  0.2554
24820W        W41081   3.235   5.167  13.701 -0.2302 -0.4844  0.2719
24821W        W41082  16.970   0.458   1.803  0.0440  0.0706 -0.1300
24822W        W41083  17.086   5.212  14.714 -0.0412  0.1574 -0.2686
24823W        W41084  18.165   0.112   4.278  0.2248  0.2822 -0.0405
24824W        W41085  15.398   8.501  11.493  0.2625  0.0625  0.0175
24825W        W41086  10.196   0.463  14.855 -0.2099 -0.0417 -0.0386
24826W        W41087  18.033  17.739   4.025 -0.3442  0.0223  0.1668
24827W        W41088   8.352  15.195  13.548 -0.0581 -0.2887 -0.0045
24828W        W41089   6.895   3.096   0.377  0.0774  0.1283 -0.2612
24829W        W41090  11.251  12.060   1.583  0.4373  0.0358 -0.1236
24830W        W41091   1.701   8.294   6.222 -0.1457 -0.1547  0.2189
24831W        W41092  12.868   3.073  11.143 -0.1003  0.1889 -0.4489
24832W        W41093   4.565  15.170   1.058 -0.0332  0.0533 -0.0528
24833W        W41094   7.503   1.777  12.397 -0.0563 -0.0026  0.1595
24834W        W41095   7.793   2.572   4.555 -0.0072 -0.0853 -0.2629
24835W        W41096  15.803   9.061   1.157  0.1534  0.0617 -0.2926
24836W        W41097  16.587  13.997  12.496  0.1945  0.1780  0.0329
24837W        W41098  16.871   0.213  14.448 -0.1544  0.1286 -0.3271
24838W        W41099   2.808   5.417  16.578 -0.1922 -0.0131  0.2957
24839W        W41100  13.704  18.057  13.429 -0.1464 -0.0977  0.3095
24840W        W41101   9.468   1.554  15.555  0.0348  0.2037 -0.0527
24841W        W41102  16.383  10.895   5.698  0.1709 -0.2591  0.0536
24842W        W41103   6.042   9.440  12.129 -0.2881 -0.1449 -0.0983
24843W        W41104   4.644  11.092  11.698  0.2939  0.3006 -0.2015
24844W        W41105   0.021   2.656   2.374  0.1058  0.0724 -0.3586
24845W        W41106   7.248  11.562  12.433 -0.2428  0.0487  0.0487
24846W        W41107   0.529  13.702   3.500 -0.3881  0.0358 -0.1082
24847W        W41108   1.516  16.379  14.310 -0.3113  0.0792 -0.0290
24848W        W41109   5.762  15.083  13.380 -0.0723  0.1861 -0.1168
24849W        W41110  11.362   4.489  12.672 -0.0325 -0.0327 -0.2420
24850W        W41111   2.147   0.379  13.388 -0.0141 -0.0254  0.0811
24851W        W41112   9.494   9.320  15.428 -0.1854 -0.1800 -0.1804
24852W        W41113  12.558   8.452   2.939 -0.2312 -0.4923  0.0868
24853W        W41114   3.637  12.652   5.489 -0.0529 -0.0133 -0.0728
24854W        W41115  10.380  12.612   4.983 -0.3267  0.3393  0.1033
24855W        W41116   2.052   7.623  13.273  0.2801  0.0239 -0.0041
24856W        W41117   5.910  12.792   5.310  0.3296 -0.0627  0.0374
24857W        W41118   4.176   9.644   4.161  0.1913  0.0294  0.0555
24858W        W41119   6.060   4.121  15.385 -0.2322 -0.1891 -0.2053
24859W        W41120  18.007  13.079   1.851 -0.1354 -0.0349  0.0445
24860W        W41121   5.474  14.834   5.191  0.0565 -0.1257 -0.1274
24861W        W41122   3.180   4.263  14.568  0.1882  0.1269  0.2441
24862W        W41123  13.585  16.329  15.672  0.3602  0.0836  0.2181
24863W        W41124   5.318  14.859  14.181 -0.1835 -0.1677  0.1576
24864W        W41125   6.419   0.970  13.924  0.2098 -0.0315  0.0441
24865W        W41126   2.918  13.351   6.244 -0.0924  0.0361  0.2172
24866W        W41127  11.088   8.898  15.119 -0.0955  0.0195  0.0244
24867W        W41128   5.576   3.022   4.467 -0.1175 -0.0509 -0.1025
24868W        W41129  12.293   6.536   1.021  0.0716 -0.0266  0.0434
24869W        W41130   4.180  11.571  11.931 -0.0161  0.1748  0.1696
24870W        W41131  13.779   4.587   4.313  0.0867 -0.1293  0.1551
24871W        W41132   4.721   5.647   4.381  0.0147  0.0170 -0.0617
24872W        W41133   7.107   5.046   4.373 -0.1050 -0.0041  0.0879
24873W        W41134   6.113   9.019  12.595  0.0427  0.0577 -0.0851
24874W        W41135  17.937   2.013   5.414  0.2227  0.0021 -0.0342
24875W        W41136  16.373  13.795   0.112  0.1198  0.1244  0.0168
24876W        W41137  14.875  13.170   4.123  0.1922  0.0387 -0.1815
24877W        W41138  15.562   5.596   6.113 -0.2170 -0.1194 -0.1147
24878W        W41139   7.589   8.612   3.284  0.2574 -0.0086  0.2796
24879W        W41140  12.702  14.209   5.093 -0.0080  0.1344  0.2677
24880W        W41141  10.517  16.924  12.811 -0.1269 -0.1278  0.0025
24881W        W41142  16.051   7.134   2.779  0.0087  0.2866 -0.0884
24882W        W41143  15.943   0.783   5.183  0.0861  0.1088  0.1415
24883W        W41144  13.430  11.040   4.173  0.0785  0.2564 -0.0736
24884W        W41145   1.567   2.968  13.255  0.4513 -0.1225 -0.1375
24885W        W41146  11.755   3.922   3.381 -0.1557 -0.2072  0.1316
24886W        W41147   5.782   7.220  12.622 -0.2285  0.1843 -0.0884
24887W        W41148  14.460   5.296   4.085 -0.2066  0.2708  0.0660
24888W        W41149   7.708   0.259   2.051 -0.2563  0.1563  0.3066
24889W        W41150  18.134  16.084   1.244  0.0833  0.0357  0.2814
24890W        W41151   4.303  10.805  14.574 -0.4177  0.2397  0.2302
24891W        W41152  12.771  15.795  12.311 -0.0595  0.2522  0.0647
24892W        W41153   5.279   4.631  15.521 -0.2949  0.1167 -0.2937
24893W        W41154   2.260  11.721  12.293 -0.1715 -0.1488  0.0547
24894W        W41155   2.342  12.538   0.692 -0.2979  0.1309 -0.1189
24895W        W41156  11.370  12.490   1.340 -0.1511  0.0355 -0.1164
24896W        W41157  11.322   5.190   1.071 -0.5068  0.1095  0.1542
24897W        W41158  13.437   5.605  11.825 -0.0192 -0.1638 -0.4329
24898W        W41159  14.606   5.777   4.905  0.0224  0.0923  0.0868
24899W        W41160  15.037   3.982  16.476 -0.1679 -0.1877 -0.1206
24900W        W41161  17.059   4.655   3.062  0.0928  0.0869 -0.4323
24901W        W41162  17.289   6.752  13.514  0.0462  0.2093 -0.1862
24902W        W41163   3.702  17.345   1.290 -0.2088  0.2637  0.0824
24903W        W41164   3.743   8.745  12.565  0.0080  0.1779 -0.2305
24904W        W41165   6.949   9.516  13.319  0.0201  0.2544  0.1478
24905W        W41166  16.804   6.806   3.014  0.1489  0.1981  0.2500
24906W        W41167   1.305  17.737  16.587 -0.0917 -0.3079  0.0286
24907W        W41168  10.111  15.086  14.124  0.0792  0.0774 -0.2190
24908W        W41169   9.356  10.448  11.375 -0.4663  0.0559 -0.0430
24909W        W41170   0.334   1.215  14.688 -0.0758 -0.0369  0.2809
24910W        W41171   4.380   9.129   5.083 -0.1004 -0.0966 -0.1472
24911W        W41172  14.603  12.016   4.899 -0.0559  0.2097  0.0845
24912W        W41173  15.706   2.021   6.292 -0.0087 -0.2996 -0.2940
24913W        W41174   4.068  15.851   6.747  0.3547  0.0584 -0.2002
24914W        W41175  16.121   0.851   2.004  0.0434 -0.1809 -0.1268
24915W        W41176   8.709  13.922  13.925  0.0788 -0.1750  0.3405
24916W        W41177  17.894   3.129  14.392 -0.0694 -0.0856 -0.0547
24917W        W41178   0.409  10.310  14.356 -0.0400  0.1014  0.1595
24918W        W41179  15.301   5.993   2.209 -0.0769 -0.2043  0.0479
24919W        W41180   6.757   4.939   1.481  0.1227  0.1858 -0.0215
24920W        W41181   3.118  17.113   4.607 -0.0450  0.1852 -0.0897
24921W        W41182  15.406   2.772   6.264 -0.0658 -0.1969 -0.2856
24922W        W41183  18.101   9.813   2.929  0.0712 -0.2212  0.2029
24923W        W41184   3.443  13.093  15.855  0.0520  0.0008 -0.1770
24924W        W41185   4.651   8.249  15.784 -0.3401 -0.0929 -0.0032
24925W        W41186  13.644  15.882   5.071  0.2308 -0.2313  0.1680
24926W        W41187  14.138   7.617  13.416 -0.0157 -0.6925 -0.3149
24927W        W41188   2.762   8.697   3.830  0.2668  0.2241 -0.0612
24928W        W41189   8.889  13.175  12.293 -0.0940  0.2817 -0.3124
24929W        W41190   2.072   7.398   2.605 -0.0807 -0.3805 -0.1896
24930W        W41191  17.801   2.883   1.693 -0.0739  0.0778 -0.0380
24931W        W41192  10.052  16.529   0.590 -0.0012 -0.1258 -0.1565
24932W        W41193   5.201  15.864   5.166  0.0922 -0.0597 -0.0496
24933W        W41194   3.352   5.056  12.265 -0.0623  0.2061 -0.0268
24934W        W41195  11.133  16.614  15.540 -0.0768  0.0860 -0.0527
24935W        W41196  17.268   3.812   4.101 -0.0100  0.1834  0.2050
24936W        W41197   0.384  12.303  12.737 -0.0297  0.1390 -0.0751
24937W        W41198  17.198   0.739   2.180  0.4431  0.0740 -0.1016
24938W        W41199   7.170  15.852   2.279  0.2910 -0.0855 -0.0347
24939W        W41200   2.723   9.882  15.422 -0.0790 -0.0343  0.1883
24940W        W41201  14.562   0.069   4.313 -0.0996  0.0019 -0.0194
24941W        W41202   6.406  16.170   0.733 -0.1085  0.0264  0.1676
24942W        W41203  18.048   7.587   1.738  0.1611 -0.1868  0.1200
24943W        W41204   2.284  12.152  12.046 -0.0419  0.1160 -0.2027
24944W        W41205   3.574   3.766   5.553  0.1067 -0.0800  0.0737
24945W        W41206   1.135   8.622   0.823 -0.2667 -0.2507  0.0217
24946W        W41207  15.588  14.412   3.805  0.2218 -0.7276  0.1567
24947W        W41208  17.251   7.106  13.047 -0.0705 -0.2289  0.1579
24948W        W41209  10.408   8.544   5.997 -0.0944 -0.1764  0.2070
24949W        W41210  17.760   9.732   4.318  0.0138  0.0222 -0.1305
24950W        W41211  15.281   3.112  15.056  0.1955 -0.3372  0.1201
24951W        W41212  12.641  11.696   2.896  0.1672 -0.3428  0.0053
24952W        W41213  15.533   8.501   3.875 -0.1515 -0.0864  0.2407
24953W        W41214   7.958  16.968   5.662 -0.2766  0.2355  0.0560
24954W        W41215  15.562  10.646   4.011  0.0866  0.0258 -0.0329
24955W        W41216   7.109   2.666  15.987 -0.0180  0.4505  0.0079
24956W        W41217   5.093   9.370  11.832 -0.1280 -0.2420  0.2725
24957W        W41218   2.119  14.247  13.950 -0.1742 -0.0621  0.4371
24958W        W41219   1.436  11.670  15.596  0.1721 -0.0149  0.2929
24959W        W41220  15.698  17.664   2.847 -0.1213 -0.0197 -0.2029
24960W        W41221   1.322  13.301  15.642 -0.0956 -0.0754 -0.1651
24961W        W41222   6.413   3.023   1.173 -0.1091  0.0018 -0.0256
24962W        W41223  13.228  13.112  15.838  0.3131 -0.2243 -0.0717
24963W        W41224  17.871   6.334  15.296 -0.1244 -0.0175 -0.0571
24964W        W41225  10.940   6.719   4.321 -0.3875 -0.2551  0.0854
24965W        W41226  17.890   3.745   1.624  0.3565 -0.2332 -0.0834
24966W        W41227   9.682  12.769  12.529  0.0733  0.2225 -0.2949
24967W        W41228  14.457   8.762   4.162  0.2510 -0.1173 -0.3080
24968W        W41229   6.762  15.681   5.165  0.2084  0.2097 -0.4140
24969W        W41230  12.541  12.019  11.884 -0.1665  0.1130 -0.0828
24970W        W41231   2.781  11.302  15.646 -0.0088 -0.1247 -0.2134
24971W        W41232  16.260   4.444   1.663 -0.0794  0.1113 -0.1423
24972W        W41233   1.330   7.300   4.674  0.2177 -0.2434 -0.0631
24973W        W41234   1.659  17.909  15.369 -0.1019 -0.0420  0.0206
24974W        W41235  14.642  17.227   2.202  0.0466  0.0149 -0.1349
24975W        W41236  13.911   9.302  16.098  0.2072 -0.0743  0.1871
24976W        W41237  13.703  17.219   3.423  0.2074 -0.0591  0.0008
24977W        W41238  14.679   5.835  15.967 -0.1812  0.1401  0.0167
24978W        W41239   9.385  11.313  12.411 -0.0634 -0.4479  0.0342
24979W        W41240  16.026   3.127  13.771  0.0732 -0.0265  0.1811
24980W        W41241   3.499  16.619  12.545 -0.3185 -0.0231 -0.0087
24981W        W41242   7.714  17.083  16.494 -0.1925 -0.2467 -0.0364
24982W        W41243  12.204   0.356  14.434  0.1657  0.1181 -0.1037
24983W        W41244  13.674   5.388  15.955  0.1697 -0.0424 -0.2572
24984W        W41245   1.652   2.236   6.733  0.0156  0.4616  0.0532
24985W        W41246  15.977   4.274  12.742  0.0192  0.2074  0.0317
24986W        W41247  13.006   6.012  16.327 -0.4042 -0.1370 -0.0215
24987W        W41248   9.516   3.523   4.151 -0.2318 -0.1270  0.0439
24988W        W41249  15.917   2.554  11.999  0.0567  0.1753 -0.2362
24989W        W41250  15.160   3.392   2.033  0.3275 -0.1369  0.0617
24990W        W41251   8.309   6.159   2.791  0.1351  0.0822 -0.5903
24991W        W41252  16.285   0.719  14.942  0.0444 -0.5395 -0.2463
24992W        W41253   2.223  14.832  15.524 -0.2578 -0.0361  0.1442
24993W        W41254   2.410  11.388  14.284  0.2754 -0.0937  0.1082
24994W        W41255  13.303   2.182   3.077 -0.1415 -0.1045  0.0075
24995W        W41256   4.864  16.690   4.129  0.2316  0.0228  0.1634
24996W        W41257  10.671  10.527   1.670  0.0283  0.2390  0.2147
24997W        W41258   4.403   0.559   3.845  0.2531 -0.0949 -0.5744
24998W        W41259  15.567   4.500  15.109  0.1736  0.1266 -0.0944
24999W        W41260   4.557   6.591   4.444  0.1794 -0.0373  0.2160
25000W        W41261  16.230   3.900  15.022 -0.0239 -0.2455 -0.1802
25001W        W41262  13.731  14.206  12.707  0.3199 -0.0268  0.0888
25002W        W41263  16.145   7.796   4.923  0.1193  0.0591  0.0161
25003W        W41264  13.228   0.134  15.329 -0.0378  0.0621  0.0583
25004W        W41265   6.267   7.754  13.815 -0.1838  0.1468  0.0091
25005W        W41266   7.046  11.768  14.156  0.0568 -0.1194  0.2420
25006W        W41267   0.993   3.196  15.446 -0.1169  0.1154  0.1433
25007W        W41268  17.570   8.709  14.833 -0.0043  0.0396  0.1718
25008W        W41269  11.977   0.341   3.032  0.2666 -0.1396 -0.0071
25009W        W41270  10.819   7.570   4.688 -0.1617 -0.4290 -0.1229
25010W        W41271  12.439  10.141   0.111  0.3018 -0.3331  0.1257
25011W        W41272  15.190  18.024  12.522 -0.1666 -0.0147  0.1319
25012W        W41273  11.105  17.732  10.915 -0.1759  0.0885 -0.0328
25013W        W41274   3.715  17.997  14.414  0.0799 -0.0484 -0.0113
25014W        W41275   2.078  10.381   2.659 -0.0403  0.0789  0.3537
25015W        W41276  10.262  15.532   1.570  0.1895 -0.1909 -0.1042
25016W        W41277   7.783  10.395  16.434 -0.0945 -0.2661  0.0291
25017W        W41278  16.516  13.851  15.620 -0.0415  0.2224 -0.3389
25018W        W41279   7.733   6.645  15.797  0.1124 -0.0531  0.0844
25019W        W41280  17.335   0.345  12.742  0.1982  0.0843  0.0659
25020W        W41281  17.519  10.054   4.997  0.1650 -0.1516  0.2397
25021W        W41282  14.515  14.673  11.834  0.0093 -0.0672 -0.2270
25022W        W41283   1.360   0.653   5.262 -0.0075  0.0305 -0.1146
25023W        W41284  11.873   2.401  15.616  0.0786 -0.0592  0.3853
25024W        W41285  12.825  12.418   5.284  0.0481 -0.1109  0.1616
25025W        W41286  12.482  13.396  15.174  0.1882  0.0120 -0.3569
25026W        W41287  15.947   5.246   6.440 -0.0149 -0.3841  0.2878
25027W        W41288   5.919   5.651   5.157  0.0418  0.1131 -0.0148
25028W        W41289   5.920  10.668   5.270  0.0964  0.1802 -0.0241
25029W        W41290   0.507  14.778   2.985 -0.4261 -0.0619  0.1182
25030W        W41291   6.926  12.333   2.487  0.2412 -0.1361  0.1576
25031W        W41292  10.303  15.508  16.557  0.0337  0.0047  0.1994
25032W        W41293   2.809   9.496  13.535 -0.1385  0.0431  0.1383
25033W        W41294   7.732  17.072   2.638  0.1617  0.1012  0.0505
25034W        W41295   0.363  17.285  10.768 -0.1170 -0.3693 -0.1939
25035W        W41296   1.919   0.081  15.620  0.0962  0.0756 -0.0231
25036W        W41297   3.335   2.559  12.418  0.3000  0.0874 -0.1033
25037W        W41298   4.082   6.435   3.426  0.0997  0.0961 -0.1051
25038W        W41299  17.629   1.633   5.379  0.1420  0.0643  0.0619
25039W        W41300  10.638  10.427  13.539  0.0208 -0.0937  0.1696
25040W        W41301  17.632   8.130  13.149  0.0517 -0.4718  0.0887
25041W        W41302  11.724   5.070  14.602 -0.0733  0.2351 -0.2205
25042W        W41303  13.913  17.177   2.336 -0.0356  0.4950  0.0081
25043W        W41304   2.167  13.007   2.468  0.1924  0.0750  0.0452
25044W        W41305  14.152  16.480   1.878 -0.2084  0.0242  0.1358
25045W        W41306  16.763  12.271  16.109  0.1050 -0.0780 -0.1578
25046W        W41307   8.071  14.412  15.991  0.0648 -0.2211 -0.1820
25047W        W41308   8.178  11.967  13.570  0.1073  0.3159  0.0446
25048W        W41309  13.327   6.989   1.126 -0.0414 -0.1117  0.1503
25049W        W41310   1.277   9.413  13.951 -0.1590 -0.2668 -0.1013
25050W        W41311   3.409   0.946   2.903 -0.2464  0.0787  0.2215
25051W        W41312  14.021   7.217   3.482 -0.0803 -0.0037 -0.1127
25052W        W41313  14.918   6.579   3.019  0.1427 -0.3145  0.3581
25053W        W41314   7.421   4.030   3.013  0.4094 -0.3828 -0.2259
25054W        W41315  15.377  12.919   2.217 -0.0887  0.2608 -0.0631
25055W        W41316  12.383   5.313  10.281  0.0734  0.0255 -0.2397
25056W        W41317   4.500  15.822  14.488 -0.2185  0.0741  0.2499
25057W        W41318   3.217   7.047   3.836 -0.1054  0.6088  0.0519
25058W        W41319  10.000  11.905   0.024 -0.1713 -0.1046 -0.1319
25059W        W41320   5.341   8.563   0.494  0.0324  0.1904  0.0228
25060W        W41321   4.565   5.109   2.836  0.0047 -0.2256  0.0143
25061W        W41322  14.226  15.053   5.745  0.3867 -0.0059 -0.1399
25062W        W41323  13.628   5.792  16.588  0.0926  0.2170 -0.1750
25063W        W41324   9.034   1.538  15.111 -0.2788  0.0442 -0.1662
25064W        W41325  15.604   7.652  12.740  0.0251  0.1002  0.0390
25065W        W41326   3.597   5.402   3.615  0.6111 -0.2226 -0.1131
25066W        W41327   4.677  10.867   0.847  0.0344  0.1769 -0.1063
25067W        W41328  15.393   8.785   1.840  0.2109 -0.1074  0.4036
25068W        W41329  11.986  17.564   2.286  0.0677 -0.1181  0.0094
25069W        W41330  11.782  11.137   2.026  0.0720 -0.2838 -0.1847
25070W        W41331   3.493   6.340  13.435  0.0314  0.0832 -0.2264
25071W        W41332  11.571  16.723   2.688 -0.0191 -0.0579  0.2748
25072W        W41333  15.792   3.976  13.867 -0.0328  0.0976  0.0320
25073W        W41334  11.919   8.920   3.658  0.2072  0.0129 -0.1690
25074W        W41335  17.155   8.404  13.706  0.0754  0.0551 -0.1660
25075W        W41336  13.865  11.547  13.421  0.0726 -0.0292 -0.3711
25076W        W41337  14.952  14.768   6.109 -0.1468  0.0759  0.2847
25077W        W41338  16.494  17.452   0.714  0.1449  0.0033 -0.1277
25078W        W41339   8.214   2.184   2.140 -0.1496  0.3095  0.1870
25079W        W41340  15.043   4.900  13.217  0.0936 -0.1543 -0.0508
25080W        W41341   4.314   1.128  15.834  0.0789 -0.1410 -0.0819
25081W        W41342  13.463   0.134   1.013  0.2031 -0.1981  0.1105
25082W        W41343  14.133   7.339   4.659  0.0409 -0.2343 -0.1323
25083W        W41344  13.717   9.643   4.865 -0.0477 -0.0922 -0.0412
25084W        W41345   5.919  13.008  15.433 -0.0705  0.3516 -0.0862
25085W        W41346   8.478   6.525   3.071  0.1130 -0.2790  0.4203
25086W        W41347  16.671  16.980   3.403 -0.1538  0.0685 -0.2362
25087W        W41348  17.396   8.159   1.991 -0.1999  0.0986 -0.2250
25088W        W41349   4.507  10.707   4.144  0.0500  0.1372 -0.3319
25089W        W41350   4.238   0.116   0.614  0.0471  0.0739 -0.0737
25090W        W41351  11.905   1.089  13.119  0.0026  0.0155 -0.1752
25091W        W41352   9.692  15.433   2.964 -0.0476 -0.1931  0.0561
25092W        W41353   4.877  15.693   3.671  0.1262  0.0528 -0.0618
25093W        W41354   3.368  16.864  13.518 -0.1186 -0.0720 -0.1355
25094W        W41355  10.631  10.533  15.521 -0.3186 -0.0989  0.5408
25095W        W41356  10.029  11.697  15.763 -0.1155  0.0424  0.0300
25096W        W41357   5.557   6.111  15.801 -0.1427 -0.6622 -0.0465
25097W        W41358  14.512  13.002  13.258 -0.0544  0.1313  0.0791
25098W        W41359  12.513   6.972   2.595 -0.4015 -0.2507 -0.0048
25099W        W41360   4.154  13.764  16.641  0.2083 -0.1011  0.1357
25100W        W41361   5.324   5.258   5.517 -0.0493 -0.0455 -0.1876
25101W        W41362   6.069   0.686  15.225  0.1011 -0.0264 -0.0945
25102W        W41363  11.814   5.409   3.842  0.2984 -0.2607 -0.2143
25103W        W41364  12.298   1.362   3.299 -0.1259 -0.0192  0.1604
25104W        W41365  15.345   2.048  14.602 -0.1693  0.0608  0.0213
25105W        W41366   8.090   0.875  12.203 -0.0565  0.0966  0.0313
25106W        W41367  11.445   3.564  12.709  0.0413  0.0643 -0.1783
25107W        W41368  10.274   7.147  14.751  0.1417 -0.0213 -0.0716
25108W        W41369  16.842   2.977   4.401  0.2361 -0.2172 -0.1551
25109W        W41370  15.322  12.338   4.149  0.1070 -0.0544 -0.0313
25110W        W41371   0.264  17.838  15.062  0.2857  0.1409 -0.2303
25111W        W41372   7.412  13.550  14.198 -0.1753 -0.2257  0.0595
25112W        W41373   4.702  17.408   5.530 -0.3033 -0.4190  0.1498
25113W        W41374   4.110   7.122  16.160  0.1122 -0.0505 -0.0582
25114W        W41375   5.269  13.836  14.606  0.1367  0.0624 -0.1875
25115W        W41376  12.575   0.989  15.859  0.2122 -0.2537  0.2707
25116W        W41377   9.484  14.874  16.347 -0.0258  0.3326 -0.1523
25117W        W41378  15.376  16.703   3.450  0.0389  0.0788 -0.1236
25118W        W41379  11.993   8.707   2.802 -0.2338  0.2385 -0.1306
25119W        W41380   7.740  10.518   0.534  0.3672 -0.1867 -0.0106
25120W        W41381   0.677   4.756  15.748  0.1554  0.0056  0.1006
25121W        W41382   6.902  17.925   3.304 -0.0657 -0.2275  0.2950
25122W        W41383   8.741   4.971  15.190 -0.2307  0.1952  0.0673
25123W        W41384   9.781   8.945   5.291  0.1444  0.2307 -0.0796
25124W        W41385   8.863   7.051   0.265 -0.1992  0.0018 -0.1974
25125W        W41386  11.468   6.372  14.940  0.0807 -0.2034  0.2031
25126W        W41387   9.998   5.481  11.035  0.0215 -0.2989  0.1610
25127W        W41388   2.189  17.076  16.239 -0.3176 -0.1601 -0.0202
25128W        W41389   3.534  13.632   1.952  0.3567 -0.3640 -0.1215
25129W        W41390   2.367  13.240   3.488 -0.3196  0.3900 -0.1116
25130W        W41391   4.219   6.847  14.294  0.2149  0.1043 -0.2858
25131W        W41392   1.346  12.493   0.973  0.1385  0.0443  0.3728
25132W        W41393   3.523   6.450  14.850  0.0400 -0.2125  0.3128
25133W        W41394   0.886   6.036   0.540  0.0640  0.2386  0.0764
25134W        W41395  10.925   4.573   4.177  0.1058 -0.1810  0.1036
25135W        W41396  16.765   5.053  13.263  0.1501  0.0708  0.2510
25136W        W41397  14.093   5.536  15.217 -0.2327 -0.0048  0.0817
25137W        W41398   5.974  10.947   2.847  0.1634 -0.0607 -0.1989
25138W        W41399   2.895   3.346  15.193 -0.0216  0.2628  0.0609
25139W        W41400  14.955  10.384   4.794  0.0148  0.2900 -0.5297
25140W        W41401   6.187  18.108   2.666 -0.3408  0.2637 -0.0751
25141W        W41402   3.411  13.911  12.714 -0.0728  0.1331 -0.1889
25142W        W41403  12.428  10.619   0.727 -0.1390  0.2538 -0.1141
25143W        W41404   4.209   8.561  12.131 -0.0512 -0.1158 -0.0340
25144W        W41405  15.837   1.533   0.412  0.0620 -0.0956 -0.1701
25145W        W41406   5.436   1.050  13.609  0.0412 -0.2681  0.0196
25146W        W41407  13.190   2.716  15.982  0.1126 -0.3055 -0.0334
25147W        W41408   9.188   0.294   0.945 -0.0363 -0.1119 -0.1362
25148W        W41409  13.675   5.106  12.664  0.0286 -0.1476  0.1208
25149W        W41410  15.038  12.718   0.707  0.3651 -0.1565 -0.5547
25150W        W41411  18.080   6.465  16.260 -0.0959  0.0284 -0.0858
25151W        W41412   9.764  17.399   0.607  0.3937 -0.3194  0.1479
25152W        W41413   1.435  15.959   4.175 -0.0809  0.2122  0.2659
25153W        W41414   6.370  14.189  16.388  0.1239  0.0942 -0.1492
25154W        W41415   6.725  11.145  15.581  0.0196 -0.3488  0.0191
25155W        W41416   3.109   2.728   5.895 -0.0149 -0.2229 -0.0332
25156W        W41417   4.939   2.564   4.114  0.0366 -0.1048 -0.1925
25157W        W41418   9.849  10.907  15.372  0.2389 -0.0583 -0.0128
25158W        W41419  11.043  10.071   1.822  0.1033  0.1647  0.3076
25159W        W41420   0.341  17.933   4.164 -0.0749 -0.2273 -0.1125
25160W        W41421  12.828  12.736  14.594  0.0864 -0.1574  0.1434
25161W        W41422  17.065  17.931   6.001  0.1492  0.3464 -0.1464
25162W        W41423  16.335  13.335   4.082 -0.1277  0.0018 -0.0796
25163W        W41424   9.033  12.026  12.939 -0.5051  0.2589  0.2045
25164W        W41425   2.470  10.679   1.963 -0.1438  0.0526  0.1119
25165W        W41426  13.321   4.519  16.219  0.1888  0.2166 -0.3895
25166W        W41427  16.877  11.428   5.012 -0.2952 -0.0045  0.0996
25167W        W41428   0.103   5.561  11.642 -0.0683  0.0863 -0.1107
25168W        W41429   0.408  16.716  15.661 -0.1419 -0.0496 -0.1105
25169W        W41430   4.870   4.161   3.209 -0.2682  0.1356 -0.0829
25170W        W41431  11.042   6.890   0.383 -0.2421  0.2845  0.0012
25171W        W41432   4.917   9.629  16.548  0.1992  0.1190 -0.1004
25172W        W41433  14.402  17.106   0.387  0.3353 -0.4717  0.1872
25173W        W41434  17.391   2.867  11.109 -0.1107  0.2062  0.1202
25174W        W41435  14.658  18.008   3.519  0.0391 -0.1480  0.0417
25175W        W41436  13.113  12.664  16.055 -0.2810 -0.1859  0.2936
25176W        W41437   7.330  17.034   3.471 -0.3204  0.0241  0.1399
25177W        W41438  11.447  14.825   5.128 -0.0066 -0.0049 -0.0833
25178W        W41439   9.543  11.969   3.545  0.0681  0.0239  0.1468
25179W        W41440   2.006  15.455   0.052 -0.2528  0.2351  0.1842
25180W        W41441   0.123   9.880   5.183 -0.0336 -0.0213  0.3303
25181W        W41442  12.272   7.014  15.965  0.3865  0.1729  0.1789
25182W        W41443  18.125   2.328   2.838 -0.3092 -0.1585 -0.3356
25183W        W41444  12.632  13.928  11.913  0.0614  0.1956 -0.2985
25184W        W41445  13.180   4.346  11.538 -0.1140 -0.0225  0.0510
25185W        W41446   6.795   3.636  11.546 -0.0106  0.1966 -0.2672
25186W        W41447   8.660  16.964   5.084 -0.1503 -0.0201  0.1046
25187W        W41448   7.471  11.070  12.354 -0.0630  0.4685 -0.1315
25188W        W41449   2.207   2.378   4.118  0.0553 -0.2583 -0.2598
25189W        W41450   6.206  17.972   3.607 -0.0710  0.2784 -0.0414
25190W        W41451  10.480  14.099   2.027  0.0593  0.1715 -0.0414
25191W        W41452   6.206   3.553   1.183 -0.0587 -0.2895  0.0241
25192W        W41453   1.550  13.865   0.328 -0.0859  0.1610 -0.0496
25193W        W41454  15.059   0.088   3.536 -0.0883  0.1376 -0.0333
25194W        W41455  10.589  15.192  15.637 -0.0446 -0.1285 -0.2778
25195W        W41456  17.671  17.605   5.968  0.4167  0.1876  0.1033
25196W        W41457  11.138   8.232  13.077 -0.0216 -0.2150 -0.3999
25197W        W41458  17.071  13.602   5.174 -0.2659  0.0819 -0.2365
25198W        W41459  10.516   7.400   1.956 -0.1724 -0.0926  0.0523
25199W        W41460   0.485  11.131   5.012  0.2432  0.1596 -0.0123
25200W        W41461   5.993   5.017  15.494  0.0104  0.0890  0.2012
25201W        W41462  16.055  17.002   3.692  0.1866  0.1804  0.2362
25202W        W41463   5.422  13.044   0.732  0.0578 -0.0223 -0.0326
25203W        W41464   5.130   2.793   4.937  0.1097  0.2712 -0.2868
25204W        W41465  16.495   1.968  15.446  0.0724  0.1786 -0.0022
25205W        W41466   0.883  13.704  16.629  0.6882 -0.0788 -0.2707
25206W        W41467   8.522  17.351  12.398 -0.0259 -0.3495  0.4350
25207W        W41468   1.825   7.756  15.775 -0.1327  0.4463  0.2017
25208W        W41469   4.166   7.547   5.447  0.1120 -0.1002  0.3284
25209W        W41470   6.058  16.565   1.272 -0.0468  0.0092  0.0492
25210W        W41471   0.551  13.389   2.253  0.1150 -0.1445  0.2013
25211W        W41472   4.044  10.505  16.408 -0.2409  0.1736 -0.0121
25212W        W41473  14.692   3.286   0.303 -0.2525 -0.1316  0.2282
25213W        W41474   6.899  14.566  13.664 -0.1275 -0.1196  0.0362
25214W        W41475   9.723  16.030  14.682 -0.1723  0.1180 -0.1196
25215W        W41476   4.406  12.931   1.061  0.0760 -0.0517 -0.2744
25216W        W41477   0.445  15.642  13.336 -0.0653 -0.3439 -0.0962
25217W        W41478   2.902   5.808  13.989  0.0837  0.3047  0.1289
25218W        W41479  14.099   1.334   4.672  0.1661 -0.2210 -0.4257
25219W        W41480   3.832  12.236  14.800 -0.0308  0.0322 -0.0600
25220W        W41481  12.095   8.441   3.311 -0.2209 -0.3832 -0.3252
25221W        W41482   6.389   1.723   0.247  0.2036  0.0558 -0.0666
25222W        W41483   8.899   0.237   3.536 -0.2048 -0.0030  0.0990
25223W        W41484   8.786  12.487  11.879 -0.3582 -0.1140 -0.1306
25224W        W41485  15.090  15.183   2.714  0.0960 -0.2311  0.1659
25225W        W41486   4.236   5.323  15.833  0.2645  0.1371 -0.0923
25226W        W41487  11.471   7.175  14.531 -0.1266 -0.1123  0.0508
25227W        W41488   7.653   4.846   2.435  0.0787  0.0607  0.0135
25228W        W41489   9.798   7.374  15.004 -0.0925  0.3237  0.4062
25229W        W41490   4.524   0.735   4.737  0.0051 -0.0244 -0.1993
25230W        W41491  12.523  12.779   5.326 -0.0602  0.1635 -0.3367
25231W        W41492  13.287  14.623  11.892 -0.0423  0.2486 -0.2678
25232W        W41493   0.009   9.984   0.820 -0.1787 -0.3381 -0.0160
25233W        W41494  15.869   8.394  14.132  0.2114  0.2334 -0.0490
25234W        W41495   4.474  16.758  12.683 -0.0788  0.2425 -0.0157
25235W        W41496  11.815   4.696   0.231 -0.0032 -0.3319 -0.1520
25236W        W41497   7.549  11.661  15.002 -0.0935  0.1631 -0.0141
25237W        W41498   7.054  11.058   1.543 -0.1871  0.3703 -0.1784
25238W        W41499   1.998   8.339   0.529 -0.0747  0.0042 -0.2790
25239W        W41500   1.078  12.865  12.499  0.0810  0.2450 -0.2061
25240W        W41501   5.915   8.842   0.384  0.2214 -0.1080 -0.3833
25241W        W41502   8.068  17.840  16.078 -0.0689 -0.5792 -0.2304
25242W        W41503   1.905   8.348   4.858 -0.2259  0.2081  0.2227
25243W        W41504   3.997   6.245  15.047 -0.3241  0.0682 -0.0424
25244W        W41505  13.081   4.626  14.633 -0.0209  0.0754  0.2470
25245W        W41506   7.846  13.710   0.770  0.0050  0.0138  0.0561
25246W        W41507  14.516   6.111  16.549  0.0823  0.0951 -0.2923
25247W        W41508  15.505  16.676   2.878  0.0804  0.0502  0.0489
25248W        W41509  10.002   1.716  13.881 -0.0032  0.2478 -0.0461
25249W        W41510   3.947   8.829  15.709 -0.0636 -0.2360 -0.2165
25250W        W41511  17.687  18.111  14.091  0.0039  0.0863 -0.3730
25251W        W41512  11.615  17.592   4.877  0.0981  0.0591 -0.0419
25252W        W41513  15.023   6.615  13.870  0.0476 -0.2540 -0.1612
25253W        W41514  10.977  11.749   0.302 -0.1405  0.2553 -0.0594
25254W        W41515  17.087   7.634  12.381 -0.1969 -0.0213 -0.3530
25255W        W41516  11.681  14.682   5.993 -0.3363 -0.3599 -0.3241
25256W        W41517  16.450  17.084  13.963 -0.1212  0.0597 -0.1432
25257W        W41518   7.295   6.331  13.072  0.2478 -0.0711  0.3128
25258W        W41519   0.689  14.606   1.181  0.0131 -0.0281 -0.0504
25259W        W41520  10.093   5.919   0.654 -0.2393 -0.0674  0.2094
25260W        W41521   5.171  17.772   0.821 -0.2647 -0.3495  0.1757
25261W        W41522   3.500   8.463   3.995 -0.1931 -0.2170  0.0537
25262W        W41523  10.707   4.000   0.785 -0.1607 -0.4517  0.0060
25263W        W41524   2.765  11.730  13.074  0.1605  0.4077 -0.0538
25264W        W41525   7.476   8.024   5.218  0.2059  0.1484 -0.0816
25265W        W41526   2.271   3.996   0.372 -0.4614  0.0007  0.0050
25266W        W41527  16.210   4.129   2.996  0.2172  0.3537 -0.1756
25267W        W41528  12.918  10.316  11.540 -0.1341 -0.2385 -0.0504
25268W        W41529   9.794   4.497   3.800 -0.0022 -0.0981  0.1725
25269W        W41530  14.650   7.884  14.162 -0.0554  0.0218  0.0946
25270W        W41531  15.398   0.804   2.378 -0.0718  0.2035 -0.2739
25271W        W41532   9.088  15.234   0.447 -0.0900  0.1778 -0.0577
25272W        W41533  15.012   3.163  12.873  0.1193  0.2117  0.3092
25273W        W41534  11.944  14.529   0.250  0.0059 -0.2153  0.0520
25274W        W41535   0.477   6.463  11.533  0.1510 -0.0518  0.0640
25275W        W41536   0.874   2.700  12.178 -0.5000  0.1155 -0.1601
25276W        W41537   7.409   3.482   3.877  0.1489  0.2816 -0.1617
25277W        W41538   4.670   6.027   1.823 -0.2592  0.1863 -0.5452
25278W        W41539   3.129  12.282   4.211  0.0558  0.1370  0.0154
25279W        W41540   7.660   5.894   3.244 -0.0647 -0.0040 -0.5272
25280W        W41541   9.254  14.947  15.477  0.2414 -0.0120 -0.2589
25281W        W41542   2.338  15.558  15.260 -0.2520  0.0151  0.1288
25282W        W41543   1.441   1.943   3.105 -0.0754  0.2536  0.0728
25283W        W41544  15.317   2.594  11.658 -0.1075  0.0265  0.1492
25284W        W41545  17.280   5.776   5.896  0.0417  0.0773 -0.0959
25285W        W41546   7.058  12.429   5.111  0.3132 -0.0548  0.2303
25286W        W41547   5.935  10.207   4.436  0.2508 -0.0594  0.0372
25287W        W41548   9.257   3.933  11.677  0.0674  0.1019  0.2660
25288W        W41549  16.849   1.859  12.028 -0.0052  0.0978 -0.0939
25289W        W41550   7.846   1.844  15.348 -0.1037  0.2254  0.1516
25290W        W41551   7.581  10.921  14.365  0.3790  0.0111  0.0981
25291W        W41552   6.518  13.591   0.934  0.1778 -0.0737 -0.3745
25292W        W41553  14.524   6.798   1.719  0.1213  0.0262 -0.0849
25293W        W41554   3.890   4.163  11.334 -0.1523  0.1650  0.2919
25294W        W41555   7.918  16.320  12.159 -0.1775  0.3170 -0.0172
25295W        W41556   8.566   6.533  11.996 -0.1671 -0.1356 -0.0708
25296W        W41557  13.648   3.438  15.552 -0.1539  0.0565  0.1953
25297W        W41558   7.539  17.327   0.283 -0.1698 -0.4500  0.0238
25298W        W41559   8.412  13.214   2.415 -0.0715 -0.0202 -0.1283
25299W        W41560   4.072  16.590   3.952 -0.0789  0.0922  0.2698
25300W        W41561   6.072   2.709  12.175  0.2080  0.0513  0.0601
25301W        W41562  17.998   3.313   1.958  0.1829  0.0610 -0.1143
25302W        W41563  13.300  16.297   5.069 -0.1346 -0.0803 -0.0435
25303W        W41564  14.234   5.386  11.419  0.1586 -0.0221 -0.1573
25304W        W41565  15.146   2.899  13.682  0.1706  0.3626 -0.2098
25305W        W41566   8.986  14.690  12.261 -0.1938  0.3297 -0.2566
25306W        W41567   3.323   5.975  14.951  0.3741 -0.2310  0.2493
25307W        W41568   9.045  12.074  11.499 -0.1441  0.0901 -0.0708
25308W        W41569   9.335   9.597  12.535  0.0659  0.0309 -0.2477
25309W        W41570   4.006   1.073   5.085 -0.4776 -0.0552 -0.0026
25310W        W41571   2.958   4.707  13.492  0.0594 -0.0069 -0.1437
25311W        W41572  13.710   1.661  13.126  0.0855  0.1338  0.0181
25312W        W41573   2.790   5.321   4.181 -0.0971 -0.1483  0.2902
25313W        W41574  15.982   5.046  11.814  0.0358  0.1409 -0.0199
25314W        W41575   9.766  11.229   0.756 -0.3677 -0.0589 -0.0108
25315W        W41576  10.382  11.817  16.229  0.1230 -0.3150  0.0001
25316W        W41577   9.985   0.780   4.842 -0.1498 -0.0224 -0.1398
25317W        W41578  14.392   5.999  12.911 -0.2153 -0.0477 -0.1769
25318W        W41579   5.101   0.604  11.350 -0.1051 -0.2471  0.0473
25319W        W41580   8.383  11.273  12.690  0.1517  0.0519 -0.1496
25320W        W41581  15.609   0.167   1.744 -0.0183  0.1008 -0.0519
25321W        W41582   4.950  17.174   4.635 -0.1793  0.0125  0.1064
25322W        W41583   9.109   9.117   2.145  0.0601  0.1094  0.0807
25323W        W41584   4.436  16.301  14.797  0.1086 -0.0641 -0.0755
25324W        W41585   5.736  12.478  16.519  0.3602  0.2217 -0.0795
25325W        W41586  17.688   0.535  14.719  0.3332  0.0167 -0.2122
25326W        W41587   4.066  16.655   0.625 -0.1625  0.0597 -0.0161
25327W        W41588   8.701   9.851   4.901  0.2824 -0.2698  0.3442
25328W        W41589  17.452   4.427   3.293  0.1587  0.1103 -0.3441
25329W        W41590  12.414   7.441   3.057  0.0373 -0.2580  0.1416
25330W        W41591  13.730  11.212  16.383  0.1001  0.5510 -0.0557
25331W        W41592  11.873  15.144   1.053  0.1438 -0.1298 -0.1455
25332W        W41593   9.945  17.710  16.320 -0.0166 -0.1293  0.0568
25333W        W41594  16.632  13.510  12.671 -0.1461 -0.4161 -0.1115
25334W        W41595  11.539   2.301   2.498 -0.0587 -0.0414  0.0133
25335W        W41596  16.267   0.410   5.095 -0.1570  0.0683 -0.0222
25336W        W41597  15.039  15.658  12.792  0.1878 -0.0771  0.1455
25337W        W41598  18.024   1.700   2.561  0.2566 -0.1254 -0.2111
25338W        W41599  16.160   9.740  14.976 -0.1006  0.0012 -0.0821
25339W        W41600  18.088   3.798  13.631 -0.0147 -0.0541  0.2353
25340W        W41601  15.601   9.332   3.014 -0.2035  0.0344 -0.3802
25341W        W41602   3.302   2.315   4.976  0.1712  0.2805  0.3774
25342W        W41603  14.149   1.141  12.070 -0.2247 -0.3628  0.2076
25343W        W41604  11.617   8.035   3.458  0.1023 -0.2852 -0.1238
25344W        W41605  12.569   5.689   3.750  0.2145  0.0429  0.2867
25345W        W41606  12.607  12.383  11.565 -0.2893  0.1281 -0.0150
25346W        W41607   8.905   4.793   1.920 -0.0078 -0.4009 -0.1331
25347W        W41608   0.666  16.422  12.376  0.1405 -0.1485 -0.0447
25348W        W41609  10.712  12.073  11.495 -0.0990 -0.3027 -0.1177
25349W        W41610   6.214  14.402  11.062  0.0606  0.0255  0.0295
25350W        W41611   7.781  13.586   2.392  0.1129 -0.1550 -0.0431
25351W        W41612   8.383   8.864   0.267  0.0643  0.0967 -0.1278
25352W        W41613  10.587   3.825   2.932  0.0041 -0.1573 -0.1474
25353W        W41614   9.207   8.915  15.316 -0.0351 -0.2099 -0.0240
25354W        W41615   2.492   7.488  13.444 -0.0473 -0.2643  0.0247
25355W        W41616  10.375   1.035   4.550  0.4611  0.3682  0.0097
25356W        W41617   1.564  12.221  15.545  0.2040 -0.0639  0.2286
25357W        W41618  10.367  13.422   5.532  0.1806  0.0921  0.0714
25358W        W41619   8.301   4.425   4.818 -0.1563 -0.5814 -0.1628
25359W        W41620  15.217  18.120  11.771 -0.0257 -0.0604 -0.1637
25360W        W41621  10.063  11.409  15.110  0.0133 -0.1163  0.0824
25361W        W41622   4.405  12.886   4.003 -0.0158 -0.1688 -0.0936
25362W        W41623  13.523   1.943   0.765 -0.0781 -0.1525  0.1475
25363W        W41624  12.825   8.873   2.909  0.1124  0.1005 -0.2156
25364W        W41625  15.238  12.089   1.095 -0.0390 -0.1904 -0.3010
25365W        W41626  11.238  14.614  11.737 -0.0272 -0.0075  0.0406
25366W        W41627  11.555  10.486  15.733  0.0356  0.2964  0.1455
25367W        W41628   1.284  16.554   4.849 -0.2697  0.2947 -0.1357
25368W        W41629  14.115   7.892  12.378 -0.1557  0.0340  0.0929
25369W        W41630   3.531  14.699   3.004 -0.1015  0.1727 -0.0218
25370W        W41631  17.812   2.969  13.398 -0.1958  0.1942 -0.1071
25371W        W41632  11.946  14.924   5.098  0.0365 -0.0810  0.0250
25372W        W41633   4.172   3.577   3.372 -0.0432 -0.1210  0.2549
25373W        W41634   0.430   7.876  12.655  0.1152  0.1860  0.1821
25374W        W41635   9.234   4.646   3.312 -0.0925  0.3424  0.0427
25375W        W41636  11.012   8.129   3.889 -0.1310  0.1221  0.3029
25376W        W41637   1.635  17.814   6.328 -0.0699  0.1187  0.1119
25377W        W41638  17.482   5.548  16.492 -0.1533 -0.0142  0.2492
25378W        W41639   2.479  10.689   2.609 -0.0557 -0.2358 -0.2300
25379W        W41640  11.347   0.874  13.895  0.0621 -0.3268  0.0383
25380W        W41641  12.915  14.375  14.850  0.0896 -0.2307 -0.0554
25381W        W41642  14.880  10.126  16.569 -0.2318  0.1195 -0.0985
25382W        W41643   7.819   7.461  16.272  0.0313 -0.2475  0.0128
25383W        W41644  10.913  11.151  16.090  0.1914  0.0017  0.1423
25384W        W41645  16.412   2.078  12.353  0.3119  0.0274  0.0345
25385W        W41646   6.555   7.287   1.728  0.0005  0.1013 -0.0842
25386W        W41647  17.156  12.772   4.040 -0.1133 -0.4743  0.1454
25387W        W41648  11.311   6.009  15.834  0.0826  0.1123 -0.1844
25388W        W41649   6.396   7.361  13.094 -0.2249  0.0229 -0.1069
25389W        W41650   1.727   6.518   5.308  0.2261 -0.0135 -0.0026
25390W        W41651   7.501   8.041  13.864 -0.0302 -0.2132 -0.1083
25391W        W41652   7.989  16.054   4.663  0.0136  0.0793 -0.0803
25392W        W41653   3.557  12.213   2.344  0.0951 -0.0356  0.0206
25393W        W41654   6.917   6.227  11.996 -0.0267 -0.1061  0.2305
25394W        W41655   8.848   7.213   3.928 -0.0986  0.3373 -0.0111
25395W        W41656  13.998   6.762  13.282 -0.0727 -0.2286 -0.2186
25396W        W41657   1.348   1.928   0.799  0.3074 -0.1903 -0.2165
25397W        W41658   2.102   0.959  12.650  0.1046  0.0711 -0.1382
25398W        W41659  12.935   0.110  16.023  0.1133 -0.1638  0.1373
25399W        W41660  13.757  15.758   0.271  0.0926  0.1473 -0.1231
25400W        W41661   3.570  10.140   0.603 -0.2394 -0.0823 -0.1437
25401W        W41662   1.971   6.204   2.386 -0.1599  0.0710 -0.2081
25402W        W41663  16.951  15.691  14.949 -0.3059  0.0645 -0.0014
25403W        W41664   0.558   8.483  15.873  0.0679  0.0911  0.1784
25404W        W41665   1.430   1.519   1.192 -0.1775 -0.0707  0.1625
25405W        W41666  15.323   5.884   4.445  0.2708  0.2330 -0.0194
25406W        W41667  14.805  18.081   0.397 -0.0073  0.3128 -0.3047
25407W        W41668  15.218  15.578   2.355 -0.2018 -0.0902  0.3369
25408W        W41669   4.775   6.762  13.612  0.0462  0.5096  0.1798
25409W        W41670   5.896  11.549   0.898 -0.0402 -0.0021  0.3193
25410W        W41671   0.041   4.523   1.519  0.0711 -0.1961 -0.5409
25411W        W41672   9.128   1.102   2.855 -0.0841 -0.0429 -0.1863
25412W        W41673   9.367   9.931  16.243 -0.0941 -0.0475 -0.0729
25413W        W41674   5.124   4.880   3.663  0.0404 -0.0778  0.1180
25414W        W41675   1.629  17.601  14.567 -0.0314 -0.0480  0.1050
25415W        W41676   7.252   9.207  15.688 -0.0510 -0.0790 -0.1688
25416W        W41677  12.763   7.515  15.817 -0.1488  0.2966 -0.0665
25417W        W41678   7.007  17.340   5.432 -0.3470 -0.1808  0.1132
25418W        W41679   9.673  17.444   4.782 -0.2168  0.2307 -0.0068
25419W        W41680  14.939  11.062   2.550 -0.1337 -0.1057 -0.1625
25420W        W41681  15.750  11.925  15.730 -0.2256  0.1758  0.1229
25421W        W41682   1.145   5.151   3.616  0.0172  0.1359 -0.1830
25422W        W41683  14.432  12.531  13.559 -0.0333 -0.2257 -0.0130
25423W        W41684  15.197  12.702  11.436  0.0615  0.1832  0.2310
25424W        W41685   2.245   4.997  14.021 -0.1418 -0.1830 -0.2332
25425W        W41686   1.608  13.479   1.259 -0.0486 -0.0608  0.1162
25426W        W41687  12.370   6.232   3.637  0.1261 -0.5970  0.3301
25427W        W41688   8.649  10.111  16.319  0.0006  0.1340  0.0608
25428W        W41689   5.232   4.330   4.290 -0.3428 -0.3143 -0.0689
25429W        W41690  18.029   1.461  16.461 -0.0510  0.1773 -0.2159
25430W        W41691  17.604  12.813  11.616 -0.2015  0.0061  0.0213
25431W        W41692   6.017  13.384   4.004 -0.2432  0.2478  0.3487
25432W        W41693   8.200   3.125   1.318 -0.3912  0.2582  0.0580
25433W        W41694   1.472  12.756   4.167 -0.1063  0.1138  0.0439
25434W        W41695   5.515   1.907  14.225 -0.0951  0.1460 -0.0022
25435W        W41696  13.692   5.154  14.006 -0.0794 -0.1461 -0.2673
25436W        W41697   4.036   8.146   1.035  0.2015  0.2243 -0.3094
25437W        W41698  11.164  17.800  16.090 -0.1244  0.2843 -0.1327
25438W        W41699   3.837  11.200   2.747 -0.2812 -0.0156  0.5645
25439W        W41700  10.654   1.790  14.537 -0.0878  0.3701  0.3829
25440W        W41701   1.688   6.030   1.606  0.0780  0.0865  0.1069
25441W        W41702  17.192  12.921   0.824  0.1135 -0.1596 -0.0992
25442W        W41703   5.158  15.140   2.723 -0.0641  0.0026  0.0943
25443W        W41704  17.047   2.037  14.799 -0.3131  0.0739  0.1099
25444W        W41705  11.207  13.456   3.537  0.0242 -0.3871 -0.0086
25445W        W41706  16.905   9.913  13.287 -0.1726 -0.1640 -0.0712
25446W        W41707   4.888  10.111  15.158  0.1296  0.0233 -0.1743
25447W        W41708   1.379   0.178   1.679 -0.0204  0.0843 -0.0457
25448W        W41709   7.248   5.525   2.102  0.0299 -0.1763  0.0490
25449W        W41710  16.153  12.201  15.932  0.1414 -0.2044  0.2490
25450W        W41711   3.620  13.532  14.298  0.3486  0.2357  0.1127
25451W        W41712   7.327   1.707  15.686 -0.0584  0.1589 -0.0968
25452W        W41713   5.685  18.027  13.551 -0.1186  0.1426 -0.2011
25453W        W41714  17.441  14.932   3.542 -0.2016  0.3663 -0.0391
25454W        W41715  11.634   2.555   0.668  0.0569 -0.0683 -0.0812
25455W        W41716  15.427   8.620   5.578 -0.2983  0.1297  0.0975
25456W        W41717  10.092   9.280  14.824 -0.0658  0.0194 -0.2743
25457W        W41718  12.969   5.257   0.249  0.1682 -0.0931 -0.2590
25458W        W41719  17.918  10.808  13.849  0.1507  0.0790 -0.1362
25459W        W41720   6.862   6.116   4.305 -0.0362  0.2364  0.0434
25460W        W41721  17.696   0.029  12.842  0.1634  0.1007  0.1867
25461W        W41722  10.607   7.055  13.714 -0.0874 -0.1124  0.2776
25462W        W41723   8.651  10.733  14.261  0.1971 -0.4565  0.1701
25463W        W41724  16.319   4.648   1.243  0.2474 -0.2154  0.0020
25464W        W41725  10.757  17.797  16.432  0.0416 -0.3355  0.3838
25465W        W41726  13.782  12.247   3.040 -0.1550 -0.1481  0.3542
25466W        W41727   5.813  17.030   4.853  0.0758  0.0025 -0.2685
25467W        W41728  12.367   4.157  10.751 -0.0570  0.2672 -0.0324
25468W        W41729   9.521  12.354   5.034 -0.1904 -0.1464 -0.1026
25469W        W41730  10.103  12.689   0.726  0.1397 -0.3260 -0.0652
25470W        W41731   7.178  16.459  15.738  0.2394 -0.0476  0.0647
25471W        W41732   4.545  12.865   2.422 -0.0447  0.2520 -0.0574
25472W        W41733   1.036  17.928  11.984 -0.5351 -0.1414  0.0737
25473W        W41734   0.894   8.613   3.616 -0.0381  0.2907 -0.0383
25474W        W41735  12.102   4.309   2.143 -0.2085  0.0532  0.1168
25475W        W41736   1.462   3.716   0.573  0.1657  0.2656  0.0310
25476W        W41737  12.282  12.867  11.697  0.5705 -0.0892  0.4816
25477W        W41738   5.292  11.281   1.570 -0.0305 -0.0887 -0.1531
25478W        W41739  16.573   8.159  13.713  0.3148 -0.0059 -0.0604
25479W        W41740  18.048   3.632   2.740  0.2583  0.0914 -0.1713
25480W        W41741   1.477   3.441   5.959 -0.0516  0.3842 -0.3351
25481W        W41742   3.193  17.252   0.510 -0.1675 -0.1173 -0.1027
25482W        W41743   3.171   6.574   0.560 -0.0204  0.2320 -0.3735
25483W        W41744   5.686  12.585  15.328 -0.3931 -0.2419 -0.2514
25484W        W41745   9.372  15.397  15.600  0.0344  0.2489 -0.0466
25485W        W41746  15.328   4.125   1.197 -0.0958  0.1301 -0.3124
25486W        W41747   5.210   1.374   4.473  0.2573  0.0490 -0.2974
25487W        W41748  17.567   3.438  12.753 -0.0075  0.0536 -0.0046
25488W        W41749   9.353   6.401   3.393  0.2640 -0.1365  0.0190
25489W        W41750   1.709  15.750   5.478  0.2553 -0.0138 -0.2026
25490W        W41751   4.824   3.123  13.484 -0.2573  0.0913  0.1118
25491W        W41752   1.624  10.425  13.421  0.1025  0.1702  0.0118
25492W        W41753  11.276   3.493  11.152 -0.2394 -0.0473 -0.1627
25493W        W41754  10.288   9.670  15.900 -0.0115 -0.0886 -0.3957
25494W        W41755   9.661  16.251  15.695  0.3985 -0.0589  0.0853
25495W        W41756  14.528   2.352   5.639  0.1414  0.2556  0.0387
25496W        W41757  11.947   0.630   2.594 -0.0981  0.0665 -0.2169
25497W        W41758   8.308   2.005   1.668 -0.2599 -0.0178  0.0552
25498W        W41759   8.583   5.884   1.390  0.0455  0.1120  0.1279
25499W        W41760   9.560  13.739  15.570  0.2599 -0.2288  0.3218
25500W        W41761  12.301  14.828  11.900  0.1019  0.0894  0.1979
25501W        W41762  12.332   1.544  14.350  0.1458 -0.0106 -0.0229
25502W        W41763   4.142   9.649  15.721  0.0378  0.0304 -0.1173
25503W        W41764  17.608  15.540  12.461  0.1559 -0.0065  0.1879
25504W        W41765  16.602   1.983   1.196 -0.0368 -0.4132 -0.0465
25505W        W41766   8.242  15.485   5.164  0.0176 -0.3473  0.0937
25506W        W41767   3.273   9.341   3.609  0.1766 -0.2998 -0.0217
25507W        W41768  13.011  14.024   1.663  0.0862  0.1169 -0.1137
25508W        W41769  17.293  14.215   2.012 -0.0693  0.3412 -0.4990
25509W        W41770   9.524  15.581   3.975 -0.0425 -0.0450 -0.0395
25510W        W41771  17.437   8.096   3.728  0.0629 -0.3123  0.1176
25511W        W41772   9.612  11.216  11.372  0.1364  0.0688  0.1532
25512W        W41773   7.963   8.326   3.943 -0.1273 -0.0576 -0.0436
25513W        W41774  14.086  11.786   0.622  0.0679 -0.0409 -0.3493
25514W        W41775  14.112   7.975  14.602 -0.0886  0.0568 -0.0914
25515W        W41776   6.116  12.639  11.638  0.0384  0.3210  0.1742
25516W        W41777  11.689   4.443   1.879 -0.0440 -0.2630  0.3416
25517W        W41778   0.425  16.876   4.145 -0.2413  0.2202 -0.1416
25518W        W41779  10.242   2.073  14.637  0.2429  0.1187 -0.0240
25519W        W41780  11.525  17.539  15.218  0.0808 -0.1217  0.0760
25520W        W41781   4.911   8.776  13.478 -0.1911  0.0006 -0.0915
25521W        W41782  13.789  17.251  15.814  0.1076  0.1124 -0.2741
25522W        W41783   0.890   3.409   7.050  0.0653 -0.1357 -0.2088
25523W        W41784   9.706  11.183  16.561 -0.2158  0.3107 -0.1358
25524W        W41785  16.225  11.992   1.706  0.0096  0.1853 -0.1424
25525W        W41786   1.873  12.949   0.439 -0.1306  0.1547  0.1023
25526W        W41787   9.488  10.837   0.433 -0.0505 -0.0389 -0.1458
25527W        W41788  14.902   9.308   0.648 -0.0150  0.1986 -0.3315
25528W        W41789  16.843  15.007   1.442 -0.4327  0.1293 -0.0907
25529W        W41790   0.276   7.964   1.636 -0.1173  0.0209  0.1989
25530W        W41791  11.871   3.358   5.533  0.1647  0.4528 -0.1096
25531W        W41792   4.999  17.185  15.044  0.1914  0.2177  0.0839
25532W        W41793  11.009   2.053   3.293 -0.1077  0.4282 -0.0690
25533W        W41794  10.650   1.226   3.911  0.0034 -0.0695 -0.1567
25534W        W41795   4.651   3.834  14.021  0.2216  0.1666 -0.3243
25535W        W41796  15.843   1.274   5.142  0.2951  0.2728  0.2177
25536W        W41797  18.018  15.163   4.399 -0.1151  0.1347 -0.1706
25537W        W41798  14.232   8.891  11.773  0.2796  0.2162 -0.0180
25538W        W41799  17.438   4.237  15.945 -0.0734 -0.1604 -0.3921
25539W        W41800   0.915  14.770   4.789  0.4741  0.3748 -0.4191
25540W        W41801  12.428   2.527  14.327  0.3621 -0.0975  0.0627
25541W        W41802  10.822  14.836   1.199  0.0986  0.0545 -0.2646
25542W        W41803  11.086   2.725  15.333 -0.2774  0.0917  0.2473
25543W        W41804   5.427  13.833  14.080  0.2294  0.0330 -0.0680
25544W        W41805   6.985  10.009   1.420 -0.1213  0.0004 -0.0769
25545W        W41806   8.472   8.006   0.205 -0.1044  0.1385 -0.2041
25546W        W41807  15.361  10.645   4.827 -0.1097 -0.0453  0.0333
25547W        W41808   2.168   6.775   1.836  0.0251  0.1712 -0.0474
25548W        W41809  13.927  10.834  11.851 -0.1012  0.0487 -0.1544
25549W        W41810   8.907  16.238   3.069  0.1022 -0.1634 -0.1032
25550W        W41811  17.267   9.793   0.628  0.2875 -0.1068 -0.1397
25551W        W41812   1.555  10.573  12.441  0.2374  0.0803 -0.2753
25552W        W41813  10.894  12.837   1.412 -0.1422 -0.3413 -0.3643
25553W        W41814  16.254   5.225  11.407 -0.1027 -0.2136 -0.1545
25554W        W41815   2.380   1.137   3.649  0.2178  0.3811  0.1837
25555W        W41816   7.124  12.863   0.793  0.0335 -0.0727 -0.0152
25556W        W41817  17.690  10.318   3.585  0.0478  0.0812  0.2549
25557W        W41818  10.995  13.670   6.269 -0.1431  0.0028  0.2009
25558W        W41819  14.406  11.550   0.907  0.1105 -0.0457 -0.0533
25559W        W41820  17.634   4.406  16.372 -0.0893  0.0505  0.0623
25560W        W41821   2.775  14.069   3.515  0.1370  0.3175 -0.3999
25561W        W41822   5.765  11.047   3.367  0.0318 -0.0162  0.1180
25562W        W41823   8.956  14.547  14.961  0.1673 -0.1980  0.2630
25563W        W41824  10.831  13.336  13.079  0.0705  0.1177 -0.0300
25564W        W41825   5.804   4.650   1.744  0.0416  0.0461  0.0873
25565W        W41826   1.698  14.805  14.930  0.1201 -0.4157  0.2476
25566W        W41827  14.514   1.892  13.848  0.4229 -0.0572 -0.1522
25567W        W41828   0.054   0.537   0.791  0.0926  0.0136 -0.1135
25568W        W41829  10.412  11.013   1.919 -0.0981  0.2733 -0.1843
25569W        W41830   8.039   4.547   1.640 -0.0549 -0.2016 -0.2158
25570W        W41831  14.186   4.664   1.114 -0.1524  0.1458  0.2525
25571W        W41832  16.530   3.919   3.355  0.2735  0.0118  0.1093
25572W        W41833   3.714   5.359   5.947  0.2613 -0.0623  0.0900
25573W        W41834   6.481  16.762  14.376 -0.1155  0.3662 -0.1489
25574W        W41835   6.507   2.870  12.008  0.4324  0.1201  0.1399
25575W        W41836   3.166   2.192   1.055  0.1293 -0.3237 -0.0156
25576W        W41837  14.386  16.960   4.896  0.2113 -0.0129  0.1980
25577W        W41838   9.215   1.483   1.514  0.1792  0.0838 -0.4097
25578W        W41839  13.069  14.753   1.604  0.0218  0.2225  0.2474
25579W        W41840   5.691  12.430   4.429  0.1541 -0.1389  0.1460
25580W        W41841  11.237  10.308   0.740  0.1081 -0.1900  0.0792
25581W        W41842   2.854   4.854   2.554 -0.2490  0.2593 -0.1074
25582W        W41843   3.677  15.970  13.674 -0.5326  0.0507 -0.0496
25583W        W41844   3.331   7.420   0.289 -0.1324 -0.2685  0.0721
25584W        W41845  10.670   1.442   0.552  0.2696 -0.4255 -0.3234
25585W        W41846   2.422   3.760   2.019 -0.0284  0.0187  0.0020
25586W        W41847   9.536   9.006   0.060 -0.0572  0.2955  0.1793
25587W        W41848  10.006   9.111  12.371  0.2534  0.1485  0.3862
25588W        W41849  13.140  11.173   0.698 -0.3566 -0.0780 -0.0548
25589W        W41850   1.903   1.619   1.188 -0.2176  0.1750  0.1052
25590W        W41851  15.319   9.533   3.439 -0.1507  0.3669  0.0631
25591W        W41852  10.209   8.882   4.289 -0.0677  0.1102 -0.0043
25592W        W41853   0.956  16.577  12.833  0.1962 -0.4730 -0.2746
25593W        W41854  15.597   7.055   3.113 -0.2095  0.3240 -0.1669
25594W        W41855   5.374   7.623   4.175 -0.0092  0.0645  0.0646
25595W        W41856  16.134   4.697   5.204  0.0959  0.0659 -0.2306
25596W        W41857  16.648   5.313   4.680 -0.0288 -0.4835  0.0708
25597W        W41858  14.638  17.046   3.882  0.3028  0.4484  0.0501
25598W        W41859   6.840  16.204   5.248 -0.1998 -0.1981 -0.0625
25599W        W41860  17.069  13.075   3.597  0.2694  0.1002  0.1522
25600W        W41861   6.387   8.157  15.823  0.3162  0.1662 -0.3913
25601W        W41862   9.787  10.785  11.515  0.2536  0.0829 -0.1270
25602W        W41863  15.006   8.301  12.280  0.0001 -0.1654 -0.0705
25603W        W41864  13.402  14.635   5.585 -0.0614  0.0623  0.3699
25604W        W41865  15.928  17.829  13.014 -0.0432  0.0295 -0.2352
25605W        W41866   7.346  16.483  12.225 -0.1008  0.0116 -0.3852
25606W        W41867   0.056   3.738   2.235 -0.1211 -0.0664 -0.1895
25607W        W41868  13.982   3.110   2.014  0.2693  0.0181 -0.1400
25608W        W41869  10.192   6.521  11.147  0.3640 -0.3369  0.0367
25609W        W41870  10.782  14.447  15.125 -0.2178 -0.1241  0.5656
25610W        W41871   1.244   5.917  12.367 -0.2153 -0.1538  0.2096
25611W        W41872  10.051   4.625   4.228  0.0099  0.0378  0.2121
25612W        W41873  13.916   0.003  10.270  0.1085 -0.3263  0.0425
25613W        W41874  17.507   3.791   4.724  0.1126  0.0810 -0.0392
25614W        W41875  14.308   1.466  13.756 -0.2404  0.1260 -0.1427
25615W        W41876   1.424   8.322   4.856 -0.1628 -0.2079  0.2466
25616W        W41877  14.054   8.765  13.895  0.0898  0.0067  0.1916
25617W        W41878   0.679  17.539   2.121  0.1866 -0.0068 -0.1385
25618W        W41879  13.746  10.514   0.648 -0.1931  0.0311  0.0604
25619W        W41880  11.140   8.565   0.854  0.0667  0.0792 -0.2051
25620W        W41881   7.679   7.115  15.416 -0.3359  0.0689 -0.3392
25621W        W41882   5.667   0.942  14.972  0.1522  0.0755  0.2411
25622W        W41883  14.295   8.988   3.321 -0.0474 -0.0576 -0.0853
25623W        W41884   3.301   5.617   4.857  0.0819 -0.1178  0.0148
25624W        W41885  17.639   3.613   3.257 -0.1398 -0.0590  0.0346
25625W        W41886   3.648   7.408   4.496  0.0956  0.2201 -0.0337
25626W        W41887   8.560  15.897   3.618 -0.2109 -0.1956  0.2446
25627W        W41888  10.340   8.955   3.347 -0.0851  0.1886  0.0209
25628W        W41889  10.628   5.734   2.228 -0.0273 -0.0684  0.0776
25629W        W41890   3.296  17.508   6.340  0.0135  0.0679 -0.1141
25630W        W41891   7.425  13.827  15.702  0.2795 -0.1085 -0.0643
25631W        W41892  15.707   0.878   3.367  0.1335 -0.1904  0.2252
25632W        W41893   7.979   8.116   5.114 -0.0726  0.2419  0.0020
25633W        W41894   2.771   1.126   4.673 -0.1494  0.2237 -0.0158
25634W        W41895  12.230   6.788   3.875  0.0766 -0.1677  0.0772
25635W        W41896   8.508   8.225   2.065 -0.0889  0.0976  0.2916
25636W        W41897  13.173   9.053   4.915 -0.3715  0.0682  0.1980
25637W        W41898  11.033   8.698  13.876  0.2067  0.1657 -0.0312
25638W        W41899   8.019  10.016  12.563 -0.2082 -0.3077  0.0632
25639W        W41900  17.038  12.522   3.477  0.0534  0.4974  0.0619
25640W        W41901   4.669   1.188   0.969 -0.1634  0.1680  0.1069
25641W        W41902   6.930   0.926   5.827 -0.1983  0.1359 -0.3813
25642W        W41903   0.631  11.285   4.297 -0.1220  0.3429 -0.0165
25643W        W41904  12.127  16.332   5.247 -0.2692 -0.3070  0.1773
25644W        W41905  13.710   4.603  12.585  0.1607 -0.3141 -0.1833
25645W        W41906  11.752   3.571  11.444  0.0147 -0.3187  0.1448
25646W        W41907  13.731  11.760  14.465 -0.1739 -0.2277  0.2822
25647W        W41908   8.822   0.388   4.475 -0.0366 -0.1242 -0.2017
25648W        W41909   2.216  15.884  16.359  0.0758  0.1014  0.0068
25649W        W41910   7.221   7.348   0.134  0.1100  0.1297 -0.0988
25650W        W41911   4.050   0.273   4.108  0.1452  0.0158 -0.1864
25651W        W41912  14.787   3.188   3.224 -0.0842  0.2352 -0.2234
25652W        W41913   1.674   3.939   5.830 -0.2873  0.3317 -0.2071
25653W        W41914  13.771   5.231   0.538 -0.2273 -0.0796 -0.2205
25654W        W41915   9.562   0.380  16.343 -0.2562 -0.0281 -0.1107
25655W        W41916   6.190  17.324  15.577  0.0167  0.0250  0.1963
25656W        W41917  12.785   7.065  11.807 -0.0506  0.2344 -0.0511
25657W        W41918  14.199   9.803  13.876 -0.0089  0.1308  0.1346
25658W        W41919   5.602   6.133   6.319  0.1562  0.1176 -0.2512
25659W        W41920  13.301   9.654   1.382  0.1860  0.3087  0.0191
25660W        W41921   2.575  15.862   3.444  0.0623  0.1802  0.0307
25661W        W41922   0.179  13.211  16.263  0.2597  0.1402  0.0952
25662W        W41923  12.507  13.855   1.500 -0.0198 -0.0070 -0.1330
25663W        W41924   1.490   4.985   0.671 -0.2532 -0.0408 -0.1886
25664W        W41925   7.958   0.090   1.160  0.1185  0.2441 -0.1272
25665W        W41926   2.397   1.675  15.585 -0.0785 -0.3046 -0.1251
25666W        W41927   3.042   4.282   1.274  0.0201  0.2044  0.0336
25667W        W41928   5.307   7.459   0.930 -0.0339  0.2390 -0.1842
25668W        W41929   9.861  17.209  16.371  0.2210  0.0527 -0.1501
25669W        W41930   3.627   2.321   4.042  0.1464 -0.2183  0.2871
25670W        W41931  17.988  15.952  13.328 -0.2980  0.0238  0.1405
25671W        W41932   3.655  12.467  11.819 -0.3161  0.1700 -0.0180
25672W        W41933   3.418  10.853  13.537 -0.0494 -0.1021 -0.0280
25673W        W41934   7.020   6.766   5.026  0.0096  0.1879 -0.0190
25674W        W41935  14.610   0.725  12.719 -0.1365  0.3414 -0.0068
25675W        W41936   9.710   8.647   2.556  0.1094 -0.3033 -0.1969
25676W        W41937   5.903   0.890   5.081  0.0816 -0.1336  0.6273
25677W        W41938  17.595   9.821  15.824 -0.2612  0.0412 -0.0096
25678W        W41939  14.794  13.811   2.902  0.0993  0.1671  0.1151
25679W        W41940   5.792  15.880   3.529 -0.2449  0.2056 -0.0799
25680W        W41941   0.104   0.039  16.240  0.1293 -0.0494 -0.1814
25681W        W41942  12.132   2.217   1.377 -0.0708 -0.0966 -0.1551
25682W        W41943  12.692   3.643   2.812  0.0890 -0.1369  0.1099
25683W        W41944   5.884   4.051   3.972  0.1351  0.0573  0.0592
25684W        W41945  15.893   5.218   0.618 -0.0077  0.1762  0.0930
25685W        W41946   8.966  14.391   0.177 -0.3548 -0.0591 -0.1780
25686W        W41947  12.436   8.651  11.949  0.1541  0.1479 -0.1524
25687W        W41948   1.744   6.057   5.082  0.0137  0.1732  0.0075
25688W        W41949   8.034   0.545  14.992 -0.0811 -0.3195  0.0469
25689W        W41950  16.236   2.658   2.357  0.0128  0.2328 -0.0599
25690W        W41951  17.480  12.879  13.989  0.5012  0.2611 -0.1971
25691W        W41952  12.850   2.299  14.547  0.1830 -0.3317  0.0049
25692W        W41953  16.260  10.932  15.495 -0.4610  0.3053  0.0867
25693W        W41954  17.205  10.341   3.394 -0.0987  0.1146 -0.1229
25694W        W41955   8.534   6.591   0.266 -0.2762 -0.1467  0.1953
25695W        W41956   0.969   4.515   4.272 -0.0226  0.2264  0.1082
25696W        W41957   2.819   8.529  16.002 -0.0939  0.0198 -0.0718
25697W        W41958  14.001   0.889   4.317 -0.1099 -0.1440 -0.1704
25698W        W41959   8.329   5.191  14.779  0.3268 -0.2340  0.3534
25699W        W41960   3.586  17.864  16.503  0.1297  0.0980 -0.0378
25700W        W41961   1.947  10.409   6.139  0.3475 -0.2098  0.0038
25701W        W41962  14.476  16.366   2.823 -0.0272  0.0049  0.2498
25702W        W41963   3.744   0.738   3.865 -0.3103  0.2322  0.2350
25703W        W41964  11.435   4.989  16.260 -0.0470  0.0196  0.1074
25704W        W41965   6.826   4.155  13.916 -0.1809  0.2346  0.2797
25705W        W41966  12.209   2.826   4.953 -0.3310 -0.0017  0.0737
25706W        W41967   3.009  12.937  10.763 -0.4014  0.0029 -0.0647
25707W        W41968   6.327   1.187  15.221 -0.1602 -0.0047 -0.2198
25708W        W41969   2.241   8.439  14.184  0.2852  0.0372  0.3885
25709W        W41970  12.694   9.673   0.377 -0.0254  0.2107 -0.0893
25710W        W41971   8.397   8.873   3.308 -0.1899 -0.2419  0.0178
25711W        W41972  10.944   2.530   4.127 -0.0397 -0.0609 -0.1692
25712W        W41973  10.041   5.933   3.583  0.3947  0.4483 -0.3169
25713W        W41974  16.032  18.160  12.273  0.2549  0.2256 -0.0722
25714W        W41975   5.294  11.436   1.116  0.0840 -0.0004 -0.2223
25715W        W41976   1.039  16.182   5.168 -0.1574  0.0668 -0.0983
25716W        W41977   2.555   7.930  14.117 -0.0824  0.1180  0.3619
25717W        W41978  14.056   8.859   0.524  0.0730  0.1382 -0.2078
25718W        W41979  11.372  15.487  15.006  0.1810 -0.2251 -0.2115
25719W        W41980   2.552   7.512  15.407 -0.0727  0.3615 -0.0369
25720W        W41981   9.404  17.374   3.879 -0.1985 -0.3648 -0.0307
25721W        W41982   3.948   0.529  13.780 -0.2044 -0.2230  0.0745
25722W        W41983   4.109   1.250   5.879 -0.2238 -0.0348  0.4586
25723W        W41984   5.407  10.304   1.389  0.1199  0.0022 -0.1070
25724W        W41985   1.474  11.860  11.440  0.2650  0.1529  0.1120
25725W        W41986  15.371   5.694   0.024  0.1765  0.1406 -0.5332
25726W        W41987   8.633  17.229   0.644 -0.0450  0.2078 -0.0743
25727W        W41988  12.341   1.845   4.029  0.1306  0.3832 -0.0046
25728W        W41989   8.474   9.414   5.521 -0.2408 -0.1182 -0.1409
25729W        W41990   1.509  14.917  14.072  0.2911  0.1530 -0.0085
25730W        W41991   2.019  10.029   1.458  0.2299  0.1225 -0.1311
25731W        W41992  12.206  12.143   0.365  0.1194  0.1925  0.4022
25732W        W41993  12.979  10.111   0.196 -0.1131  0.0769  0.0532
25733W        W41994   0.669   7.171  13.431 -0.1371  0.1237 -0.2577
25734W        W41995   5.477  14.600   0.046  0.0256  0.2582 -0.1474
25735W        W41996  12.976   0.894   5.744  0.3085 -0.4237  0.1032
25736W        W41997  13.823  15.259  13.150  0.1826 -0.1524  0.1899
25737W        W41998   2.770   5.790   6.759  0.2017 -0.0050  0.1704
25738W        W41999  16.674  17.959   0.737 -0.0821  0.0128 -0.0980
25739W        W42000  15.360   5.135  14.434 -0.1665 -0.0348  0.1007
25740W        W42001   4.038  15.849   4.286 -0.1889 -0.0579  0.0731
25741W        W42002   2.485  13.120  12.377  0.2401  0.0377 -0.2031
25742W        W42003  11.116  14.687   1.878  0.1147  0.0476  0.0791
25743W        W42004  14.141   8.942   3.831  0.2147  0.0337  0.0005
25744W        W42005   8.144   4.087  14.964 -0.0772  0.1843 -0.2142
25745W        W42006   6.945   0.835   0.667 -0.0462 -0.1048  0.0252
25746W        W42007  16.185   8.055  14.456 -0.0542 -0.0688  0.3881
25747W        W42008  17.504  13.440  16.562 -0.0685 -0.1875  0.2902
25748W        W42009   1.488  13.401   1.901 -0.0583  0.0408 -0.3660
25749W        W42010   7.186   6.666   3.587 -0.0907 -0.3244  0.1678
25750W        W42011   0.564   0.514  11.953  0.2042 -0.3509  0.1521
25751W        W42012   0.412   7.068  14.293 -0.2038 -0.2874 -0.0385
25752W        W42013   2.903   2.165   5.308  0.0554 -0.0035  0.0201
25753W        W42014  12.244  14.620   2.805 -0.1300  0.0045 -0.0110
25754W        W42015  11.053   2.331   0.825  0.0017 -0.3393  0.2177
25755W        W42016   1.793   0.338  16.495  0.0036  0.0820 -0.1195
25756W        W42017   2.965  16.497  12.741 -0.4229  0.1757  0.2835
25757W        W42018   5.913   9.782  13.023 -0.2291  0.2105  0.0664
25758W        W42019   8.014   0.554  14.248  0.0232 -0.1309  0.2033
25759W        W42020   0.376  15.620   2.751  0.4028 -0.2056 -0.0248
25760W        W42021   6.683  16.266   4.396 -0.0520  0.1308  0.4731
25761W        W42022   6.048  10.835   1.402 -0.0155  0.1915  0.0247
25762W        W42023  13.448  11.675   5.340 -0.1946 -0.0833  0.3056
25763W        W42024  14.980   4.137  12.574 -0.0889  0.1965 -0.0176
25764W        W42025   4.433   7.321   1.497  0.0528  0.1049  0.0387
25765W        W42026   2.056  17.455  11.728  0.0207 -0.1532  0.3539
25766W        W42027   0.390  15.282   0.104  0.3021  0.0837  0.1686
25767W        W42028  15.794   7.548  16.355  0.1265  0.6049 -0.0077
25768W        W42029   1.460   0.066  11.751  0.0737  0.1515  0.0824
25769W        W42030   6.093   0.372   2.494 -0.0964 -0.0864  0.2338
25770W        W42031  12.906   0.994  13.336 -0.3242  0.1730  0.4534
25771W        W42032  12.851  15.517   0.538 -0.2114  0.1904  0.0819
25772W        W42033   2.462   0.295  13.834  0.0906  0.0966 -0.1386
25773W        W42034  10.332   1.053   0.760 -0.3114 -0.1362  0.0579
25774W        W42035  11.242   6.095   1.102 -0.1108 -0.2782 -0.1460
25775W        W42036   9.982  11.921   3.291  0.0172 -0.2711 -0.1380
25776W        W42037   9.498   1.221  13.520  0.0060  0.0007 -0.3030
25777W        W42038   1.967   2.179   5.495  0.0732 -0.2355 -0.0976
25778W        W42039  17.569  15.690   1.854 -0.3653 -0.1113  0.0432
25779W        W42040  12.911  17.302   1.555 -0.2351 -0.0599  0.1431
25780W        W42041   7.253  10.463   3.281 -0.0213 -0.0168 -0.1055
25781W        W42042   9.580  15.087  15.025  0.1187 -0.2390  0.0718
25782W        W42043  10.244   0.080  14.109  0.0146  0.2802  0.3237
25783W        W42044  13.322  12.244  12.321  0.3066  0.0306 -0.0722
25784W        W42045   9.176  18.052  13.164  0.4063 -0.1692 -0.2133
25785W        W42046   3.169   1.068  16.251 -0.1952 -0.1949  0.2039
25786W        W42047  12.303  10.853   1.605 -0.1991 -0.0462 -0.0823
25787W        W42048  16.650  11.312  15.730  0.0818 -0.0283 -0.2949
25788W        W42049   2.200   3.481   0.331 -0.2221  0.1871  0.0333
25789W        W42050   7.313  11.916   1.598 -0.1796  0.1037 -0.0407
25790W        W42051   2.021  14.262   1.156 -0.1446 -0.1089  0.0190
25791W        W42052   7.355   1.493   5.691  0.4521 -0.1551 -0.1163
25792W        W42053  13.953   6.859  15.139 -0.1355 -0.1348  0.1565
25793W        W42054  10.564  11.309   0.259 -0.2844  0.1245  0.0146
25794W        W42055  11.469   1.371  12.062  0.0208 -0.0180  0.3022
25795W        W42056  15.513   8.535   3.385 -0.0662 -0.1899  0.0298
25796W        W42057   0.564   6.180   0.930 -0.0208  0.0823  0.1850
25797W        W42058   5.673  11.656  12.215  0.1609  0.1927  0.0333
25798W        W42059  17.372   4.387   0.167 -0.0160 -0.0979  0.1754
25799W        W42060   6.275   7.882  11.286 -0.2313 -0.0806 -0.2695
25800W        W42061   2.147   7.422   1.275  0.3093  0.0503  0.1663
25801W        W42062  15.048   9.288   5.199 -0.1923 -0.0258 -0.1695
25802W        W42063  18.135   1.188   0.172  0.0759  0.1492 -0.4366
25803W        W42064  14.779   2.628  12.735  0.1583  0.2759  0.1522
25804W        W42065   5.057   9.675  16.102 -0.1180  0.1958  0.4370
25805W        W42066   9.265   8.738  16.027 -0.0871 -0.0738  0.2602
25806W        W42067   3.976   5.969   3.190 -0.2013 -0.2154  0.0214
25807W        W42068  15.966   3.481  14.986  0.2743 -0.1210 -0.0717
25808W        W42069   8.306  10.449  16.368  0.1189 -0.2127 -0.2418
25809W        W42070   6.780  17.289   4.552  0.0486 -0.0613 -0.2768
25810W        W42071  14.918   0.665  14.784 -0.0671 -0.0835 -0.3220
25811W        W42072  13.560   6.609  11.806 -0.1184  0.2059 -0.1197
25812W        W42073   0.678  15.466  14.243  0.0909 -0.2539  0.0158
25813W        W42074   1.236   6.844   4.894 -0.1733 -0.0050 -0.2608
25814W        W42075  12.143  15.290  12.134 -0.0319  0.1323 -0.0902
25815W        W42076  11.027  15.114  13.778 -0.2273  0.0560 -0.1510
25816W        W42077   2.934  16.777   0.859  0.0301 -0.0184 -0.0510
25817W        W42078  14.267   9.022  14.705  0.0070  0.2010 -0.1012
25818W        W42079   6.008   4.987   3.571 -0.1953 -0.0562  0.1935
25819W        W42080  17.560  12.398   3.306 -0.0281  0.0995  0.0361
25820W        W42081   3.831  11.793   1.817  0.1378  0.0776  0.0431
25821W        W42082  10.850   3.767   0.169 -0.4003 -0.0240 -0.0845
25822W        W42083  16.000  10.616   1.855 -0.3157  0.1502 -0.1562
25823W        W42084   5.434  10.876   4.048 -0.1092 -0.2827  0.3101
25824W        W42085  16.817   7.453  14.095 -0.1672  0.1560 -0.2237
25825W        W42086  10.527  14.954  12.707  0.1399  0.0249 -0.3218
25826W        W42087  13.704  10.631  12.886  0.0879 -0.0556 -0.1359
25827W        W42088  12.866  15.599  13.296 -0.0080  0.0348  0.4136
25828W        W42089   2.308   9.620   2.145  0.1263 -0.1066 -0.2290
25829W        W42090   6.244  12.543   1.137  0.0841 -0.0687 -0.0287
25830W        W42091   4.471   8.007  16.173 -0.3421 -0.0745  0.1848
25831W        W42092  15.298   8.861   1.358 -0.1143  0.2361 -0.0657
25832W        W42093   0.685  16.204  13.938 -0.2286  0.3140  0.0459
25833W        W42094   2.160   8.616  13.223  0.0544  0.2943  0.0832
25834W        W42095   8.603   8.943  14.444 -0.0277  0.2511  0.2598
25835W        W42096  11.935   1.383  16.472 -0.2495  0.0230  0.1446
25836W        W42097   1.141  16.899  14.126 -0.0539 -0.0986  0.0913
25837W        W42098   9.676   0.803  13.286 -0.1711  0.0925 -0.0485
25838W        W42099   4.496   3.243   2.472 -0.0530  0.0648  0.1731
25839W        W42100  14.395   1.851  14.858  0.0590 -0.1499 -0.4234
25840W        W42101   9.910  14.451  11.093  0.2841  0.0206 -0.0249
25841W        W42102   6.301   0.379   2.007 -0.3377 -0.1234 -0.1841
25842W        W42103  13.808   6.902   1.003 -0.3149 -0.2365 -0.2192
25843W        W42104   4.319  17.377   2.416  0.0491 -0.2183  0.1016
25844W        W42105  14.261  10.179   1.344 -0.2096 -0.1444 -0.0815
25845W        W42106   7.114   9.439  11.613 -0.0708  0.0735 -0.5924
25846W        W42107  15.287   5.875   0.454  0.0864 -0.0617  0.1117
25847W        W42108   4.941   7.910  13.052 -0.2726 -0.2807  0.1342
25848W        W42109   7.095   6.506   4.536  0.0728  0.1220 -0.0341
25849W        W42110  12.177  11.994   0.918 -0.2711  0.1698 -0.3562
25850W        W42111   2.292   2.665   1.345  0.1925  0.1694 -0.2109
25851W        W42112   9.771  10.691   0.068  0.2838  0.0580  0.2189
25852W        W42113   6.127   1.813   3.029  0.2396  0.0505 -0.0346
25853W        W42114   9.881  18.052  13.161 -0.0018  0.2449 -0.2264
25854W        W42115  15.643  10.779  12.523  0.1715 -0.2987  0.3503
25855W        W42116   7.810   3.050  10.279 -0.1307  0.0040 -0.2338
25856W        W42117  13.373  10.214  11.122 -0.1151  0.1238 -0.3196
25857W        W42118   6.277   8.924  13.954 -0.3146  0.2143  0.2805
25858W        W42119   0.496   3.290  12.049 -0.1413  0.1935 -0.0045
25859W        W42120  11.384   3.723  14.084  0.1738 -0.0401 -0.0994
25860W        W42121  16.117   8.044  13.356  0.0373  0.2081  0.2410
25861W        W42122   3.222   7.542  12.803 -0.2211 -0.0251  0.3598
25862W        W42123  15.044   3.301  16.550 -0.1032  0.2778  0.1098
25863W        W42124  12.805   8.057  11.302  0.0204  0.1426 -0.2476
25864W        W42125   8.208  17.420   0.740  0.5388 -0.1279  0.0212
25865W        W42126   4.630  10.846  10.895  0.0732 -0.0788  0.0361
25866W        W42127   8.325   2.167  15.055  0.0599 -0.1552 -0.1324
25867W        W42128  11.756  14.456   5.154  0.0844  0.1277  0.3041
25868W        W42129   8.800   0.599  12.597  0.0499  0.2068 -0.1413
25869W        W42130   0.084   3.989  12.838 -0.1454 -0.1676  0.4296
25870W        W42131   8.022   9.325  12.840 -0.0239 -0.1594 -0.0380
25871W        W42132  16.691   3.489  11.343 -0.2406  0.1240 -0.3358
25872W        W42133   1.560  10.093   5.288 -0.2609  0.0676 -0.0721
25873W        W42134   5.343   3.392  12.674 -0.0027 -0.2162 -0.2147
25874W        W42135  12.620  17.743   4.543  0.0633  0.4258 -0.1875
25875W        W42136   8.072  15.866   0.988 -0.2749  0.2211 -0.0240
25876W        W42137  11.128  13.184   4.473 -0.0448  0.0823  0.3339
25877W        W42138  11.990  12.811   5.592  0.2555 -0.2224 -0.1833
25878W        W42139   6.778   1.238   1.844 -0.1290 -0.0667 -0.0791
25879W        W42140  12.217   8.586   2.054 -0.1863 -0.2808  0.0093
25880W        W42141  13.516  14.382  13.922  0.0908  0.0653 -0.2178
25881W        W42142  17.610  11.264   0.549  0.1970  0.1895  0.1741
25882W        W42143   1.037   0.819  16.071  0.0875 -0.1453 -0.0070
25883W        W42144   3.300  16.136  13.396 -0.0749 -0.0327 -0.1174
25884W        W42145   4.324   1.225  14.251  0.0477  0.0968 -0.1439
25885W        W42146  16.298   0.891  16.480 -0.0008 -0.2046 -0.1560
25886W        W42147  17.461   7.289   3.566  0.0398 -0.0814  0.0468
25887W        W42148  10.318   0.364   5.080  0.0358  0.1193  0.2084
25888W        W42149  17.777   3.747  13.055 -0.0578 -0.0624  0.0599
25889W        W42150   3.767  13.424   6.197  0.0870 -0.0394  0.1563
25890W        W42151   7.791   4.826  14.697  0.0190 -0.1949 -0.2354
25891W        W42152   3.927   9.616  12.628 -0.2241  0.2353 -0.0702
25892W        W42153   9.080  14.960   2.730 -0.2101 -0.0259  0.3088
25893W        W42154  11.852  10.817  15.478 -0.0163  0.2378  0.2169
25894W        W42155   1.985  13.769   1.040 -0.2717 -0.1702 -0.0825
25895W        W42156  13.917   2.672   0.411 -0.2420  0.5178  0.0631
25896W        W42157  10.104   2.788   2.573 -0.1737 -0.2812  0.0480
25897W        W42158   1.714  10.712   2.484  0.2059 -0.0569 -0.0430
25898W        W42159   9.081  16.099  12.066  0.1698  0.2154 -0.1137
25899W        W42160  16.561   6.921   0.965  0.1602 -0.1645 -0.1168
25900W        W42161   2.755   4.545   5.924 -0.3197  0.0623  0.2012
25901W        W42162  14.760   4.257   4.064 -0.0193 -0.0499  0.0780
25902W        W42163  11.163  12.773  12.386 -0.0438  0.5055 -0.0680
25903W        W42164  13.088   8.179   2.229  0.3718 -0.0345 -0.2863
25904W        W42165  13.518  11.670   4.820  0.1213 -0.2038 -0.2279
25905W        W42166  14.087   8.962  13.010 -0.2995 -0.0953  0.1165
25906W        W42167  15.962   8.087   0.047  0.0730 -0.0861 -0.3554
25907W        W42168  16.789  13.839   3.361  0.1912 -0.2209  0.2612
25908W        W42169  10.813   3.402   2.740 -0.1889 -0.1368 -0.0667
25909W        W42170   6.247  15.250  14.471  0.0787  0.1647  0.1142
25910W        W42171   7.973  18.035   4.833 -0.2465 -0.2364 -0.1387
25911W        W42172   0.704  13.531  14.727  0.2579 -0.3895 -0.0672
25912W        W42173  13.187   5.036   3.473 -0.1507 -0.2569 -0.1247
25913W        W42174  12.242  15.719   1.901  0.0672 -0.2523  0.4013
25914W        W42175   9.175  15.462   6.312 -0.0937 -0.3145 -0.1310
25915W        W42176  16.340  11.879   1.280 -0.3226  0.0237 -0.0524
25916W        W42177  12.798   2.798  14.599  0.1832 -0.1787  0.0056
25917W        W42178   6.693  11.200   3.181 -0.0140 -0.0391 -0.0018
25918W        W42179  10.019  12.238   4.159 -0.1644 -0.0347  0.1067
25919W        W42180   7.274  10.301  10.764 -0.1577 -0.1544  0.1506
25920W        W42181   8.797  14.140   0.636 -0.1292 -0.1183  0.0891
25921W        W42182  15.653  14.271  16.339 -0.0368  0.5292  0.0433
25922W        W42183   3.138   3.418   4.201 -0.0808  0.3391  0.0835
25923W        W42184  17.276   1.636   6.030  0.2237  0.2480  0.0497
25924W        W42185   0.942  15.662   4.411 -0.2848  0.0917  0.1639
25925W        W42186   3.682   0.378   1.479 -0.1829  0.1810  0.1060
25926W        W42187   4.393   2.888  16.160 -0.3659 -0.1979 -0.1577
25927W        W42188   0.065   4.997  14.977 -0.2743 -0.2261  0.1873
25928W        W42189  14.007  11.548   4.585  0.1253 -0.0528 -0.1083
25929W        W42190  12.884   0.449   4.026 -0.0026 -0.1173 -0.3110
25930W        W42191   6.761  11.309   4.083 -0.2729 -0.0897  0.0782
25931W        W42192  11.537   0.608  12.499  0.2346 -0.5027 -0.2685
25932W        W42193   5.165  15.274   1.431  0.0918  0.1116 -0.0454
25933W        W42194   1.963  11.060   5.499  0.1479 -0.1506 -0.1683
25934W        W42195   5.159   0.014  16.522 -0.2161  0.1132  0.0086
25935W        W42196   1.482  14.263  13.986 -0.1223  0.0523 -0.3005
25936W        W42197   3.797  13.867   5.867 -0.1599 -0.2859 -0.3837
25937W        W42198   9.747   9.462   0.361 -0.0444 -0.2126 -0.1044
25938W        W42199   3.072   6.942   1.532  0.1779 -0.0412 -0.0033
25939W        W42200  10.985   4.155   4.519  0.1653 -0.0482  0.1030
25940W        W42201  13.503   1.799   1.353  0.0233 -0.0457 -0.0982
25941W        W42202  18.112  17.762  12.819 -0.2532  0.2396 -0.3668
25942W        W42203  10.582  10.849   3.670 -0.1527 -0.1427 -0.1539
25943W        W42204   0.718   4.595  13.094  0.0458 -0.0661 -0.0483
25944W        W42205   0.735   9.138   2.801 -0.0671 -0.0573  0.0700
25945W        W42206   3.281   3.772   2.178  0.0186  0.2279 -0.5105
25946W        W42207   1.677   6.539  14.509 -0.1090 -0.1949 -0.1140
25947W        W42208  11.058   8.947  12.057  0.0685  0.0495  0.2973
25948W        W42209   1.863  10.451   3.110  0.0731  0.2395  0.3560
25949W        W42210  12.952  10.253   0.758 -0.0588 -0.1281  0.1734
25950W        W42211   0.347   9.772  14.958 -0.2601  0.1317 -0.0068
25951W        W42212   2.824   1.286  15.844 -0.2163 -0.2378 -0.0062
25952W        W42213  10.568   9.421  14.556 -0.0099 -0.3648  0.0952
25953W        W42214  15.691  16.324  12.490 -0.1102 -0.2099 -0.0995
25954W        W42215  12.741   9.740   5.131  0.5803 -0.3838 -0.1942
25955W        W42216  16.380   8.232  16.342 -0.1650  0.1584  0.3515
25956W        W42217  13.816   8.056  15.553  0.0912 -0.0212 -0.2738
25957W        W42218   6.631  17.046   0.704  0.2840  0.1956  0.0250
25958W        W42219   3.142  12.296   3.733  0.1714  0.1837  0.2250
25959W        W42220   1.535  16.976   4.421 -0.0367  0.1290  0.2576
25960W        W42221   6.395  14.642  12.658  0.2581  0.3734 -0.1358
25961W        W42222  14.027  12.893  13.174 -0.1115  0.0557 -0.0404
25962W        W42223   6.733  12.156  14.842  0.0530  0.0209 -0.1125
25963W        W42224  12.734   6.830   4.812 -0.1400  0.3265 -0.0480
25964W        W42225   6.943   2.399   5.749 -0.0182  0.2097  0.0435
25965W        W42226   8.717  18.028   2.850  0.2809 -0.0613  0.1788
25966W        W42227   6.142  16.290   4.692 -0.1245 -0.1229  0.1125
25967W        W42228   9.213   4.251   3.753 -0.1151 -0.1743 -0.0076
25968W        W42229  15.826   2.351   4.867 -0.0287 -0.2503  0.3670
25969W        W42230   1.192   3.507  14.288  0.1614  0.1166 -0.1593
25970W        W42231   2.169  12.006   2.235  0.1454 -0.2219 -0.2914
25971W        W42232   0.373  17.260  12.537 -0.0158 -0.1873 -0.0057
25972W        W42233  10.775   5.924  13.762  0.3345  0.0852 -0.0194
25973W        W42234  12.291  17.432   0.933  0.0069  0.2485 -0.1360
25974W        W42235   0.969   8.415   2.390 -0.4261 -0.0818 -0.3857
25975W        W42236   5.936   7.152   0.073 -0.0042  0.2366 -0.0830
25976W        W42237   7.920  16.433   0.644 -0.1533  0.0825 -0.1586
25977W        W42238  11.194  17.520  11.789 -0.3003  0.3195  0.0863
25978W        W42239   0.172  12.173  13.160  0.0453 -0.2267 -0.0674
25979W        W42240  10.490   3.190   2.123 -0.0235  0.0816 -0.1862
25980W        W42241  17.360   8.118   5.525 -0.1466 -0.2502 -0.0022
25981W        W42242   1.640   2.578  14.354 -0.1781  0.2048  0.0513
25982W        W42243   6.222  13.846  14.048  0.1158 -0.1876  0.1299
25983W        W42244  14.187  15.177  11.372 -0.1204  0.1540 -0.0904
25984W        W42245   6.831   3.352   1.794 -0.0007  0.2763  0.2254
25985W        W42246   6.918   6.343   1.800  0.0557 -0.1176  0.0512
25986W        W42247  11.085   2.665  14.496 -0.1526 -0.0027  0.0609
25987W        W42248   8.672  10.411   5.836  0.0279  0.0263 -0.1860
25988W        W42249   9.549   4.005   0.987  0.2256 -0.3050 -0.2920
25989W        W42250  10.793   0.706  15.865 -0.1811  0.5263 -0.3596
25990W        W42251  16.801   9.532  10.337  0.4407 -0.0538 -0.0553
25991W        W42252  13.574   1.727   3.985 -0.1218  0.1791 -0.0190
25992W        W42253  16.752   6.801   4.013 -0.1866 -0.0674 -0.1448
25993W        W42254   1.757   1.531  12.152 -0.1799 -0.1425  0.0048
25994W        W42255  17.413   3.117   1.903 -0.1553 -0.0932 -0.0822
25995W        W42256   5.381   9.475  13.743 -0.3369 -0.4273 -0.1069
25996W        W42257  15.534   2.593  15.416 -0.2717  0.2973 -0.1180
25997W        W42258   3.598  10.926  13.039  0.0927  0.0146  0.2112
25998W        W42259   4.089  17.979  14.696  0.2749  0.1147 -0.0744
25999W        W42260  17.673  15.856   5.720 -0.0163  0.0967  0.0759
26000W        W42261  17.442   7.614   5.674 -0.0563  0.0972 -0.2918
26001W        W42262   1.651  12.030   0.333  0.3414 -0.0204 -0.0193
26002W        W42263  16.815   7.831   4.228 -0.3122 -0.1182  0.3366
26003W        W42264   2.181  10.357   4.062  0.2542  0.1208 -0.0745
26004W        W42265   3.899   9.816  15.143  0.0309 -0.1543  0.0444
26005W        W42266  10.584   6.857   0.738  0.1402  0.0039 -0.1724
26006W        W42267  11.573   6.104   4.682  0.1457  0.1658 -0.0052
26007W        W42268   6.885   1.749   3.879  0.1701 -0.2233  0.0793
26008W        W42269   3.595  15.256   2.858 -0.1987  0.3090 -0.1559
26009W        W42270  11.993   7.540  16.078 -0.0228 -0.0111 -0.0466
26010W        W42271   5.615   8.979  15.179 -0.0907  0.0587  0.0630
26011W        W42272   6.381   5.050  15.066 -0.0339 -0.2290  0.1105
26012W        W42273   7.693   4.804   2.905 -0.1360 -0.0758 -0.0595
26013W        W42274   0.309  14.518   1.501  0.0256  0.2007  0.1506
26014W        W42275   5.005  11.861  13.566 -0.4212  0.2474 -0.2168
26015W        W42276  15.945  11.989  13.643  0.0587 -0.1285 -0.3091
26016W        W42277  16.562  15.487   2.482 -0.1239 -0.0371  0.0875
26017W        W42278  11.815   2.747  12.451  0.3226 -0.1776 -0.3003
26018W        W42279   0.842   3.834  12.625  0.3092  0.3724 -0.1857
26019W        W42280  13.989  11.640  12.322  0.0309  0.0883 -0.2613
26020W        W42281   1.177  17.435  15.256 -0.0934  0.2284  0.0142
26021W        W42282  11.883  13.396  12.220  0.0579 -0.1975  0.0827
26022W        W42283   3.831   7.998   3.234  0.1179  0.4051  0.2285
26023W        W42284   8.205  14.762  12.881 -0.2118 -0.1546  0.2285
26024W        W42285   5.923  16.397   5.249  0.1622  0.1356  0.3144
26025W        W42286   3.803  17.546  14.677 -0.1597 -0.2758  0.2458
26026W        W42287  17.665  16.005   0.561  0.3687  0.2089  0.2664
26027W        W42288   9.959   0.754   2.154 -0.0970 -0.1492  0.3567
26028W        W42289  10.188   5.481  14.756  0.1838 -0.0374  0.1536
26029W        W42290  15.885  14.867  15.139 -0.2146 -0.0458  0.1833
26030W        W42291   8.271  10.017   1.978 -0.1657 -0.2330 -0.0459
26031W        W42292  14.366  10.722  11.553 -0.1087  0.1449  0.0972
26032W        W42293   2.146  12.380  12.772 -0.0389 -0.1459 -0.1799
26033W        W42294   5.549  15.533  11.980 -0.0092  0.4278  0.1569
26034W        W42295  13.280   4.452  12.462  0.4015  0.0863 -0.1001
26035W        W42296   8.387  17.523  13.623 -0.2517  0.0081 -0.0003
26036W        W42297   4.602  13.102  13.346  0.0792 -0.3381 -0.0721
26037W        W42298   9.819  15.162  13.046  0.2005  0.0605  0.2728
26038W        W42299  13.926  12.036  15.195  0.0078 -0.0635  0.1433
26039W        W42300   0.451  15.502   1.762 -0.2115  0.1848  0.0386
26040W        W42301  15.106  17.724   2.753  0.1559  0.1246 -0.0975
26041W        W42302  14.668  17.225  16.419 -0.1391  0.1010 -0.3251
26042W        W42303  15.556   4.766  11.612  0.2216 -0.2007 -0.0976
26043W        W42304  10.502  10.969  16.323  0.0919  0.0871 -0.0636
26044W        W42305   8.746  11.896   4.100 -0.3020 -0.1167 -0.0538
26045W        W42306  17.099  12.979  15.022 -0.1390 -0.3772 -0.2740
26046W        W42307   7.439   1.326  11.886  0.2582 -0.1986 -0.0683
26047W        W42308  14.929   0.194  14.943 -0.4101  0.0609 -0.0044
26048W        W42309  16.405   1.126   3.786 -0.0368 -0.1267 -0.7177
26049W        W42310  15.898   8.303  12.279  0.1427 -0.3928  0.0050
26050W        W42311  17.995   5.657   3.266  0.1999  0.2158  0.0189
26051W        W42312  15.971   9.627   1.742 -0.3078  0.2142  0.0810
26052W        W42313  11.633   0.753   3.007 -0.0288 -0.3842  0.1305
26053W        W42314   8.455  17.242   1.098 -0.1596 -0.0956 -0.3241
26054W        W42315   5.903  13.537   3.516 -0.1918 -0.0483 -0.3470
26055W        W42316  12.711  15.208   3.967 -0.1011  0.0350  0.1881
26056W        W42317  17.520   8.535  14.026 -0.0383 -0.0095  0.0051
26057W        W42318   3.892   1.708   1.548  0.1507 -0.2267  0.2132
26058W        W42319  16.310  15.885   2.762  0.1876  0.0117 -0.0487
26059W        W42320   0.760  13.044   1.820  0.0077  0.0787  0.1832
26060W        W42321   0.573  10.571  15.651 -0.0683  0.0026  0.0895
26061W        W42322   3.008   3.287   2.980  0.2899  0.2565 -0.1512
26062W        W42323   2.670  13.165   1.333  0.0224  0.3073 -0.0042
26063W        W42324   4.674   4.131   0.452  0.0136  0.0899 -0.0878
26064W        W42325  17.497   0.791  10.710 -0.0255 -0.0718 -0.2069
26065W        W42326  15.610   3.688   1.844 -0.1170 -0.1057  0.1077
26066W        W42327   8.783  13.310  16.489  0.2816  0.1859  0.3404
26067W        W42328  13.273  13.058  13.961  0.0640  0.1726 -0.1635
26068W        W42329  12.571   5.933   3.295  0.0222  0.3390 -0.0684
26069W        W42330  15.488   9.353   2.555 -0.0567  0.3411 -0.2552
26070W        W42331   1.770  15.907  15.187 -0.2234  0.0631  0.1664
26071W        W42332  10.325  13.291  12.820  0.3273 -0.1265 -0.0675
26072W        W42333   7.867  14.244  13.651 -0.1255  0.1682 -0.1623
26073W        W42334   0.779   5.410   2.151  0.1343  0.3150  0.1708
26074W        W42335   9.212  18.135  15.116 -0.1157 -0.3551 -0.0737
26075W        W42336  16.777   8.331   0.584 -0.1752  0.3581  0.4999
26076W        W42337   1.273  10.040  12.714 -0.0060  0.0771  0.1337
26077W        W42338   8.068  15.196  15.057 -0.1111  0.0838  0.0945
26078W        W42339   5.993   3.634   3.391  0.2543  0.1118  0.0086
26079W        W42340  15.579   6.192   0.798  0.1398 -0.1700  0.1151
26080W        W42341  17.263   6.943   0.570 -0.2184  0.1158 -0.1379
26081W        W42342  18.059  16.799  16.613 -0.0787  0.1320  0.1081
26082W        W42343   8.523  11.618  12.113 -0.0319  0.1032  0.0257
26083W        W42344   4.178   1.597  16.165  0.1306  0.0774 -0.0087
26084W        W42345   4.439   0.860   2.395 -0.0901  0.4656  0.0599
26085W        W42346   2.246   4.434  15.186  0.3388 -0.0575 -0.2184
26086W        W42347  13.526   3.705  12.105 -0.2263  0.0960  0.1354
26087W        W42348  15.807  11.961  15.258 -0.3094  0.3477 -0.0901
26088W        W42349  14.068   8.915   1.054  0.1110 -0.1752  0.0273
26089W        W42350  14.332   4.879  11.374  0.0004 -0.0468 -0.3488
26090W        W42351  13.103  14.091   2.720  0.0558  0.0775 -0.0056
26091W        W42352  16.466   1.853   3.025  0.1343 -0.1255 -0.1029
26092W        W42353  17.058  16.743   0.234 -0.2049 -0.3510  0.0642
26093W        W42354  14.898   7.089  13.191 -0.2676  0.4727  0.3082
26094W        W42355  14.437  14.791   1.903  0.2977 -0.0070 -0.3586
26095W        W42356  12.938   6.012  15.538  0.2653 -0.0891  0.0128
26096W        W42357  10.610   5.273  11.072  0.0043 -0.0786 -0.0646
26097W        W42358   4.479  13.786  15.452 -0.0918 -0.0031  0.0410
26098W        W42359  10.443  16.138   2.134 -0.0721  0.0651  0.0323
26099W        W42360   0.300   0.333  15.223 -0.1354  0.1867 -0.0116
26100W        W42361  15.643   0.863   1.919  0.2533 -0.5552 -0.0188
26101W        W42362   4.066  17.244  16.097  0.1248  0.0041  0.2146
26102W        W42363  15.026   7.814   3.426 -0.3152  0.0182 -0.1764
26103W        W42364  14.668   4.490  10.667 -0.2242 -0.0538  0.0225
26104W        W42365   1.737   0.565  15.599  0.0108  0.1561 -0.2944
26105W        W42366   7.835   9.149  15.669 -0.0338 -0.0862  0.2609
26106W        W42367  16.534  10.596   4.804 -0.0308 -0.2831  0.1308
26107W        W42368  12.062  11.455   4.357  0.0900 -0.2724  0.2704
26108W        W42369   2.845   7.782   0.390  0.2322 -0.1037  0.0488
26109W        W42370  14.886  15.470   5.424  0.5614 -0.1279  0.3681
26110W        W42371   3.860  16.708   0.180  0.5935 -0.0439  0.0698
26111W        W42372  11.341   0.242   0.617  0.3953  0.3002 -0.5672
26112W        W42373   2.947  11.213  12.105 -0.0532  0.4862 -0.0959
26113W        W42374  17.833  15.955   6.317  0.0826  0.2146 -0.0057
26114W        W42375   6.293   3.267  15.821  0.1304  0.0586  0.2571
26115W        W42376   5.438   8.615   2.303 -0.3308 -0.1008  0.2029
26116W        W42377  17.307  14.598  12.257 -0.2717  0.2747 -0.2998
26117W        W42378   3.631   3.735   4.369 -0.1196  0.0396  0.1052
26118W        W42379  17.225  14.079   1.557  0.0703  0.0723 -0.1883
26119W        W42380  16.693   9.106   0.679  0.1828  0.1241  0.0995
26120W        W42381   1.890   5.664  16.521 -0.1406  0.0817 -0.2810
26121W        W42382   1.311   8.308   3.031  0.0011  0.0851 -0.0603
26122W        W42383  13.053  14.821  12.550  0.0787 -0.0492  0.1551
26123W        W42384   6.817   8.043   3.628  0.0893  0.1616  0.5092
26124W        W42385  14.217   9.416   2.573 -0.0897  0.3173  0.2802
26125W        W42386   0.385   1.143  13.202  0.0526 -0.1597  0.0625
26126W        W42387  10.416  14.086   3.215  0.1466  0.1197  0.1739
26127W        W42388   0.212  10.915  12.883 -0.0525 -0.0036 -0.2342
26128W        W42389  10.294  13.590   4.728 -0.1203  0.0867 -0.2207
26129W        W42390  11.562   3.065   0.824  0.2805  0.0242  0.3941
26130W        W42391   2.126   1.521   2.852 -0.4011  0.1324 -0.0667
26131W        W42392  16.376  11.343  15.249 -0.1037 -0.1014  0.0071
26132W        W42393  18.032  10.438   2.232  0.2109 -0.1986  0.1928
26133W        W42394   0.457   7.867   0.811  0.3416  0.0263 -0.2193
26134W        W42395  14.676   6.630   0.657 -0.0691  0.0444 -0.0700
26135W        W42396  16.676   6.780  16.105 -0.1131  0.3851 -0.3428
26136W        W42397  12.796  16.309   5.054  0.0846  0.3549  0.2786
26137W        W42398   7.882   9.149  15.197  0.0119  0.3614 -0.4153
26138W        W42399  14.407   7.648   0.890  0.2390 -0.1502  0.1420
26139W        W42400  13.480   1.024   2.564  0.1378  0.0097  0.2125
26140W        W42401   9.488   4.918   4.374 -0.3778  0.1768 -0.0112
26141W        W42402  16.339   1.428   2.841 -0.0158  0.1174 -0.1425
26142W        W42403  17.995   7.337   2.276  0.1295  0.0590  0.0248
26143W        W42404  15.945  14.175   0.927 -0.0932  0.1509 -0.0291
26144W        W42405  17.191   8.461   3.941 -0.0551 -0.0364  0.1023
26145W        W42406   8.462   3.109  14.656 -0.1722  0.0054  0.0124
26146W        W42407  12.004   3.787   0.300  0.0746  0.0032  0.3275
26147W        W42408   8.291   7.471   3.150 -0.1908  0.2789  0.2422
26148W        W42409  12.851  15.946   0.686  0.1009 -0.0009  0.1854
26149W        W42410  14.647   9.278   2.281 -0.0115 -0.0864 -0.1661
26150W        W42411  10.919  12.795   1.950 -0.0983  0.1429  0.6068
26151W        W42412   1.673   1.626   0.560 -0.0655  0.0627 -0.0199
26152W        W42413  10.610   9.526   5.432 -0.0215 -0.1345 -0.5457
26153W        W42414  13.746  14.299  14.769 -0.0595  0.3142  0.1091
26154W        W42415  11.928   9.149  16.106  0.0229  0.3407  0.2942
26155W        W42416   3.600   3.379   2.263 -0.1774  0.3070 -0.0004
26156W        W42417   9.489  10.022  12.252  0.1817 -0.0487 -0.3571
26157W        W42418   5.225   9.937  13.559 -0.3446 -0.1918  0.0818
26158W        W42419   7.255  12.921  15.282  0.3408  0.1127  0.2126
26159W        W42420   1.583   1.164  15.198 -0.1635  0.3150 -0.0500
26160W        W42421  10.607  12.250  15.350 -0.1478 -0.0920  0.0104
26161W        W42422   1.498   9.260   5.196  0.0674  0.1586  0.1991
26162W        W42423   1.889   8.507  13.750  0.1655 -0.3969  0.0057
26163W        W42424  12.609   7.140   3.796 -0.1586  0.1917  0.5276
26164W        W42425  14.562  17.783   0.032  0.1035  0.0041 -0.1215
26165W        W42426  17.826  11.181  15.068 -0.1745  0.0747  0.0892
26166W        W42427  12.129   9.550   1.868  0.1399  0.1590  0.1441
26167W        W42428  12.236   9.362   2.328  0.2466 -0.1245  0.1792
26168W        W42429  15.122  15.357   4.566 -0.1833  0.1406  0.0144
26169W        W42430  17.479  13.313   4.852 -0.0637 -0.0262 -0.1338
26170W        W42431   0.009  12.849  11.181 -0.0609 -0.0936 -0.1222
26171W        W42432   0.432  16.000   4.465 -0.0127 -0.0890  0.0452
26172W        W42433  14.747   5.591  13.005 -0.1633  0.0586  0.0457
26173W        W42434   1.413  14.936  15.380  0.0645 -0.1924 -0.2597
26174W        W42435   6.172  15.370   0.726  0.0734 -0.0087 -0.0365
26175W        W42436   2.547   0.304   5.184 -0.1336  0.1306  0.0032
26176W        W42437   4.275   1.982   0.697 -0.1969  0.1999 -0.4514
26177W        W42438  18.109  12.560   2.972 -0.1950 -0.1992  0.0860
26178W        W42439  13.306   1.837  11.392 -0.2788 -0.0423 -0.0014
26179W        W42440   8.378   4.906  15.671  0.0001 -0.2498  0.1848
26180W        W42441  15.705   6.442  12.248 -0.1553  0.1405  0.1425
26181W        W42442   3.724   8.316  11.627  0.0425 -0.3036  0.1282
26182W        W42443   8.805   9.897  14.897  0.0871  0.2505 -0.1711
26183W        W42444  14.450  16.711  11.201 -0.2252  0.0170  0.2387
26184W        W42445   9.710  10.716   0.871 -0.0977  0.2884 -0.0305
26185W        W42446   7.011  10.232   2.415  0.0949 -0.1066  0.0736
26186W        W42447   7.839  17.223   3.106  0.1761 -0.0937 -0.0035
26187W        W42448   5.781  10.253  15.104 -0.0465 -0.0314 -0.0052
26188W        W42449   2.803   4.054  14.363  0.0430 -0.0726  0.0301
26189W        W42450   5.577   8.166   3.106  0.0218 -0.2065  0.1116
26190W        W42451  17.375   6.096  13.153  0.0009 -0.0725  0.3820
26191W        W42452   8.174   6.785   4.601  0.2108 -0.2476  0.2970
26192W        W42453   4.138  13.302  15.357 -0.2979 -0.0265  0.0531
26193W        W42454  10.203   0.970  12.338  0.1081 -0.2259  0.0687
26194W        W42455  11.885   9.742   1.486  0.0791  0.1379  0.0482
26195W        W42456   2.069   4.521   3.081  0.1302  0.1022 -0.1216
26196W        W42457  10.770  11.469  14.350 -0.2045 -0.1478 -0.2408
26197W        W42458   7.170  13.138  13.823  0.2145  0.0035  0.0905
26198W        W42459  18.065   9.128   4.768 -0.4260  0.1640  0.0831
26199W        W42460  16.466   9.634   1.002 -0.1416 -0.1135  0.1145
26200W        W42461   0.243   8.116  13.169  0.1957 -0.1756 -0.0929
26201W        W42462  15.969  16.688   1.383 -0.0463  0.0042 -0.1876
26202W        W42463  14.491  16.367   2.257 -0.2853 -0.0389  0.2356
26203W        W42464   0.453   6.680   0.871 -0.1801  0.0067 -0.0594
26204W        W42465   8.671  16.719  11.590 -0.3599  0.0954  0.0277
26205W        W42466  14.690  18.016   2.971 -0.0175 -0.3020  0.2181
26206W        W42467  10.796   0.791   4.690  0.1024  0.4098  0.2608
26207W        W42468   0.154   4.153   3.372 -0.1816  0.1967 -0.0408
26208W        W42469  16.798  14.508  11.503  0.2221 -0.2336  0.0384
26209W        W42470  15.960  14.872   1.483 -0.1958 -0.1594 -0.0637
26210W        W42471   9.751   7.639   0.043  0.0823 -0.0256  0.1158
26211W        W42472  10.695  17.877  13.072  0.1306  0.1151 -0.0244
26212W        W42473   5.317   8.590   5.773 -0.3042  0.0315  0.0460
26213W        W42474  14.477   7.389  13.685 -0.0163 -0.2652  0.2152
26214W        W42475   8.926  13.183   3.220 -0.1450  0.1165  0.1139
26215W        W42476   0.873  12.632  14.841  0.4130 -0.1098 -0.3006
26216W        W42477  13.165   7.594  12.576  0.0141 -0.2538 -0.3450
26217W        W42478  17.241   1.222   5.204  0.2183 -0.1868 -0.4048
26218W        W42479   3.429  15.491  14.378 -0.1183 -0.0978  0.0188
26219W        W42480  13.491   3.979  15.543  0.0735 -0.0319 -0.1115
26220W        W42481   8.856  15.224  15.570 -0.1229 -0.0567 -0.2408
26221W        W42482   5.846  11.206   5.290  0.1287 -0.0939  0.2729
26222W        W42483  14.629  13.510   2.463  0.0436 -0.1614  0.1356
26223W        W42484   5.354   3.546   3.601 -0.0703  0.0001  0.1209
26224W        W42485   4.274   3.784   5.153  0.1989  0.1002 -0.2011
26225W        W42486   0.760   0.902  14.691 -0.0426  0.1300  0.2816
26226W        W42487   2.986   3.430   1.936 -0.2462 -0.4186 -0.2043
26227W        W42488  10.501  12.309   0.767 -0.2777  0.1232 -0.0587
26228W        W42489  16.979  15.514   5.926 -0.2009 -0.0517 -0.0658
26229W        W42490  10.962  17.133   0.794 -0.1416 -0.2258  0.3405
26230W        W42491   1.807  11.347  13.148 -0.2296 -0.2365 -0.0241
26231W        W42492   5.092   2.146  14.336  0.0480 -0.1047  0.2571
26232W        W42493   9.773   9.229   3.438 -0.2263 -0.2677 -0.1136
26233W        W42494  10.326  12.063  11.235  0.0766  0.0526  0.4065
26234W        W42495  13.194   7.792  13.548 -0.2276 -0.0298  0.1564
26235W        W42496  10.423   4.013  16.030  0.3215  0.0815 -0.1980
26236W        W42497   1.340  17.036  14.927 -0.1620 -0.0875 -0.0503
26237W        W42498   9.689   8.413  14.585  0.1352  0.0497 -0.2277
26238W        W42499   7.505  13.532   1.965  0.0535  0.1126  0.2257
26239W        W42500  12.253  11.702  14.720 -0.0331 -0.0307  0.1324
26240W        W42501   0.191   5.066  11.622 -0.2245  0.1479  0.4428
26241W        W42502  11.999   1.213   4.652  0.1620 -0.0796  0.0942
26242W        W42503   9.084   0.794   0.972  0.1056  0.1818 -0.1776
26243W        W42504   2.755  11.512   6.143  0.5694 -0.1253 -0.0326
26244W        W42505  11.027  12.973   3.847 -0.1599 -0.1671 -0.0023
26245W        W42506  16.919   5.943  15.742 -0.1941  0.2669 -0.0198
26246W        W42507   7.870   3.665  11.033  0.0181  0.3414  0.0083
26247W        W42508  12.262  16.455  14.797 -0.3586  0.1629 -0.0696
26248W        W42509   8.390   7.458   0.478  0.3293  0.1614  0.3444
26249W        W42510   2.601   2.297   0.263  0.1621  0.1491 -0.2203
26250W        W42511   0.225   8.139  14.795 -0.0961  0.2589  0.1875
26251W        W42512  14.099   1.339   4.151 -0.0087  0.0480  0.0714
26252W        W42513   6.928  13.965  16.619 -0.0054 -0.0693 -0.3529
26253W        W42514   0.633  10.591  12.525 -0.1303 -0.4538  0.2074
26254W        W42515   0.370  17.199  15.266 -0.0816  0.2414 -0.3689
26255W        W42516  12.912   8.625   0.380  0.0422  0.1350 -0.1471
26256W        W42517  16.551  12.722   2.398  0.1352  0.0082  0.2499
26257W        W42518   2.459  17.978  16.221  0.0999  0.2910  0.0258
26258W        W42519  12.908   4.426  16.523  0.0248  0.0665 -0.1665
26259W        W42520   7.883  16.544  11.503 -0.2822 -0.1799 -0.2068
26260W        W42521   6.712  15.768   4.212  0.0114  0.2134  0.1962
26261W        W42522   8.317   9.013  16.424 -0.2863  0.2454  0.2260
26262W        W42523  16.150  15.448   3.005 -0.2668 -0.1810  0.0720
26263W        W42524  14.854   1.224  11.861 -0.0724 -0.0525  0.3408
26264W        W42525  16.667   5.512  12.193  0.1219  0.1677  0.5472
26265W        W42526  15.567   2.857   2.997 -0.0503  0.0012  0.1096
26266W        W42527   7.264   4.985   0.715 -0.2825 -0.3374  0.0450
26267W        W42528  17.397  11.911  13.559  0.1636  0.0423 -0.2881
26268W        W42529   9.540  10.490   3.859 -0.1445  0.2752 -0.3179
26269W        W42530  12.474   4.906   1.386  0.1559  0.2891 -0.0296
26270W        W42531  15.444   9.572   0.559 -0.2071  0.0135 -0.2224
26271W        W42532  13.858  17.808   4.800 -0.1741  0.5561  0.0755
26272W        W42533   0.591   8.729  16.335 -0.1973  0.1571 -0.0878
26273W        W42534  17.775  17.380  15.327 -0.4750 -0.1028  0.1196
26274W        W42535   8.638   6.490  14.202  0.1649  0.1175  0.0606
26275W        W42536   2.272  11.714   0.972  0.0272 -0.0700  0.2056
26276W        W42537  15.353  13.461  13.292 -0.0589  0.1781 -0.1585
26277W        W42538  13.503  12.327   1.697 -0.1203 -0.0411 -0.0861
26278W        W42539   3.989   7.258   0.463  0.2004  0.1107  0.1191
26279W        W42540  12.971  13.091  16.266  0.0756  0.0461  0.1890
26280W        W42541   7.927   4.722  12.161  0.1976  0.0001 -0.0101
26281W        W42542   8.268  11.579   5.177  0.0395  0.2252  0.1701
26282W        W42543   9.315  15.892   6.526  0.0094  0.0755 -0.0640
26283W        W42544   2.654  13.883   1.036 -0.0601 -0.2778 -0.2456
26284W        W42545  11.696   7.226  12.053  0.2777 -0.3001  0.0450
26285W        W42546   7.776  13.942  16.099 -0.4638 -0.0772 -0.4025
26286W        W42547  14.037   4.682  14.665  0.0034  0.0921  0.1809
26287W        W42548   2.049  11.745   5.317  0.2860  0.3476 -0.1713
26288W        W42549  13.550  17.073   4.913 -0.0639  0.0709 -0.2094
26289W        W42550  15.770   9.877   0.243  0.3250  0.1689 -0.1393
26290W        W42551   6.744   0.687   6.185  0.0144  0.2741  0.0241
26291W        W42552   6.126   1.289   6.372  0.2951  0.0893  0.0101
26292W        W42553  12.694  14.962   6.125  0.1342  0.0226  0.1071
26293W        W42554   4.872  16.537  14.570 -0.1648  0.3587 -0.0592
26294W        W42555   4.878  13.803  14.935  0.0847  0.1349  0.0445
26295W        W42556  15.465  15.265  12.777  0.1489  0.1967  0.0364
26296W        W42557  15.149   0.304   5.071 -0.1743  0.2403  0.3106
26297W        W42558  17.391   5.380   5.491 -0.0535  0.0233 -0.2594
26298W        W42559  10.121   8.157  14.490  0.0572 -0.1146 -0.0644
26299W        W42560   9.081  15.601  15.262  0.1942  0.1903 -0.1721
26300W        W42561   8.602  11.368   4.312 -0.3905  0.0695  0.0622
26301W        W42562  14.954  13.807   1.569 -0.4054 -0.0007 -0.6489
26302W        W42563   5.713   3.911  16.395  0.0957 -0.0274 -0.0660
26303W        W42564   1.382   2.475  13.510 -0.3296  0.3454 -0.0480
26304W        W42565   7.644   8.864  12.211 -0.0961 -0.1731 -0.1938
26305W        W42566   0.989   4.743   5.532 -0.2040 -0.2509  0.0336
26306W        W42567  17.621   9.419  14.976  0.1019  0.0019  0.3215
26307W        W42568   7.970   4.202  16.165  0.1549  0.3845  0.2037
26308W        W42569   9.804  15.715  15.777  0.0004 -0.2427 -0.0584
26309W        W42570  17.561   0.241   2.811 -0.0452  0.1778 -0.2013
26310W        W42571   2.913   0.661   1.505  0.1513  0.0383  0.0920
26311W        W42572   6.517  17.919   5.259  0.0052 -0.2471  0.2096
26312W        W42573   9.075  12.861  15.801  0.0931  0.0511  0.1177
26313W        W42574  13.082  12.609   1.868 -0.1395  0.3392 -0.0885
26314W        W42575   3.791  15.577  14.036 -0.0268  0.1049 -0.2041
26315W        W42576   5.681   5.089  12.915 -0.2108  0.0290 -0.2585
26316W        W42577   5.992  10.558  11.689 -0.0494  0.0942  0.1689
26317W        W42578  10.709  14.715  11.742  0.0082 -0.2320  0.1588
26318W        W42579  10.274   7.033  11.359  0.1060  0.1681  0.1561
26319W        W42580   2.792  15.472   2.264  0.0591 -0.1408  0.0179
26320W        W42581  12.878   7.844   3.606 -0.0261 -0.0732  0.0343
26321W        W42582  10.757  10.278  14.672  0.0050 -0.0630  0.0039
26322W        W42583  10.770  17.969   1.728  0.0206 -0.3088  0.0374
26323W        W42584   0.111  17.145  12.076  0.1668  0.1522 -0.0143
26324W        W42585  11.258   4.766   1.879 -0.0944 -0.1713 -0.3482
26325W        W42586   1.754  11.354  14.093  0.1024 -0.2733 -0.1597
26326W        W42587  12.552   2.271  11.306 -0.1595  0.1110 -0.1244
26327W        W42588  12.150   4.411  11.727 -0.0177 -0.0565 -0.1188
26328W        W42589  10.192   0.010  14.584 -0.2401  0.1145 -0.1930
26329W        W42590  12.945   0.855   3.762 -0.2783  0.3427 -0.0452
26330W        W42591   9.837   1.343  16.465 -0.3403  0.3371  0.1743
26331W        W42592  17.505  17.672  12.891  0.1166  0.3811 -0.1151
26332W        W42593  15.076   4.018   5.178  0.0873  0.0319  0.1817
26333W        W42594   2.928  14.078  16.136  0.0063  0.0136 -0.0642
26334W        W42595  13.298  15.787   0.418  0.2718  0.0331  0.1092
26335W        W42596  11.731  17.118  12.389  0.0544 -0.0801  0.1996
26336W        W42597  17.025  14.520   4.103 -0.0394 -0.2044  0.0974
26337W        W42598   4.906   1.804   4.063  0.0387 -0.2348  0.0182
26338W        W42599   4.303  14.445  15.254 -0.1142 -0.4700  0.0941
26339W        W42600  14.285   7.678  15.623  0.0854 -0.3732  0.0910
26340W        W42601   2.830  13.407  12.205  0.2153  0.1383  0.0460
26341W        W42602   9.093   9.704  13.248  0.0456 -0.3812  0.0992
26342W        W42603  13.559  16.238  14.007  0.2278  0.2594 -0.0602
26343W        W42604  18.166  11.354   4.478 -0.1407 -0.2305 -0.0415
26344W        W42605   0.416   5.077   0.690  0.0093 -0.0919 -0.2063
26345W        W42606   4.847  15.998  13.841 -0.2341  0.1943  0.0683
26346W        W42607  12.266   5.716  11.786 -0.1941 -0.3223 -0.0528
26347W        W42608  16.244  15.577  12.850 -0.1550 -0.2971 -0.1784
26348W        W42609  16.497  16.118   1.025  0.0994  0.1481  0.7129
26349W        W42610   2.959  17.325   5.644 -0.0626  0.2053  0.0394
26350W        W42611   7.402   9.844   0.468 -0.0747  0.1634 -0.2180
26351W        W42612  14.220   9.499  13.086 -0.1059  0.1896 -0.2297
26352W        W42613  18.095  15.997  16.476 -0.2915  0.1210  0.2113
26353W        W42614  14.679  16.778   0.083 -0.1556 -0.0298  0.0050
26354W        W42615   7.514   2.130   2.109  0.0319 -0.0140 -0.1947
26355W        W42616   1.559   3.883  14.344 -0.0439 -0.0240  0.0658
26356W        W42617  14.486   8.161   4.638 -0.3864 -0.1261 -0.0104
26357W        W42618  14.754   9.766   1.400 -0.1721  0.0077  0.2793
26358W        W42619   3.119   4.742   1.059 -0.0114 -0.2849 -0.0435
26359W        W42620   3.619   2.878   1.512 -0.3695  0.1312 -0.2125
26360W        W42621   1.509   8.757   5.140 -0.1417 -0.2290  0.0918
26361W        W42622   0.010   3.392  11.989 -0.0016  0.0048 -0.0118
26362W        W42623   8.808   8.008  13.846  0.0415  0.1761  0.1594
26363W        W42624   2.359   3.837  15.614 -0.0337 -0.0592  0.1422
26364W        W42625   0.469  11.701  13.969 -0.4347  0.0371  0.2930
26365W        W42626  17.719   3.531  12.229 -0.0923  0.0121  0.0224
26366W        W42627  13.765  14.546  14.313 -0.2380 -0.2456  0.0164
26367W        W42628   1.488   2.451   1.851  0.0400  0.1110 -0.2335
26368W        W42629  16.608   6.485   0.533 -0.2800  0.2366  0.0938
26369W        W42630  10.626   5.490  12.278 -0.4934  0.1515  0.2484
26370W        W42631   9.908   6.595  10.039 -0.1185 -0.3465  0.0439
26371W        W42632   4.955   8.847   1.143  0.2386  0.1648  0.3798
26372W        W42633  15.319  16.704   0.774  0.3597 -0.1336  0.1101
26373W        W42634  17.196  12.188   6.342  0.2137 -0.0362 -0.0223
26374W        W42635  17.753  15.433  12.011 -0.2536  0.2339 -0.0391
26375W        W42636   5.763  15.892  11.684  0.0258  0.0490  0.2430
26376W        W42637  15.612  16.326  15.294  0.3326  0.1858  0.0481
26377W        W42638  13.873   6.467   1.977 -0.3154  0.2181 -0.2633
26378W        W42639  11.158  16.533   1.679  0.1989 -0.2146 -0.0843
26379W        W42640  14.630  15.785  11.257  0.1643  0.1497  0.3283
26380W        W42641  11.705  14.558  12.684  0.0309  0.3273  0.1925
26381W        W42642   4.504   3.652   0.673  0.2175 -0.0747 -0.3079
26382W        W42643  15.466  14.169   4.269 -0.2885  0.0869  0.3767
26383W        W42644   4.105   8.180  14.848 -0.0365  0.0984  0.1068
26384W        W42645   7.138   3.395   1.406  0.2930 -0.1971 -0.1561
26385W        W42646  14.794   1.439   4.265  0.2352  0.0105 -0.2974
26386W        W42647   1.636   3.339  12.976 -0.0156  0.1604 -0.1651
26387W        W42648   6.317   9.627  16.215  0.3672  0.2291 -0.1878
26388W        W42649   7.594   6.377   6.301  0.2798  0.3238 -0.2496
26389W        W42650  16.773   9.691   2.914 -0.2908 -0.1183 -0.2521
26390W        W42651  10.715   0.721   2.763  0.0638 -0.0490 -0.3562
26391W        W42652  15.218   7.396  16.524 -0.1419  0.2260 -0.1453
26392W        W42653   9.812   9.047  15.170 -0.1152  0.1155  0.0711
26393W        W42654  13.384   7.266  13.597 -0.1015 -0.0755 -0.0325
26394W        W42655  13.302  13.637  11.398  0.3304  0.0310 -0.2302
26395W        W42656   4.068   1.984   2.887 -0.0265  0.0817  0.2217
26396W        W42657  12.533  12.832   4.299 -0.0710  0.0723  0.1936
26397W        W42658   4.449   7.571  11.384 -0.1127  0.5837 -0.0614
26398W        W42659   9.208   2.889   2.511  0.3015  0.0250  0.0301
26399W        W42660   5.318  15.622  16.265 -0.2057 -0.0006 -0.0351
26400W        W42661   2.415   7.282   3.969 -0.0103 -0.0803  0.2475
26401W        W42662   7.782  12.795   1.931 -0.0128 -0.1551  0.0710
26402W        W42663  13.930   4.802  13.711  0.2301 -0.0559  0.3518
26403W        W42664   6.048  15.798   4.575 -0.1341 -0.1042 -0.2148
26404W        W42665   4.897   0.371   5.028 -0.1755  0.0004  0.2716
26405W        W42666  14.557   1.469   2.453  0.0369 -0.1431  0.3681
26406W        W42667   5.469   8.641   0.989  0.0888 -0.0512 -0.1472
26407W        W42668   4.444   4.289   3.391  0.3152 -0.2244  0.2469
26408W        W42669   4.949   5.532  14.579  0.1577 -0.1122 -0.1481
26409W        W42670  13.306   6.322   3.613 -0.0240 -0.3141  0.4250
26410W        W42671  16.702   4.956  12.376  0.1277 -0.0070  0.0299
26411W        W42672   4.926   0.023   2.684 -0.0351  0.1958  0.0853
26412W        W42673   2.057   7.041   3.650  0.1320 -0.1763 -0.0056
26413W        W42674  10.032   7.603   5.023 -0.2177 -0.0272  0.2995
26414W        W42675   3.367   4.737   2.397  0.0836 -0.2912 -0.1931
26415W        W42676   1.604  16.210   5.277  0.3021 -0.0438 -0.0212
26416W        W42677   3.087  16.710   2.283  0.0039  0.0890 -0.3519
26417W        W42678  15.432   3.688   0.988 -0.4264 -0.2285 -0.0072
26418W        W42679  17.293   5.819   5.251  0.0913 -0.1956 -0.1337
26419W        W42680  15.909   5.898  14.785 -0.0994  0.1188  0.3260
26420W        W42681  14.405  15.870   3.012  0.3258 -0.0160  0.2604
26421W        W42682  12.899   7.914  16.129 -0.1200 -0.0859  0.2228
26422W        W42683  15.037   2.397   1.688  0.0241  0.1419 -0.0056
26423W        W42684  12.507  12.393   1.065 -0.0265 -0.2432 -0.0428
26424W        W42685  12.289  17.664  15.631  0.0415 -0.0903 -0.2160
26425W        W42686  16.730   7.586   4.638 -0.2595  0.0495  0.0133
26426W        W42687   7.595  12.575  12.787  0.1163 -0.1113 -0.0252
26427W        W42688   5.106  16.316   2.448 -0.0874 -0.1492  0.2139
26428W        W42689  16.458  12.991  14.937 -0.0146  0.0637 -0.0599
26429W        W42690  16.888   1.300   3.832 -0.2163 -0.0319 -0.0223
26430W        W42691  15.575  13.981  15.334  0.0446  0.0857  0.1187
26431W        W42692  12.122   9.160   5.539  0.1146  0.0546 -0.2755
26432W        W42693   9.031   1.758   1.845  0.2030  0.2329  0.1041
26433W        W42694  17.266  17.083  16.291  0.1872 -0.0955  0.0552
26434W        W42695   6.595   5.077   5.483  0.2742 -0.0633 -0.0314
26435W        W42696  10.102   6.734  12.769 -0.0235 -0.0364 -0.0408
26436W        W42697  10.286   9.952  15.464  0.1731 -0.1234  0.0589
26437W        W42698   1.818   5.299  13.972 -0.0320 -0.2461 -0.1586
26438W        W42699   3.939  15.453   2.601 -0.0950  0.3574  0.3192
26439W        W42700   9.166   9.622   0.790  0.1534  0.3246  0.2222
26440W        W42701   9.330   0.111   3.271  0.0220 -0.2449  0.0509
26441W        W42702  11.474   1.518   3.729 -0.0795  0.2021 -0.2287
26442W        W42703  11.285   4.862   0.138  0.1641 -0.1494 -0.2206
26443W        W42704  16.742  10.201   4.252  0.0743  0.1144 -0.0641
26444W        W42705   9.087   4.625   4.265 -0.0883 -0.3353  0.1817
26445W        W42706   5.864  10.784   3.781  0.3851  0.2757  0.0306
26446W        W42707   1.933   6.765  12.367  0.0823  0.0861 -0.1980
26447W        W42708   1.022   2.072  11.125 -0.1078  0.0257  0.0795
26448W        W42709  17.462  12.608  13.480  0.0690  0.0316  0.3150
26449W        W42710   6.842   5.962   2.903  0.3436 -0.1328  0.0734
26450W        W42711   4.312   7.012  15.563 -0.2884 -0.1561 -0.1157
26451W        W42712  12.669  13.312   5.298 -0.1980  0.0267 -0.1928
26452W        W42713   2.239   9.937  12.749 -0.2375 -0.1593  0.0580
26453W        W42714   4.262   8.774  15.283 -0.1033 -0.0630 -0.2081
26454W        W42715  13.799   7.782   4.430 -0.1003  0.1608 -0.1970
26455W        W42716   7.946  11.104  15.604 -0.2345  0.2018  0.0934
26456W        W42717   7.787   4.193   0.529  0.0170  0.0583 -0.0191
26457W        W42718   8.325   8.245  11.547  0.1878  0.1210 -0.2181
26458W        W42719   4.231   7.970   4.360 -0.2097  0.0595  0.0327
26459W        W42720   5.368   8.070  13.251 -0.0881  0.2252 -0.0213
26460W        W42721   2.691  17.685   5.408 -0.0200  0.0094 -0.2579
26461W        W42722  15.584   3.192   5.397  0.0442 -0.0825  0.0402
26462W        W42723  10.824   6.558   5.107  0.1245 -0.2239 -0.2129
26463W        W42724   7.434   9.728   4.140  0.2066 -0.0083  0.2967
26464W        W42725   4.632   3.757   2.980  0.0807  0.1872  0.0068
26465W        W42726   5.221   7.853  16.413 -0.1076  0.0336  0.2125
26466W        W42727   2.222  17.369  12.722  0.0066 -0.1826 -0.0768
26467W        W42728   3.272  10.533   2.103  0.0073  0.2014 -0.0408
26468W        W42729   0.178   8.239  12.388  0.1542 -0.5695  0.3733
26469W        W42730  11.883  14.690   3.571 -0.1712  0.2695  0.0454
26470W        W42731   3.078  17.190   2.483  0.1471 -0.0276  0.1455
26471W        W42732   1.180   3.161   4.551 -0.3414  0.1235  0.0579
26472W        W42733   5.903  16.862   0.870 -0.2083  0.1492 -0.0059
26473W        W42734   7.840   4.487  12.764 -0.1762  0.1289  0.0160
26474W        W42735   7.955   9.070   2.335  0.2728 -0.1369  0.2552
26475W        W42736  13.802  16.692   2.203 -0.1593  0.1557 -0.0804
26476W        W42737  14.303  16.406   0.090  0.1888  0.1406 -0.0102
26477W        W42738   1.719   5.699  12.610 -0.1491 -0.1947 -0.2655
26478W        W42739   1.137   2.328   3.045 -0.1669  0.0605  0.1037
26479W        W42740   3.094   1.275  14.758 -0.1415 -0.3163 -0.3790
26480W        W42741  17.471  16.948  11.567 -0.0858 -0.1178  0.2007
26481W        W42742   3.200   8.712  16.387  0.1138 -0.0837  0.0264
26482W        W42743  17.371   6.155   1.220 -0.1400 -0.2104 -0.4968
26483W        W42744  12.490  15.798  13.541  0.0513 -0.0318  0.1755
26484W        W42745   8.589   9.881  15.508 -0.0093  0.2211  0.2863
26485W        W42746  10.473   3.068  15.109  0.1576 -0.0052 -0.2700
26486W        W42747   1.179  12.799   3.720 -0.1277 -0.0420 -0.0089
26487W        W42748   1.412   5.589  14.925  0.0803  0.2395 -0.0283
26488W        W42749  11.792  10.017  16.444  0.2245 -0.0388 -0.1108
26489W        W42750   6.767  15.306   1.668  0.2248 -0.0946 -0.1600
26490W        W42751   9.617  16.915  14.728 -0.0343  0.0062  0.2469
26491W        W42752   9.878   0.259  15.531 -0.2115  0.0654 -0.0521
26492W        W42753   4.852   3.624   4.994  0.1571  0.1708 -0.0678
26493W        W42754  15.172  13.592   0.221  0.0517  0.2062  0.1111
26494W        W42755  15.246   0.651   0.936 -0.1885 -0.2128  0.4118
26495W        W42756   1.485  14.803  16.072  0.3338 -0.0757 -0.2232
26496W        W42757   1.746   4.457   5.331  0.1294  0.3512 -0.1899
26497W        W42758   0.757  12.997  12.948  0.2892  0.1034  0.3459
26498W        W42759   8.627   5.345   3.275 -0.2027  0.0750 -0.2007
26499W        W42760   9.232   1.614   2.978  0.1400 -0.3081  0.3499
26500W        W42761  11.388   0.467   1.097  0.0041  0.1046  0.1663
26501W        W42762  15.246  11.382  13.728  0.0201 -0.0706 -0.2244
26502W        W42763   8.050   8.831   4.094  0.0767  0.1036 -0.1413
26503W        W42764  17.253   3.584  15.021 -0.1680 -0.1906  0.3550
26504W        W42765   1.054  13.168  16.481 -0.2788  0.1209 -0.1691
26505W        W42766   5.812  13.990   1.897 -0.0163  0.3444 -0.1366
26506W        W42767  11.990  17.031   1.752 -0.0195  0.2150 -0.0982
26507W        W42768   2.812   8.493   1.853  0.1008 -0.2751 -0.2610
26508W        W42769  12.819   3.272   2.412  0.0798 -0.1768  0.1293
26509W        W42770  13.822  16.622  11.850  0.0140  0.0796  0.1186
26510W        W42771   4.626   8.251   1.961 -0.2066  0.0471 -0.0031
26511W        W42772  12.340   2.473   2.867  0.1575  0.1930  0.0963
26512W        W42773   6.513  13.773  13.675  0.1214  0.0750  0.1571
26513W        W42774  11.602   5.131   1.957 -0.2929 -0.0225 -0.0271
26514W        W42775   3.782  10.903  16.237  0.1906 -0.2235 -0.0167
26515W        W42776  13.747   6.265  15.602 -0.0768  0.1377  0.1239
26516W        W42777   8.560   5.072   5.813  0.1815  0.1170 -0.0348
26517W        W42778  18.112   0.295  13.089 -0.2173 -0.0797  0.0002
26518W        W42779   8.305   9.954   2.481 -0.1032 -0.0669  0.1821
26519W        W42780   4.874   6.862   3.657 -0.0721  0.2157  0.2887
26520W        W42781   1.340  10.505  15.097  0.0199  0.0253  0.0024
26521W        W42782   1.269  14.640  13.710  0.0738  0.2697  0.1295
26522W        W42783  13.016   8.793   5.940 -0.3298 -0.1435  0.2482
26523W        W42784   0.098   9.999  14.577 -0.0179 -0.3596 -0.2644
26524W        W42785  17.021   1.037  15.048  0.1365  0.1214 -0.0738
26525W        W42786   7.511   9.978  14.242  0.0578 -0.1002 -0.0884
26526W        W42787   2.537   2.193  15.820  0.2644  0.0621 -0.1503
26527W        W42788   0.098  18.006   1.319 -0.3488  0.0553  0.0279
26528W        W42789   3.499   9.094   4.921 -0.0960  0.2327 -0.0853
26529W        W42790   3.188   2.825   2.754  0.1673  0.2596 -0.0579
26530W        W42791  16.649   8.942  14.684  0.0161 -0.0783  0.1852
26531W        W42792   8.002  16.054   3.269  0.4258 -0.2076 -0.1713
26532W        W42793  14.288   4.471  15.103 -0.1046 -0.0781  0.1680
26533W        W42794  14.436   9.229   1.068 -0.0500 -0.2358 -0.0063
26534W        W42795   6.220   9.179  11.649 -0.1049 -0.1394  0.3866
26535W        W42796  16.664  16.670  11.453  0.0155  0.4057  0.0531
26536W        W42797   3.978  12.377   4.593 -0.0734  0.0378  0.0165
26537W        W42798   5.805   2.797   4.053 -0.2594  0.2844 -0.0284
26538W        W42799   4.836  15.564  13.333 -0.2268  0.2200 -0.2710
26539W        W42800   3.806   6.925  12.688 -0.1012  0.0505  0.0934
26540W        W42801   6.810   7.218  13.580 -0.0752  0.0289  0.4480
26541W        W42802  14.218   3.339   2.485 -0.0742  0.2372  0.0331
26542W        W42803  14.657  11.545   0.406 -0.2371  0.2126  0.2367
26543W        W42804  13.832   5.952  14.986  0.0737  0.1892 -0.2258
26544W        W42805  15.653   9.012  14.447 -0.1590 -0.3296  0.0421
26545W        W42806   9.983  11.676  11.473 -0.1910 -0.4354  0.1302
26546W        W42807   7.569   7.559   2.384 -0.3132 -0.0601  0.2314
26547W        W42808   2.577   7.589  14.466  0.0040 -0.0573 -0.3244
26548W        W42809   9.784  17.759  12.071  0.2331  0.4002  0.4520
26549W        W42810  13.704  11.302  14.067  0.0440 -0.0224 -0.0589
26550W        W42811   6.880   7.166  16.478 -0.2064 -0.2829 -0.0451
26551W        W42812   8.107  16.052  15.995 -0.0736 -0.1992  0.0277
26552W        W42813   9.568   6.260   4.542  0.1011  0.3292  0.1880
26553W        W42814   7.062  12.611  15.732 -0.2270 -0.0788  0.2071
26554W        W42815   3.999  12.012   2.202 -0.0782  0.1441  0.0002
26555W        W42816  18.140  15.778   4.522  0.2784  0.1196  0.0939
26556W        W42817  12.407  13.176   2.946  0.0118 -0.1157  0.2165
26557W        W42818   3.201   7.641  14.619  0.2469  0.0424  0.0344
26558W        W42819  14.843  12.968   5.302 -0.1954 -0.3055  0.0843
26559W        W42820   5.813  15.410   3.742  0.2016  0.2226 -0.0311
26560W        W42821   2.753  10.273   6.422 -0.5324 -0.1433 -0.2273
26561W        W42822   5.209   6.093   0.434  0.0765 -0.1959  0.4431
26562W        W42823   6.658  12.105   5.051  0.3171 -0.0041  0.0221
26563W        W42824  15.425   9.519   3.960  0.1154 -0.2208 -0.2623
26564W        W42825  17.981   0.953  12.746  0.2017  0.1080  0.3132
26565W        W42826   1.137  16.015  11.780 -0.0299  0.4974 -0.2410
26566W        W42827   5.312  13.131  11.433 -0.1444 -0.2018  0.0082
26567W        W42828   4.517   3.127   1.949 -0.1525  0.1478  0.4676
26568W        W42829   7.429  17.482  13.459  0.0403  0.0872  0.2336
26569W        W42830   5.504   8.856   1.620 -0.0820  0.2593  0.0181
26570W        W42831   0.883   1.867  15.357  0.0379  0.1150  0.1395
26571W        W42832   3.413  15.846   0.374  0.1226  0.2212 -0.0432
26572W        W42833   7.437  11.775   4.960 -0.1736  0.2720  0.2238
26573W        W42834   2.298   0.382   0.011  0.2169  0.0547 -0.1178
26574W        W42835   5.043  10.062   5.006  0.1308  0.0805 -0.1351
26575W        W42836   3.739  15.348  13.585  0.0693  0.1715  0.0987
26576W        W42837   6.340  16.477  12.883 -0.5326  0.3232  0.1909
26577W        W42838   4.061  16.749   3.407  0.0107  0.2375  0.0962
26578W        W42839   9.507  10.181  13.890 -0.2160  0.1104  0.1308
26579W        W42840  15.354   2.835   0.951 -0.2007  0.2212 -0.1717
26580W        W42841   5.910   9.270   5.173 -0.1076  0.3278 -0.3594
26581W        W42842   9.033   8.250   2.041  0.0021  0.3517  0.1754
26582W        W42843  13.284  13.857   4.113  0.0305 -0.0584 -0.0722
26583W        W42844   7.090  16.167  11.996 -0.0212  0.0297 -0.3219
26584W        W42845  17.988   1.718   5.786 -0.1530 -0.0745 -0.2962
26585W        W42846  11.116   2.764   0.528 -0.2784  0.1845 -0.1263
26586W        W42847  14.629  14.237   1.242  0.1286  0.2236  0.3623
26587W        W42848   6.169   7.946  12.152 -0.0208  0.0936 -0.1125
26588W        W42849  17.160  12.613   5.423 -0.0015  0.0826  0.1607
26589W        W42850   9.350   2.634   4.784  0.1875 -0.2355 -0.4918
26590W        W42851   2.379  13.762   2.367  0.3973 -0.0814 -0.5731
26591W        W42852   7.498   7.704   3.327 -0.2761 -0.0266  0.2629
26592W        W42853  18.054   9.613  12.002 -0.0801 -0.0269 -0.0660
26593W        W42854  16.157  18.000   0.644  0.0593 -0.1366  0.2104
26594W        W42855   6.843   3.033   2.260 -0.0934  0.3168 -0.0026
26595W        W42856   7.350   2.209  16.106 -0.2462  0.0562  0.2204
26596W        W42857   7.432   4.950  12.061 -0.1285 -0.4058 -0.4115
26597W        W42858   1.511   4.519   2.279  0.0077  0.0811  0.1306
26598W        W42859   1.297   1.654   1.625  0.0805 -0.1155 -0.0579
26599W        W42860   4.267  13.553   6.166  0.1929 -0.1709 -0.0567
26600W        W42861  13.606   2.399  11.293  0.0390 -0.0210  0.1610
26601W        W42862   9.129   2.866   3.100 -0.0627  0.3737  0.0104
26602W        W42863  13.546   9.542   0.411  0.0813  0.3167  0.0307
26603W        W42864   4.352  15.957   6.357 -0.0062 -0.1626  0.0392
26604W        W42865  12.041   0.072  14.918  0.3060 -0.0207  0.4127
26605W        W42866  12.347   9.235  13.920  0.1771 -0.0662 -0.0972
26606W        W42867  12.632  16.765   5.250  0.0507 -0.3400  0.0573
26607W        W42868  10.304   8.365  16.348  0.1487 -0.2428 -0.2201
26608W        W42869  14.078  17.836  12.923  0.2111 -0.0733 -0.2909
26609W        W42870  15.856  17.653   1.770  0.0524  0.0158  0.0809
26610W        W42871   1.136  15.312   4.820 -0.0343 -0.3059 -0.0168
26611W        W42872  13.839  16.039   1.756  0.0131 -0.0354 -0.1766
26612W        W42873   0.379   0.337  12.394  0.2856  0.2471  0.0722
26613W        W42874  12.968   7.978  14.107 -0.0307  0.2690  0.0903
26614W        W42875  15.271  12.272  13.313 -0.1105  0.3686  0.0184
26615W        W42876   8.008   1.923   3.323  0.0240  0.0742 -0.2009
26616W        W42877   3.016   1.516   5.541 -0.0969 -0.2896 -0.1790
26617W        W42878   0.894  16.985   1.502  0.4129  0.0751  0.1745
26618W        W42879  12.255   5.893   4.072 -0.3906 -0.3323  0.3173
26619W        W42880  10.453   6.156   4.902  0.2955 -0.3973 -0.1099
26620W        W42881   9.570  15.559   2.303 -0.1259 -0.2162  0.1045
26621W        W42882  15.543   1.071   0.655  0.2799  0.1708  0.0859
26622W        W42883   6.250   6.971   1.006 -0.1385  0.0298  0.0929
26623W        W42884  14.938  12.562   2.365 -0.0701  0.1234  0.3854
26624W        W42885  11.141   7.479  15.806 -0.1199  0.3275  0.1966
26625W        W42886  12.771   5.943   1.492  0.2756 -0.0121 -0.0082
26626W        W42887   2.883   6.396  14.958 -0.0266 -0.2195  0.2149
26627W        W42888  14.534   3.049  12.796  0.2419 -0.1622 -0.2761
26628W        W42889   8.037   2.788  16.098  0.1310  0.2493  0.3745
26629W        W42890  11.572   8.208  15.219  0.4494  0.0473  0.3019
26630W        W42891   3.293  12.124  11.825  0.0954  0.1201  0.1360
26631W        W42892  13.681  16.727  12.411  0.0543  0.3186 -0.3056
26632W        W42893   4.844  12.631  12.634  0.3350  0.1681 -0.2281
26633W        W42894  15.277   8.383   0.043  0.0100  0.0277 -0.0690
26634W        W42895  12.591  12.051  13.849 -0.0199  0.0203  0.2083
26635W        W42896  10.209   4.152   0.689  0.0947  0.0545  0.1373
26636W        W42897   0.928  11.293   0.599 -0.0590  0.0288  0.0387
26637W        W42898  17.560   2.858   5.035  0.1982  0.1652 -0.1155
26638W        W42899  10.547  11.329  14.941  0.0847  0.1692  0.0356
26639W        W42900  10.176  10.420   0.087 -0.2229 -0.0258  0.1449
26640W        W42901   9.292  14.515   1.905  0.2167  0.0191 -0.1111
26641W        W42902  14.415  16.550  13.386  0.1803  0.0120 -0.4130
26642W        W42903   5.042   7.273   0.502  0.1080 -0.1469 -0.1996
26643W        W42904   3.111  12.548   5.041 -0.0132  0.0025  0.3269
26644W        W42905   8.673  11.910  12.511 -0.0166  0.2635  0.0060
26645W        W42906   7.280   2.772   5.789  0.1048 -0.0434  0.1417
26646W        W42907   2.227   2.836  13.014  0.0881  0.2094 -0.0775
26647W        W42908   3.384   1.043   2.395 -0.4430  0.0551  0.1640
26648W        W42909  15.142   4.599  12.838  0.0240 -0.0688 -0.0899
26649W        W42910   9.775   1.668   3.683  0.1508 -0.1627 -0.0829
26650W        W42911   8.494  18.049   1.199 -0.0441  0.1584  0.0418
26651W        W42912  16.517  16.842   3.984  0.1017 -0.0646  0.3891
26652W        W42913   2.557  14.857   4.479  0.0309  0.3237  0.0085
26653W        W42914  15.797   4.236   0.986 -0.0150 -0.2633  0.4439
26654W        W42915  10.845   2.514   0.174 -0.0685 -0.0883 -0.0347
26655W        W42916   5.035   0.652  13.541 -0.0225 -0.0458 -0.0831
26656W        W42917   4.835   7.726  16.003  0.0470 -0.0473 -0.0203
26657W        W42918   8.525   4.348   3.546  0.2928 -0.2474  0.4919
26658W        W42919   3.735   2.152  13.294 -0.0096 -0.2531  0.0120
26659W        W42920   9.490   6.340  14.100  0.2985 -0.2542 -0.0694
26660W        W42921  11.086  17.401  16.392 -0.1359  0.1215 -0.0584
26661W        W42922   7.734   7.035   2.571 -0.1207 -0.1157 -0.0442
26662W        W42923  11.372  16.695  12.445  0.0339  0.2935  0.2837
26663W        W42924   9.821  12.378   3.689 -0.2662  0.1105 -0.0945
26664W        W42925  18.171   2.227   3.335  0.0640  0.1536 -0.2097
26665W        W42926  10.858   6.377   3.541  0.1289  0.0597  0.0389
26666W        W42927  14.470  12.507  11.514  0.0804 -0.0066 -0.0950
26667W        W42928  10.630  12.700   5.855 -0.1939  0.2580  0.0398
26668W        W42929   6.728  16.699   1.815  0.0188  0.1660 -0.1287
26669W        W42930   5.387   6.076   4.118 -0.0176  0.1387  0.1441
26670W        W42931   1.261   8.211   1.213 -0.0291 -0.1423 -0.0252
26671W        W42932   8.554   1.932  14.021  0.2308  0.2460 -0.0526
26672W        W42933  17.623   1.073   0.446  0.2919  0.2923 -0.2290
26673W        W42934   5.564  14.446   5.553 -0.0373 -0.1681 -0.0925
26674W        W42935  15.348  15.236   0.322 -0.0782 -0.0674  0.3037
26675W        W42936  11.319   8.495   4.946 -0.2636 -0.0810  0.0145
26676W        W42937   0.887  13.530  13.569  0.1513 -0.0207 -0.2311
26677W        W42938  12.344   1.315   5.180 -0.0940  0.0348  0.0043
26678W        W42939  11.567  12.271  15.154 -0.0996  0.1544 -0.2049
26679W        W42940   1.460   8.288   2.230 -0.0021 -0.2315 -0.3217
26680W        W42941  14.158   0.558  11.734 -0.1298 -0.1886 -0.1041
26681W        W42942  13.779  10.147  14.046 -0.3461  0.1530  0.0580
26682W        W42943   9.432  17.203  12.891 -0.1710  0.0363  0.0813
26683W        W42944   6.403  10.065  14.943  0.0976 -0.0858  0.0359
26684W        W42945   0.638   6.465  12.423  0.0732 -0.0504 -0.1875
26685W        W42946   2.835   4.685  12.550 -0.2049  0.1825 -0.0309
26686W        W42947   8.368   8.637  16.079  0.2063  0.0767 -0.0881
26687W        W42948   4.659  13.552   0.303 -0.1736 -0.4077 -0.0561
26688W        W42949   1.859  16.592   4.299 -0.1011 -0.0284 -0.6146
26689W        W42950  11.607   0.993   4.855 -0.3161  0.0919  0.2955
26690W        W42951   3.229  13.443   2.358 -0.0119  0.3134  0.2620
26691W        W42952   4.431   5.863   1.095  0.1740 -0.4343  0.0646
26692W        W42953   8.630   4.773   4.615  0.1031  0.4383  0.3712
26693W        W42954  16.333   9.326  14.668  0.0191  0.1179  0.1225
26694W        W42955  11.015   9.091  15.916 -0.2710 -0.1286  0.1718
26695W        W42956   0.647   8.013   4.482  0.1575  0.1360 -0.0261
26696W        W42957   6.108  12.188   6.101  0.2318 -0.3068  0.0080
26697W        W42958   0.763   4.046   4.210  0.1376  0.1284 -0.0382
26698W        W42959   5.414  12.128  15.579 -0.0512 -0.0424 -0.4306
26699W        W42960  11.111   0.679  13.358  0.0775  0.1250  0.1557
26700W        W42961  11.108  14.676  14.086 -0.2046 -0.1749 -0.2876
26701W        W42962   7.721   1.288  13.176  0.1602 -0.0961  0.1671
26702W        W42963  17.399  12.629   2.422  0.1607 -0.1143  0.0425
26703W        W42964   5.684   9.694  15.499 -0.1775 -0.0023 -0.0275
26704W        W42965   8.150  15.379  12.969 -0.2094  0.2014  0.0112
26705W        W42966  12.486  16.486   1.249 -0.0076 -0.1346  0.0562
26706W        W42967   3.306  11.446  14.421  0.0472  0.0332  0.1319
26707W        W42968   6.250   2.348  13.400 -0.1071  0.0351 -0.1098
26708W        W42969  16.616   3.974  14.621 -0.1588  0.0850 -0.2192
26709W        W42970  16.457   2.012   5.582 -0.2204  0.1289  0.1353
26710W        W42971   8.893   9.634   3.864 -0.0102 -0.2000  0.1975
26711W        W42972  13.451  10.629  15.773 -0.0920  0.2379 -0.0168
26712W        W42973  18.089  10.762   3.950 -0.2144  0.2541  0.3074
26713W        W42974   2.063  13.888  12.099  0.2304 -0.0613 -0.0008
26714W        W42975   9.353   3.306   3.101  0.2429  0.3838 -0.0933
26715W        W42976   3.534   3.414   4.706  0.1431  0.0955 -0.1800
26716W        W42977  17.856   3.196  15.727 -0.2673  0.1438  0.0354
26717W        W42978   8.520  10.005  12.556 -0.0388  0.1957 -0.0711
26718W        W42979   7.971   1.604  12.845  0.1857 -0.6474  0.3257
26719W        W42980   0.050   8.578  15.524  0.0609 -0.0726 -0.3089
26720W        W42981   4.858  15.748   2.910  0.0906  0.3930 -0.3197
26721W        W42982  12.240  13.428  13.313  0.1442 -0.1508 -0.0700
26722W        W42983  15.704  15.558   2.175  0.1253 -0.4920 -0.2189
26723W        W42984  12.983  18.022  14.229  0.2548 -0.0711 -0.1371
26724W        W42985   8.835   5.763   0.499  0.0725 -0.0739 -0.2329
26725W        W42986   9.017  15.956  16.393 -0.0281  0.2187 -0.0004
26726W        W42987   3.178  11.847   2.645  0.1897  0.2427  0.4507
26727W        W42988   4.279  16.408   2.335  0.2761  0.0346 -0.2274
26728W        W42989  17.305  12.118  14.580 -0.0402 -0.2167  0.1450
26729W        W42990   2.417   4.264   1.776 -0.0896 -0.1220  0.0514
26730W        W42991  12.963  15.354  16.182 -0.0269  0.0121  0.1393
26731W        W42992  13.061   9.452  11.317 -0.3238  0.2517 -0.0951
26732W        W42993   4.312  12.970   4.556 -0.2358  0.1783  0.0773
26733W        W42994   7.149  14.752   3.358  0.2165 -0.1002 -0.3514
26734W        W42995   0.389  10.573   4.967 -0.0973 -0.1409 -0.1610
26735W        W42996   1.857   4.950   3.180  0.1794  0.1520  0.0231
26736W        W42997   3.447  13.254   3.597 -0.2570 -0.0011 -0.1797
26737W        W42998   2.312   1.245  15.972 -0.0260  0.1695  0.1396
26738W        W42999  17.136  14.959  10.713  0.1344  0.1364 -0.1076
26739W        W43000  13.734  14.752  14.973 -0.1526 -0.0166 -0.3557
26740W        W43001  12.924  11.071   4.182 -0.0565  0.0580  0.1863
26741W        W43002  10.550   1.340  12.088 -0.1377 -0.2894 -0.1007
26742W        W43003   6.486   3.386  16.254  0.1742  0.0482  0.1167
26743W        W43004  18.003   9.549  15.938  0.0807  0.2506 -0.1369
26744W        W43005   8.293  10.433  12.346  0.0689 -0.0270  0.1670
26745W        W43006   8.893   2.714  14.554  0.1014  0.0535  0.1133
26746W        W43007   3.612   1.436  14.583 -0.3044  0.2856  0.0748
26747W        W43008   0.793   1.852   1.044 -0.2808  0.0242 -0.0094
26748W        W43009   1.272   2.409   0.401  0.2580 -0.1235  0.0618
26749W        W43010  17.432  15.785  15.845 -0.2326 -0.2968 -0.0950
26750W        W43011  17.879   5.183   5.023  0.2358  0.0101 -0.1343
26751W        W43012   5.759  15.181  14.311 -0.0775  0.3317  0.0312
26752W        W43013  12.579   6.299   4.570  0.0074  0.0605 -0.0279
26753W        W43014   2.576   4.369  13.567 -0.1288  0.1412  0.0078
26754W        W43015   8.985  13.836   5.590  0.0662  0.0406 -0.0692
26755W        W43016   4.097   7.889  11.412 -0.1082  0.3785 -0.0909
26756W        W43017  17.356  17.594   5.116  0.1421  0.1168 -0.1461
26757W        W43018   6.170  16.617  12.435  0.0366  0.3208 -0.0529
26758W        W43019  11.427   8.227   0.074  0.1686  0.1381 -0.2078
26759W        W43020  10.935   6.887  10.673  0.1499 -0.0741  0.2079
26760W        W43021   9.759  14.550   4.046 -0.2254  0.0276 -0.2287
26761W        W43022  17.182  10.870   2.500  0.2366 -0.1530  0.1979
26762W        W43023   9.290   8.175   5.440 -0.3826 -0.1765 -0.1870
26763W        W43024  14.866   7.838   4.295 -0.1034  0.0961 -0.2335
26764W        W43025  17.986   1.724  15.865  0.2102  0.0735 -0.1131
26765W        W43026   7.990  15.075   5.323 -0.0821  0.1263 -0.1655
26766W        W43027  13.177   2.037  15.280 -0.1187  0.0466 -0.1489
26767W        W43028   7.664   5.352  13.867 -0.0461  0.2322  0.1753
26768W        W43029  15.303   4.671  13.522  0.1606  0.1344 -0.0145
26769W        W43030  15.106  16.920  16.379  0.1941 -0.0731  0.4122
26770W        W43031   0.329   2.282  13.164 -0.0025  0.0479 -0.1244
26771W        W43032  10.474  17.849   4.407 -0.0045 -0.3211 -0.1116
26772W        W43033  17.733  16.515   4.314  0.0187 -0.0757 -0.3383
26773W        W43034  10.831   2.355  10.325  0.1476  0.0580  0.0813
26774W        W43035   9.076   8.271   0.627  0.2394 -0.0740 -0.2830
26775W        W43036  12.140   2.590   3.482  0.0771  0.1533 -0.1687
26776W        W43037  18.137  12.889   5.482  0.0972 -0.2040  0.2676
26777W        W43038   2.363  13.083  16.183 -0.0687 -0.0291  0.1038
26778W        W43039   0.705   1.477  12.931 -0.0895 -0.0682  0.0897
26779W        W43040  13.823  12.385   2.107  0.2114 -0.2001 -0.0214
26780W        W43041  10.273  15.357   6.052 -0.0809 -0.0249  0.1952
26781W        W43042   6.942   5.441  16.548 -0.1808 -0.2132 -0.0727
26782W        W43043  16.563  14.672   3.538 -0.1135 -0.0383 -0.0799
26783W        W43044  12.300   6.023  13.856  0.1764 -0.1552 -0.0576
26784W        W43045  16.669   2.760  12.926  0.5846  0.1129  0.2906
26785W        W43046  14.890   5.617   5.324 -0.1101  0.1023 -0.2379
26786W        W43047   7.190   9.478  16.366  0.0181 -0.0935 -0.1769
26787W        W43048   7.922   8.380   4.423 -0.1202  0.0564  0.1744
26788W        W43049  12.853   1.077  15.370  0.1707  0.1164  0.0532
26789W        W43050   7.529   9.399  11.928 -0.0064  0.0545 -0.0568
26790W        W43051  12.241   6.434   2.552 -0.3650  0.1603 -0.2704
26791W        W43052   2.117  14.607   0.474 -0.0634 -0.1186 -0.0071
26792W        W43053  11.292   7.779   1.289  0.0101 -0.0477 -0.0598
26793W        W43054  10.435  10.438   3.844  0.0313  0.3529  0.1566
26794W        W43055  10.331  13.321  13.849 -0.3083  0.2303  0.0307
26795W        W43056   4.825   6.337  15.358  0.0569 -0.1303 -0.1763
26796W        W43057   4.463   2.364  13.455 -0.0060 -0.2093 -0.2154
26797W        W43058  10.544   5.289  13.980  0.0378  0.0383 -0.2916
26798W        W43059   3.313  17.965   1.961 -0.0455  0.3055  0.0705
26799W        W43060  13.288   3.519   2.168 -0.2240  0.0810  0.1019
26800W        W43061  16.291   8.483   0.222 -0.0633  0.0044 -0.2015
26801W        W43062   9.613  10.887  16.175  0.2620  0.0585  0.0268
26802W        W43063   2.247  13.753  14.266  0.0902  0.0752 -0.1650
26803W        W43064   3.347  14.118   5.608 -0.2735  0.1781 -0.1225
26804W        W43065  14.953  16.693  15.599 -0.0516  0.0385 -0.0127
26805W        W43066   1.346  12.458   2.833  0.1496 -0.2246  0.0245
26806W        W43067  14.697   5.151  11.529  0.0667  0.0045  0.1419
26807W        W43068   5.609  17.864   5.697 -0.0378  0.1483  0.1553
26808W        W43069  13.693   8.960  11.745 -0.2894 -0.2483  0.3620
26809W        W43070   4.353   5.223   0.427  0.2656 -0.0709 -0.0027
26810W        W43071   1.276   2.645   4.653 -0.2764 -0.0368  0.1573
26811W        W43072  10.354   0.526   4.639 -0.2131  0.2703  0.2800
26812W        W43073   4.031   8.824  12.979 -0.0948 -0.0882  0.0185
26813W        W43074  17.944   0.799   5.589 -0.1488 -0.1432  0.1513
26814W        W43075  15.434   4.576  14.172 -0.0618  0.1038  0.1419
26815W        W43076   7.195  10.885  13.967  0.1642  0.0065 -0.2072
26816W        W43077   5.079   7.337  16.620  0.0870 -0.2369  0.3287
26817W        W43078  16.819  15.371   0.067  0.1851 -0.0473  0.4281
26818W        W43079  15.583   0.373   2.761 -0.0694  0.0501  0.2537
26819W        W43080  17.910   2.675  15.686  0.0930 -0.0153 -0.2270
26820W        W43081  13.958  15.217   4.334  0.0225 -0.1370 -0.1394
26821W        W43082  17.898   5.081   2.658 -0.2173  0.2298 -0.2246
26822W        W43083   6.747   6.101   1.359 -0.3129 -0.2152  0.2065
26823W        W43084  12.326  14.494   3.760 -0.0132  0.1490  0.1551
26824W        W43085   8.823  16.414  13.592  0.1049 -0.1982 -0.1060
26825W        W43086  13.900   3.861  14.658  0.0133  0.0865 -0.0183
26826W        W43087   7.959  11.242   2.777 -0.0543 -0.0923  0.2218
26827W        W43088  17.150   0.874   1.464 -0.1172 -0.0834 -0.0937
26828W        W43089  13.209   4.387  11.022  0.1658 -0.2787  0.0301
26829W        W43090  12.080   2.097  16.420 -0.2053  0.1409  0.1486
26830W        W43091  18.008  14.684  16.493  0.0527  0.0659  0.1357
26831W        W43092   9.747   6.991  13.117  0.0722  0.1234 -0.0975
26832W        W43093   8.627  15.410  15.014 -0.0607  0.0449  0.1781
26833W        W43094  12.182  12.882  13.405  0.0820  0.0965  0.3039
26834W        W43095   3.978  11.377   4.077 -0.0896  0.1180 -0.0436
26835W        W43096  12.025   9.766   2.686  0.0921  0.4050 -0.4543
26836W        W43097  16.326   9.783   0.062  0.0356  0.1446 -0.3499
26837W        W43098  11.706   3.796   5.133  0.1068 -0.0016  0.1076
26838W        W43099  14.762   6.175  13.159  0.1874 -0.3319 -0.0680
26839W        W43100   5.212  10.959  14.959 -0.0249  0.1473 -0.1555
26840W        W43101   6.546   3.986   1.342  0.4088 -0.5983 -0.2932
26841W        W43102   0.035  15.608  13.002 -0.1299  0.1419  0.0877
26842W        W43103   3.929  14.828   3.347 -0.1420 -0.0351  0.2148
26843W        W43104  13.629  10.228   3.381  0.1165  0.2137  0.1793
26844W        W43105  16.615   3.520  16.352  0.3537  0.1426 -0.2511
26845W        W43106   0.787   5.472   0.691 -0.0150  0.2290 -0.0360
26846W        W43107   4.626  12.177  16.258 -0.2334 -0.1387 -0.4955
26847W        W43108  10.180   1.808  16.574  0.1399  0.2367 -0.0346
26848W        W43109  14.274  16.910  16.475 -0.2209  0.0721 -0.3661
26849W        W43110   8.207  14.560   6.099 -0.1355 -0.1826 -0.0121
26850W        W43111  14.819  12.331   1.226  0.1599 -0.0463  0.0973
26851W        W43112   9.649   9.505  16.459 -0.4533  0.0404 -0.2553
26852W        W43113  17.594  17.532   1.245 -0.1058 -0.3179  0.3917
26853W        W43114   6.806   4.475  14.296 -0.1601  0.0690 -0.1670
26854W        W43115   0.220  12.148   2.614  0.0262  0.3003  0.0813
26855W        W43116   5.028  12.344  16.000 -0.0371 -0.2111 -0.1436
26856W        W43117   4.962   5.028  14.656 -0.0439  0.0015 -0.0896
26857W        W43118   5.544   7.421   0.416  0.1879  0.2879 -0.0955
26858W        W43119  16.373   1.806  14.751  0.0385 -0.0279 -0.0564
26859W        W43120  15.684   0.918  15.443 -0.0077  0.3371 -0.2391
26860W        W43121  17.612  13.763   5.729 -0.2583 -0.0540  0.0170
26861W        W43122   0.710   3.908   3.493  0.2814 -0.2003 -0.0224
26862W        W43123   4.869   1.734   2.260 -0.4525 -0.3189  0.0368
26863W        W43124   1.318   3.553  13.349  0.2135 -0.1961  0.1311
26864W        W43125   5.028  10.688   0.540  0.0629  0.1513  0.1466
26865W        W43126   6.629   1.872   1.523  0.1792 -0.0889 -0.4405
26866W        W43127   3.931   0.035  13.453 -0.1885  0.0957 -0.1298
26867W        W43128   7.432  12.224   1.230  0.0243  0.0912  0.2474
26868W        W43129   9.326   4.785   3.826  0.0215  0.0720  0.0424
26869W        W43130  11.348   6.990   2.076  0.0961  0.1028  0.2199
26870W        W43131  15.952   1.103  15.092 -0.0539  0.0298  0.1071
26871W        W43132  14.702  13.612  16.531  0.3039 -0.2625  0.2544
26872W        W43133  10.343   3.220  12.659 -0.0590 -0.0898  0.0526
26873W        W43134   6.830   9.932   2.024  0.3100  0.1054 -0.2325
26874W        W43135  18.131  10.001  12.863 -0.2129 -0.0770 -0.0595
26875W        W43136   4.890  14.096   1.237 -0.0716 -0.2031 -0.0699
26876W        W43137  14.917  17.661   3.226 -0.0489  0.4316  0.2664
26877W        W43138   5.076   5.314  12.358  0.2346 -0.2009  0.0198
26878W        W43139   1.144  17.998  15.172 -0.0792  0.2410 -0.0942
26879W        W43140  14.051   4.159   5.450 -0.1132  0.0319 -0.2318
26880W        W43141   4.949  12.539  11.594 -0.0074 -0.0684 -0.1659
26881W        W43142   2.328   9.385  11.752  0.1134 -0.1754  0.1175
26882W        W43143   7.206   9.051  11.932 -0.1335  0.1607 -0.0363
26883W        W43144  15.107   2.997   2.874 -0.1570 -0.0572  0.0323
26884W        W43145   0.420  12.468  15.059  0.2485 -0.1570  0.3928
26885W        W43146   2.394  10.600  15.289 -0.3665  0.0502  0.0510
26886W        W43147  18.047  15.743  14.833  0.1998 -0.3791  0.0604
26887W        W43148  16.970  17.196  14.183 -0.4207 -0.1390 -0.2370
26888W        W43149  12.919   0.251   5.457  0.2797  0.0484 -0.1156
26889W        W43150  17.577  11.589   4.004 -0.0172  0.1447 -0.1253
26890W        W43151   4.967   1.499  12.842  0.0266 -0.2710 -0.0591
26891W        W43152   1.877  12.179  11.514  0.0822  0.1823 -0.1567
26892W        W43153   6.774  11.108   2.010  0.2700 -0.1212 -0.1810
26893W        W43154  12.966   8.053   1.731 -0.0089  0.1473 -0.3734
26894W        W43155   1.890   4.648   2.620 -0.0604 -0.1387  0.2402
26895W        W43156   6.346  12.525   5.791  0.0090 -0.0782  0.1693
26896W        W43157  13.214  16.516   2.805 -0.3410  0.2054  0.2483
26897W        W43158   9.507   4.683   2.548 -0.2966 -0.0731 -0.0452
26898W        W43159   3.260   5.734   5.958 -0.0160  0.1965 -0.1820
26899W        W43160   2.448   5.631  14.890 -0.0815  0.2354  0.0394
26900W        W43161   1.591   0.228   4.265  0.1757  0.0639 -0.1011
26901W        W43162   1.330   7.442  14.528  0.2554  0.2157 -0.0443
26902W        W43163  16.264  10.275  14.782 -0.1449  0.2318  0.1540
26903W        W43164   2.226  10.110   3.078  0.0348  0.1216 -0.0415
26904W        W43165   3.185  13.978   1.681  0.0715 -0.5132 -0.1329
26905W        W43166   6.462   5.275   0.757  0.0266  0.1629  0.2684
26906W        W43167   9.738   1.050   5.236 -0.0792  0.0534 -0.4844
26907W        W43168  10.510  15.592   3.550 -0.0440 -0.1913 -0.1786
26908W        W43169  14.055   6.681   1.526  0.2482 -0.1308 -0.1381
26909W        W43170   7.827   7.914  15.744 -0.0738 -0.1391  0.1840
26910W        W43171   1.003   6.556   5.960  0.0137  0.4744  0.2144
26911W        W43172  12.973   8.918   2.078  0.2164  0.2729 -0.1771
26912W        W43173   0.505   9.299  14.270  0.0106  0.0514 -0.0775
26913W        W43174   2.078   2.455   6.427  0.1208  0.0815 -0.1188
26914W        W43175  15.175   3.477   2.593 -0.2092 -0.1413 -0.1990
26915W        W43176   7.837  17.005  14.704  0.0526  0.1336 -0.0697
26916W        W43177   1.720  10.819   0.954  0.2346 -0.1528  0.1670
26917W        W43178   9.412   0.452  11.954  0.1297 -0.0751 -0.1614
26918W        W43179  12.673   5.834  14.685 -0.0330  0.0000 -0.1588
26919W        W43180  13.987  16.623   4.157 -0.1706  0.2703  0.1000
26920W        W43181   9.421   0.296  11.448  0.1164 -0.0601  0.1969
26921W        W43182   7.269   5.863   5.101  0.2054  0.0826  0.1054
26922W        W43183  10.804  12.931  14.663 -0.2173 -0.0647  0.0159
26923W        W43184  12.863   7.375  13.715 -0.2396 -0.1109  0.0243
26924W        W43185   6.309   4.550  12.098 -0.0501 -0.3604  0.0557
26925W        W43186   5.399   6.384   1.439  0.2532  0.1250 -0.3173
26926W        W43187  10.694  18.061   3.395 -0.1523 -0.0535  0.0327
26927W        W43188   1.408   9.896  16.441  0.0790  0.0857 -0.0146
26928W        W43189   4.970  10.187   1.698 -0.0983 -0.3272  0.1923
26929W        W43190  15.436  16.942  14.847 -0.4158  0.0571  0.1239
26930W        W43191   8.621   0.703  16.389 -0.0606 -0.1578 -0.1775
26931W        W43192   0.221  13.018  14.428  0.0134 -0.2661  0.0998
26932W        W43193   4.088  15.932   2.462 -0.0157  0.0067  0.0849
26933W        W43194  13.111  11.090   1.203  0.5554 -0.0844 -0.0559
26934W        W43195   3.952   6.921   3.633  0.0289  0.2370  0.1225
26935W        W43196  16.610   7.274   5.519  0.0985  0.1653  0.0249
26936W        W43197  16.281  17.142   4.838  0.0138  0.2197  0.1445
26937W        W43198   7.490   5.333   5.230 -0.0622 -0.0909  0.0251
26938W        W43199   3.474  16.070   3.133 -0.1088  0.2882 -0.0173
26939W        W43200   7.707  15.408   3.452  0.1364 -0.0320  0.0989
26940W        W43201  14.964  10.502  15.753  0.1855  0.3204 -0.2725
26941W        W43202   5.834   2.998   2.012 -0.2951  0.0005 -0.2005
26942W        W43203   4.920  13.150   0.569  0.0102 -0.0460 -0.0228
26943W        W43204   1.468  15.837  13.870  0.0912  0.1743 -0.2210
26944W        W43205   9.523  16.041   2.022  0.1341 -0.1084  0.0236
26945W        W43206  11.802  14.619   0.887  0.0861 -0.0933 -0.0128
26946W        W43207  15.678   2.155  13.564 -0.4780  0.1112  0.2909
26947W        W43208   6.306  17.410  16.154  0.0138 -0.0020  0.0079
26948W        W43209   3.328  14.448  14.060  0.0064  0.1364  0.0688
26949W        W43210  14.205   2.093  14.387 -0.0215 -0.0453  0.2163
26950W        W43211   0.322  17.207  16.418 -0.2923  0.1350 -0.3267
26951W        W43212   0.594  13.098  13.733 -0.2321 -0.4639 -0.0780
26952W        W43213   8.999   9.737  15.992 -0.0950 -0.0503 -0.1209
26953W        W43214  15.023  17.192   4.217 -0.0343  0.1446 -0.1897
26954W        W43215   6.042  17.473  15.144 -0.2113  0.1319 -0.2028
26955W        W43216   0.133  14.281   5.136  0.0423 -0.0417 -0.2900
26956W        W43217   4.302   7.935   5.104 -0.0467  0.1969  0.0336
26957W        W43218   7.384   8.038   2.426 -0.1259 -0.1354  0.1489
26958W        W43219   6.172   0.256   3.326 -0.2400 -0.0857 -0.0517
26959W        W43220   5.894  13.879  15.397 -0.0222 -0.0304 -0.0962
26960W        W43221   5.354  12.917   4.545 -0.0195 -0.3889 -0.2901
26961W        W43222   4.156   7.671   2.993 -0.1191 -0.0052  0.3547
26962W        W43223   6.228   1.996  14.997 -0.0822  0.0993  0.0246
26963W        W43224   4.963  13.084   2.238  0.3116  0.1987  0.2866
26964W        W43225   8.596   3.346   3.711 -0.0977 -0.2309  0.1233
26965W        W43226   7.968  14.374  14.427  0.2621  0.1729  0.3893
26966W        W43227  13.374   5.654   0.317  0.2407  0.1000  0.0364
26967W        W43228   7.670   3.042   5.783  0.2513  0.0523 -0.1828
26968W        W43229   2.745   1.328  11.350  0.3246  0.1411  0.2392
26969W        W43230   9.412  12.871  15.317 -0.2541 -0.0286  0.0096
26970W        W43231   3.595  11.499   3.648 -0.0256  0.2226 -0.0476
26971W        W43232  14.873   1.628   3.029 -0.2133 -0.2281  0.1030
26972W        W43233   2.744  15.808  16.300 -0.4103  0.2743 -0.1305
26973W        W43234  15.715  11.717  11.558 -0.2484  0.0156  0.0121
26974W        W43235   0.603   9.272  16.405 -0.4244  0.3821  0.0028
26975W        W43236   6.502  13.993   0.220  0.0976 -0.0576 -0.4225
26976W        W43237  12.501  16.707  16.608 -0.1671  0.2765 -0.0294
26977W        W43238   6.148   4.807   0.667 -0.0274 -0.1222  0.1180
26978W        W43239   7.352  15.600   0.085 -0.0653 -0.3969 -0.0307
26979W        W43240  12.512  17.968   1.482 -0.2910 -0.2696  0.0945
26980W        W43241   6.875  13.517  13.907 -0.0602  0.4748  0.1286
26981W        W43242  16.070   1.905  15.677 -0.1545 -0.0183  0.0874
26982W        W43243  17.286   8.235  15.933  0.1275  0.0429  0.0310
26983W        W43244  18.093   1.568   1.605  0.2368  0.2107 -0.0280
26984W        W43245   5.570  13.583   1.081 -0.2670  0.2438 -0.4092
26985W        W43246  11.178   9.772   5.155 -0.0540 -0.2499  0.1119
26986W        W43247   0.644   0.526   3.833 -0.3482 -0.1008 -0.0526
26987W        W43248   5.507   4.248   0.510  0.0574 -0.0210  0.3704
26988W        W43249  11.970  10.846  16.608  0.0239  0.0038  0.1482
26989W        W43250  15.548   6.796  11.153  0.0376 -0.2541 -0.1114
26990W        W43251   4.839  17.187   3.795 -0.2799 -0.5243 -0.1011
26991W        W43252  10.351   3.609   1.904  0.2258 -0.3948  0.0112
26992W        W43253   8.080   0.282   3.747 -0.2832 -0.0863 -0.0318
26993W        W43254  15.960  15.531  11.956 -0.1864  0.1123  0.4505
26994W        W43255  14.604  14.357  11.458 -0.2983 -0.2222 -0.0658
26995W        W43256  15.044  11.862   1.576 -0.0068  0.1728 -0.0540
26996W        W43257   8.197  14.369  11.666 -0.0430  0.3083 -0.1142
26997W        W43258   5.090   1.582  13.377  0.2533  0.0205 -0.0747
26998W        W43259  12.169   5.081   0.067  0.2375  0.2397 -0.2481
26999W        W43260  17.907  16.347   4.851 -0.2445 -0.0818  0.1869
27000W        W43261   5.264  10.443   2.949 -0.1569  0.2347 -0.0288
27001W        W43262  17.906   1.796  14.813 -0.1936 -0.0953 -0.1363
27002W        W43263   1.351   0.269   0.166 -0.1808 -0.1152  0.1940
27003W        W43264  16.811   5.272   1.607 -0.0227  0.2994 -0.3106
27004W        W43265   8.272   4.142   3.893  0.0161 -0.1256  0.0539
27005W        W43266   7.463   4.226   3.554 -0.1094 -0.2251 -0.1220
27006W        W43267  15.430  11.342  15.921 -0.0610 -0.1230  0.2470
27007W        W43268   8.077  17.438  11.494 -0.1171 -0.1148 -0.0636
27008W        W43269  15.100  17.906  10.882 -0.2760 -0.2019 -0.0878
27009W        W43270   0.161  16.378   0.017 -0.0322  0.1010  0.0637
27010W        W43271   3.332   4.751   4.772 -0.1924  0.0484  0.2624
27011W        W43272  17.726   6.050   5.109 -0.0121  0.0018 -0.0196
27012W        W43273   9.145   9.236  13.167  0.3930 -0.1503 -0.1720
27013W        W43274   7.123  10.570  13.272 -0.1847  0.0864  0.0374
27014W        W43275  14.279   8.100   0.738  0.1575 -0.2382  0.1200
27015W        W43276  14.102   9.353  15.599 -0.0498 -0.0522 -0.2343
27016W        W43277   8.641  14.688   2.024  0.1200 -0.2219  0.0701
27017W        W43278   3.844   6.990   0.830 -0.1391  0.3348 -0.2065
27018W        W43279   4.390   6.605  13.865  0.0687 -0.0792  0.1238
27019W        W43280  14.036   3.141  11.838 -0.1529  0.1798  0.3728
27020W        W43281  14.252  15.418   2.487  0.2893  0.1350 -0.0550
27021W        W43282   7.762   6.301   3.781 -0.1075 -0.2244  0.2860
27022W        W43283  17.062   4.299   0.551  0.0718 -0.2517 -0.0687
27023W        W43284   0.217  17.064   3.715  0.0652 -0.1322 -0.1324
27024W        W43285  10.878  11.422   0.703 -0.1973  0.1165  0.2082
27025W        W43286   3.261   6.191  11.065 -0.3193  0.0110  0.0230
27026W        W43287   2.385  13.726   3.543  0.3330 -0.2312 -0.0141
27027W        W43288   7.497  10.502  11.778 -0.0831  0.0057  0.1530
27028W        W43289  16.301  15.025   3.853 -0.2686  0.2270 -0.3076
27029W        W43290  11.280   9.151  12.423  0.0536 -0.2428 -0.2498
27030W        W43291   9.015  17.544  15.137 -0.3110  0.0815  0.2213
27031W        W43292   4.256  14.626  13.851  0.0593  0.3429  0.3750
27032W        W43293   5.383   0.750   3.751 -0.1041  0.2027 -0.1848
27033W        W43294   2.931  14.248   5.219  0.0411 -0.2371 -0.0094
27034W        W43295  12.467   9.520   5.562 -0.0382  0.1372 -0.2734
27035W        W43296  17.663  12.841   4.176  0.0219 -0.1028 -0.2061
27036W        W43297  14.432   9.596   3.066  0.0990  0.1717 -0.1079
27037W        W43298   4.961   1.989  16.270 -0.1578  0.0091  0.0485
27038W        W43299   1.929  10.924  15.577  0.1840 -0.1347  0.1339
27039W        W43300  13.718   0.570   1.366  0.1590  0.1406  0.2876
27040W        W43301   9.089  17.784   4.154  0.3957 -0.3053 -0.0870
27041W        W43302  14.145  14.321   2.529  0.0560  0.0358  0.2213
27042W        W43303   5.376  12.876  13.428  0.0881  0.1423 -0.1623
27043W        W43304  12.597  14.159   2.406 -0.0925 -0.1119  0.0411
27044W        W43305  12.031   1.239  14.668  0.0193 -0.1913  0.2031
27045W        W43306   3.928   0.235   2.722 -0.3209 -0.3886  0.2542
27046W        W43307   4.460  16.134  12.594  0.3259 -0.0127  0.0408
27047W        W43308  11.841   7.247   5.280 -0.2114 -0.0051 -0.2012
27048W        W43309   7.340  15.409  14.171  0.0704  0.0055  0.0263
27049W        W43310  17.610  12.714   0.436 -0.2978 -0.0019 -0.3219
27050W        W43311  12.570   8.718   1.600  0.2988 -0.2764 -0.1714
27051W        W43312   8.464   4.433  15.910 -0.0544  0.3359 -0.3316
27052W        W43313  13.671  16.156   4.104 -0.1223  0.0893 -0.0540
27053W        W43314   2.253  10.035  16.422  0.0309 -0.0432 -0.2110
27054W        W43315  14.732   3.475  13.745  0.0402  0.1877 -0.0551
27055W        W43316   2.987   2.468  15.139 -0.1563 -0.0349 -0.2458
27056W        W43317   1.817  10.855  14.035 -0.0210 -0.1370  0.2890
27057W        W43318  17.635   1.210  16.615  0.5596  0.4549  0.1543
27058W        W43319   2.091   6.738   5.662  0.1233  0.1041  0.0611
27059W        W43320   7.311  13.678  15.144  0.0743 -0.1699  0.1924
27060W        W43321   3.748   5.788  12.724 -0.1094 -0.1294 -0.0808
27061W        W43322   0.095   1.956  12.378  0.0655 -0.3177 -0.2400
27062W        W43323   3.399  17.607  13.958 -0.1875 -0.1179  0.0665
27063W        W43324  10.061  11.396  11.037 -0.2475 -0.0508  0.0728
27064W        W43325   7.771   2.921   4.951  0.0438 -0.2901 -0.2655
27065W        W43326  12.287  11.690  12.744  0.3454 -0.2328  0.0490
27066W        W43327  12.535   0.088   0.750  0.1739 -0.1238  0.1461
27067W        W43328   6.166   5.292   2.770  0.1713 -0.1704  0.1102
27068W        W43329  11.148  10.478  13.673 -0.0613  0.3983  0.1771
27069W        W43330   3.832   9.364   2.589  0.0852  0.0086  0.1403
27070W        W43331  10.495  14.474  13.018  0.1639  0.1736  0.0519
27071W        W43332   4.718   2.225  10.821 -0.0623 -0.1515  0.1445
27072W        W43333   2.701   1.699   3.722  0.1739 -0.1582 -0.2273
27073W        W43334   9.566   8.913   4.780 -0.2597  0.2919 -0.1656
27074W        W43335  15.020  11.698   4.966  0.0993 -0.1427  0.1332
27075W        W43336  14.358  13.417  13.537 -0.1757 -0.0389 -0.1477
27076W        W43337   5.634   1.355  16.636  0.2468 -0.0677 -0.2206
27077W        W43338  16.864   4.958  10.727  0.0352 -0.0859 -0.0481
27078W        W43339   7.555   0.015  12.767 -0.1255 -0.1218  0.2618
27079W        W43340   8.984   9.924   0.435 -0.0337 -0.0877 -0.1797
27080W        W43341  18.109   5.200  13.549  0.1339 -0.2872 -0.0722
27081W        W43342   0.357   2.298   4.374 -0.0641  0.1907  0.2708
27082W        W43343   1.856   4.613   4.833 -0.1657 -0.0805 -0.0887
27083W        W43344  11.628   0.472   0.277  0.2745 -0.3013  0.3100
27084W        W43345  10.904   6.908  12.141 -0.1358  0.3419  0.4486
27085W        W43346  17.330  15.709   2.314 -0.3928 -0.0649 -0.2251
27086W        W43347   7.339  16.558   1.222 -0.1283  0.1444  0.0312
27087W        W43348   3.936  11.983   0.348 -0.4027 -0.0339 -0.0534
27088W        W43349  12.524   8.247  16.573 -0.1701  0.1782  0.0051
27089W        W43350   5.375   7.339   1.469 -0.3814  0.1484  0.1878
27090W        W43351   1.217  11.895  12.448 -0.0173  0.2559  0.0044
27091W        W43352   9.658  17.778  10.707 -0.4496  0.3380  0.1759
27092W        W43353  14.872  14.947   4.712  0.1027  0.1310 -0.1854
27093W        W43354   0.479   1.871   4.136  0.2345  0.0104 -0.1599
27094W        W43355   0.182   0.670  12.736 -0.1472 -0.0380  0.2380
27095W        W43356  11.423  17.090   5.346 -0.0557 -0.1554  0.0056
27096W        W43357   7.955   1.113   3.775  0.0651  0.1688  0.0923
27097W        W43358  12.473  11.103  12.573  0.2288  0.2955 -0.3397
27098W        W43359   7.083   0.905   1.550  0.0632 -0.0309 -0.1389
27099W        W43360  14.027  12.246   0.882 -0.2872 -0.1277 -0.0908
27100W        W43361  18.039   4.441   5.615 -0.1110 -0.2253  0.1406
27101W        W43362   3.893   1.919  13.829 -0.2500  0.4094 -0.0504
27102W        W43363  15.654   1.115  14.469  0.1588  0.0980  0.0934
27103W        W43364  13.433   1.500  16.603  0.0565 -0.0431  0.2718
27104W        W43365   3.190   2.595   0.767  0.0128 -0.1563  0.0327
27105W        W43366  10.073   8.361   5.702 -0.0378 -0.1753  0.0976
27106W        W43367   2.012  16.041   3.401  0.1168 -0.3377  0.0334
27107W        W43368  16.441  13.515   4.788  0.2399  0.2173 -0.2931
27108W        W43369  11.771   7.025   4.753 -0.1695 -0.1267 -0.1606
27109W        W43370   4.336  13.736   3.312  0.0083 -0.2007  0.1600
27110W        W43371  15.963   9.694   0.721  0.2688  0.0564 -0.1193
27111W        W43372   8.289  14.177   0.766 -0.2125 -0.2816 -0.0720
27112W        W43373   9.844  11.110   3.299 -0.1151 -0.0208  0.1274
27113W        W43374   4.919   9.260  15.746 -0.1640 -0.3177 -0.1308
27114W        W43375  11.889  16.827  12.867  0.0799  0.0710 -0.2330
27115W        W43376   0.336   3.200   2.116 -0.1084 -0.0732 -0.1919
27116W        W43377   0.308   0.805  14.975 -0.0294  0.0607  0.0810
27117W        W43378   0.081   6.469   1.149  0.3774 -0.0097 -0.0147
27118W        W43379   4.865   7.565  11.012 -0.1470  0.3433 -0.1548
27119W        W43380   2.220  15.403  13.255 -0.0675  0.0707  0.0177
27120W        W43381   2.376   6.867   2.745  0.1491 -0.1239 -0.0128
27121W        W43382   1.997   7.504   3.190  0.1693 -0.0962 -0.1054
27122W        W43383   6.191   1.149  14.305  0.1097 -0.2354  0.2140
27123W        W43384  12.975  15.128  13.313  0.0148  0.1733  0.2471
27124W        W43385   3.494   6.559  15.701 -0.1115  0.1466  0.1301
27125W        W43386  13.465   7.526   1.086 -0.1625  0.1979 -0.3957
27126W        W43387   3.870   8.755   4.581  0.0367  0.0476 -0.1172
27127W        W43388   7.520   5.812  15.211  0.1007 -0.1453 -0.0345
27128W        W43389   9.399   8.040  13.902 -0.0627 -0.4251  0.1342
27129W        W43390   8.421   4.774  12.937  0.1748 -0.3102 -0.0620
27130W        W43391   0.802  10.467   1.148  0.0059  0.3062  0.0871
27131W        W43392   3.446   2.961   4.553 -0.1560  0.1393  0.0187
27132W        W43393   9.395   1.497   5.417 -0.2062  0.0307 -0.0335
27133W        W43394   9.866  17.938  15.401  0.1408 -0.2954 -0.1936
27134W        W43395   9.090  13.313  16.076 -0.2901  0.2743 -0.0703
27135W        W43396   5.704  13.039   3.791  0.0719 -0.1813  0.0394
27136W        W43397  11.704  11.778   5.337 -0.1943  0.1073 -0.2951
27137W        W43398   5.067   0.288  15.108  0.5889 -0.0145 -0.3957
27138W        W43399   2.651   4.489   0.697  0.1640  0.1229  0.1617
27139W        W43400   5.512   4.187  15.299 -0.1067  0.2259 -0.1137
27140W        W43401  11.950  11.640   2.117  0.0858  0.1168 -0.0046
27141W        W43402  13.124   1.758   5.241 -0.4376  0.0626  0.1381
27142W        W43403   7.266  15.302  16.276  0.0731  0.2714 -0.4226
27143W        W43404   4.554  17.226  16.296 -0.2767  0.1449 -0.0681
27144W        W43405  14.462   9.768   2.188 -0.1184 -0.1587 -0.1503
27145W        W43406   0.926   4.359  15.842  0.0363  0.0171  0.1084
27146W        W43407  12.251  10.207  13.641  0.1411 -0.1553  0.1129
27147W        W43408   1.714   9.015  15.458  0.3604 -0.1258 -0.1574
27148W        W43409  11.440   6.559   0.510 -0.1804  0.1905  0.0646
27149W        W43410  15.469  16.802  15.392  0.0268  0.3518 -0.1038
27150W        W43411   2.636   1.781   0.434  0.0743 -0.1411 -0.1636
27151W        W43412   9.115   4.572  14.534  0.1866 -0.0729 -0.3186
27152W        W43413   4.800   2.174   3.690  0.0858 -0.2792  0.1497
27153W        W43414  10.736  16.225  15.640 -0.4307 -0.2023  0.0803
27154W        W43415   2.857   1.421   3.314  0.2091 -0.4476 -0.1736
27155W        W43416  14.132   9.791   0.408  0.5203  0.1416  0.3901
27156W        W43417   9.240   4.460   5.092 -0.1018 -0.0477 -0.0278
27157W        W43418  10.246   5.023  15.017 -0.0956 -0.0458  0.3182
27158W        W43419  15.702  12.495   4.991 -0.1923  0.0564 -0.1208
27159W        W43420  14.249   1.602   0.309  0.1632  0.3277 -0.2219
27160W        W43421   3.369   7.589   1.828 -0.0979 -0.2074  0.1401
27161W        W43422   0.334   8.465   0.251 -0.1981  0.1736  0.0239
27162W        W43423  14.442  16.114   5.585  0.1306 -0.0507 -0.1065
27163W        W43424   3.691   2.565   4.843 -0.1908  0.0498  0.0207
27164W        W43425  16.623   1.054   5.902  0.0412 -0.0947 -0.0339
27165W        W43426  11.611  15.168   4.757  0.3632 -0.3075  0.1052
27166W        W43427   7.301   7.896   4.648  0.0876  0.1557  0.2519
27167W        W43428  12.840   4.709  13.653 -0.0207  0.2386  0.1957
27168W        W43429   9.238   5.779   4.373 -0.1860 -0.3023 -0.1103
27169W        W43430   7.513  12.319  15.573  0.0967 -0.0050  0.0608
27170W        W43431   0.771  16.613   5.392  0.2353 -0.0463  0.2785
27171W        W43432  16.084  11.070   3.701  0.0664  0.0370  0.2211
27172W        W43433   7.193   8.718   3.577  0.4781 -0.2056  0.2279
27173W        W43434  11.456  12.975  15.719  0.0233  0.3460  0.2138
27174W        W43435   7.685   6.266  16.579 -0.0459  0.1232  0.2090
27175W        W43436  12.101   6.596   3.389  0.0744  0.3170 -0.0493
27176W        W43437  15.604   4.495   5.244  0.4020  0.0499 -0.2549
27177W        W43438  16.940   8.536   3.550 -0.1927  0.1272  0.2421
27178W        W43439  17.056  18.107   5.008 -0.1182 -0.0808  0.0689
27179W        W43440  17.502   3.678   2.720 -0.4160  0.0712 -0.2763
27180W        W43441  11.788  10.152  12.907  0.1727 -0.0570  0.0230
27181W        W43442   7.113  17.323   2.638 -0.1230 -0.0073  0.0166
27182W        W43443  15.460   7.391  13.198  0.2485  0.0208  0.0480
27183W        W43444   6.937  17.252  15.252 -0.0391 -0.1781 -0.1301
27184W        W43445  13.414  17.542   1.500 -0.3346  0.1143  0.0045
27185W        W43446  13.027   3.966  15.395 -0.3414  0.2229  0.1255
27186W        W43447  11.605   8.566  14.372 -0.0037 -0.1486 -0.3754
27187W        W43448   3.016   4.358  15.704 -0.1158 -0.3710  0.2463
27188W        W43449  17.277  16.839  15.318 -0.4495 -0.1619  0.0222
27189W        W43450   8.252  16.744  14.425  0.0807  0.2188  0.1220
27190W        W43451  15.061   7.005   2.787 -0.2474 -0.0192 -0.0574
27191W        W43452   1.127   8.712   4.831  0.1776  0.0076  0.0828
27192W        W43453   2.614  13.297   2.252 -0.1714  0.1367 -0.0635
27193W        W43454   9.970   3.226  10.834  0.0550  0.0936 -0.1698
27194W        W43455   4.786   7.710  14.553 -0.0865  0.0141 -0.0872
27195W        W43456   6.015   1.357  12.188  0.3838 -0.1249  0.0310
27196W        W43457   0.751   3.433   4.913  0.0206  0.2460 -0.2200
27197W        W43458  12.131  10.544   3.359  0.5313 -0.1579 -0.1653
27198W        W43459  10.846  14.397  12.166 -0.2887  0.1203 -0.2199
27199W        W43460   0.087  17.126   2.812 -0.4182  0.0538  0.0141
27200W        W43461   0.915   5.503  15.076  0.0763  0.3083 -0.2080
27201W        W43462  13.387  14.347   1.854 -0.3623  0.0924 -0.0303
27202W        W43463  17.633   5.513  15.356 -0.3464 -0.0642  0.0434
27203W        W43464  17.875   7.815   2.853 -0.2356  0.3201  0.4000
27204W        W43465  11.143   1.239   1.678  0.3627 -0.0375 -0.1616
27205W        W43466   5.267  12.498   3.614  0.1410  0.1192  0.0568
27206W        W43467   7.664  13.967  14.150  0.0882  0.2523 -0.0644
27207W        W43468  16.573   6.103  12.960  0.0449 -0.3710  0.2686
27208W        W43469  10.252   9.410   5.856 -0.1259 -0.1663  0.1724
27209W        W43470  14.119   2.517   4.785 -0.1356  0.3451  0.2992
27210W        W43471   6.268  15.709   1.841 -0.3084  0.0506 -0.4291
27211W        W43472  10.815  13.450  13.831  0.1643  0.3393 -0.1378
27212W        W43473   9.381   5.610   1.791 -0.1948 -0.0805 -0.1312
27213W        W43474   9.040   8.926   4.753 -0.0645 -0.0612 -0.0849
27214W        W43475   8.360   7.734  11.489 -0.0317  0.0574 -0.3927
27215W        W43476  11.874  16.197   1.986 -0.1553  0.1502 -0.3069
27216W        W43477  16.576   5.349   2.013  0.0785  0.3306  0.1567
27217W        W43478  16.237  17.906  13.401 -0.0997 -0.0751  0.0112
27218W        W43479   5.791  12.200  11.670  0.0647  0.0372  0.1504
27219W        W43480  15.425  13.288  16.394 -0.1714 -0.3723 -0.0327
27220W        W43481  10.622   6.628   0.318  0.1709  0.1577 -0.0992
27221W        W43482   7.853   7.734   1.470 -0.0206 -0.0758 -0.3402
27222W        W43483  11.313   6.867  11.794 -0.3332  0.0297 -0.2095
27223W        W43484   4.951  12.366  13.811 -0.1537  0.1657  0.0094
27224W        W43485   0.698  12.606  11.907  0.1083  0.0846  0.1417
27225W        W43486  11.037   4.965  13.376 -0.1839 -0.0801  0.0256
27226W        W43487  16.652   6.976   0.412  0.1115 -0.4561 -0.0683
27227W        W43488  11.924   7.156   1.536  0.1143 -0.0256  0.1453
27228W        W43489   1.401   2.812   5.166 -0.0382 -0.1326 -0.1069
27229W        W43490   4.603  13.734   3.735  0.2736 -0.1647  0.0067
27230W        W43491   4.846  14.042  14.459  0.0840  0.2126  0.0750
27231W        W43492   6.983  15.268   0.916  0.0192  0.1977  0.0108
27232W        W43493   1.036   3.859  15.758  0.1507 -0.1219  0.2100
27233W        W43494   6.473   4.325   5.693 -0.1874 -0.0061 -0.2548
27234W        W43495   7.022   7.920   3.152 -0.0542  0.2625 -0.1775
27235W        W43496   7.500  16.067   0.513 -0.2874 -0.1931 -0.2320
27236W        W43497  17.654  12.224   1.610  0.0781 -0.1686  0.1494
27237W        W43498   3.554   8.227   2.870 -0.1166 -0.3164  0.0433
27238W        W43499   8.319  17.204   2.401  0.2386 -0.4171 -0.1433
27239W        W43500  11.700   4.510   4.910 -0.1214 -0.1941 -0.4455
27240W        W43501   1.906   5.769   2.641  0.0178  0.0662  0.1730
27241W        W43502   0.863   5.259   1.198 -0.2787  0.0582  0.1596
27242W        W43503   5.552  17.640   4.100  0.0764  0.0094  0.2389
27243W        W43504   1.781   4.199   3.384  0.1117  0.2578  0.0028
27244W        W43505   9.308  13.655   3.035  0.4399  0.0781  0.0650
27245W        W43506   1.556   9.499  11.607 -0.3423  0.0550 -0.1949
27246W        W43507  10.582   8.593  14.937  0.2049 -0.3233 -0.0313
27247W        W43508  16.606   4.361   2.051  0.2387 -0.0593 -0.0181
27248W        W43509  16.615   7.654  12.754  0.0523  0.1835 -0.2130
27249W        W43510   6.539   7.284   2.997 -0.0785  0.1097  0.3118
27250W        W43511  15.658   4.970  13.989 -0.1669 -0.1698 -0.4317
27251W        W43512  17.751  11.488  13.973 -0.0759 -0.1300  0.0049
27252W        W43513   4.675   6.781  15.203 -0.0729  0.3670  0.1797
27253W        W43514   7.410  11.280  12.818  0.3396 -0.1671  0.1614
27254W        W43515  15.512   9.623  16.149 -0.0475  0.2197 -0.0012
27255W        W43516   3.975   3.131   3.498 -0.1137  0.2786 -0.2270
27256W        W43517   0.008  10.654   1.752 -0.0314 -0.1076  0.3608
27257W        W43518   1.802  14.573  13.679 -0.2650 -0.3399  0.0452
27258W        W43519   1.858  16.671   2.501  0.2738  0.1418  0.2038
27259W        W43520   0.120   7.056  16.559  0.3653 -0.1405  0.4176
27260W        W43521  12.295   9.345   3.288 -0.3172 -0.2828 -0.2405
27261W        W43522  10.016  15.189   6.449  0.2599  0.2960  0.2112
27262W        W43523   5.802   6.888   3.771 -0.1307 -0.0155  0.2282
27263W        W43524   1.257   4.681   3.759 -0.4172  0.4344 -0.0478
27264W        W43525  10.421   8.690   2.692  0.0332  0.2682 -0.1994
27265W        W43526   3.299   4.706  15.375  0.2945  0.2747  0.1476
27266W        W43527   3.613  18.016   4.096  0.1557 -0.1846  0.1894
27267W        W43528  16.183   2.255  14.284 -0.3080  0.0791 -0.1590
27268W        W43529  12.881   0.056   4.732  0.2008  0.1067 -0.4991
27269W        W43530   4.487  15.110  16.271  0.0324  0.1638 -0.0651
27270W        W43531  13.103   3.979   4.368  0.0853  0.1843  0.1823
27271W        W43532   5.053   9.387  11.293  0.0350 -0.3109  0.0172
27272W        W43533  13.279  15.582  11.658  0.1107  0.2816  0.0002
27273W        W43534   8.311   4.275   0.544 -0.1274  0.2519  0.1647
27274W        W43535   3.246  14.993  13.865 -0.0182  0.5386  0.2658
27275W        W43536   0.009   7.003  10.603  0.3319  0.1850  0.0170
27276W        W43537  14.962   1.422  12.327  0.3576 -0.1835 -0.1197
27277W        W43538  15.408   6.517   3.061 -0.1224 -0.0123 -0.0515
27278W        W43539   0.857   1.551   5.231 -0.0575 -0.1612  0.3537
27279W        W43540   1.960  18.135   3.798 -0.1588  0.0693 -0.2810
27280W        W43541   5.697  12.497  13.202  0.0539  0.1060  0.1091
27281W        W43542   7.660  16.892  16.025 -0.1230  0.2120 -0.2261
27282W        W43543  17.753  16.561  14.548  0.2103  0.0661 -0.0492
27283W        W43544   3.511  18.042  12.728  0.1249 -0.2340 -0.0647
27284W        W43545  11.208   0.735  14.978 -0.0207  0.0844  0.0136
27285W        W43546  11.109   1.940   2.378 -0.1329 -0.2022  0.0733
27286W        W43547   7.055  16.014   3.304 -0.0578  0.0208 -0.0116
27287W        W43548   0.563   0.940   1.705  0.0962 -0.0056  0.2365
27288W        W43549   4.911   8.731  14.537 -0.1897  0.0110 -0.1186
27289W        W43550  16.353   6.849   6.180 -0.0554 -0.1285 -0.1289
27290W        W43551  13.553   3.199  11.525 -0.1180  0.0423  0.1373
27291W        W43552  14.683   0.075   1.180 -0.1250  0.0626  0.0482
27292W        W43553  12.678  16.999  11.852 -0.0619 -0.1299  0.0018
27293W        W43554  15.552  15.530   1.311  0.1975  0.1485 -0.0365
27294W        W43555  16.356   6.906   3.154 -0.1564 -0.1428 -0.1544
27295W        W43556  13.109   2.901   4.697 -0.1479  0.0796 -0.1595
27296W        W43557  11.137   2.233   3.771 -0.0405  0.1884 -0.0691
27297W        W43558   7.526   2.801  12.461  0.0132 -0.1727 -0.0973
27298W        W43559  16.999   5.819  15.092 -0.2180  0.2593  0.0686
27299W        W43560   8.223   2.952   0.818 -0.2993 -0.4876  0.2299
27300W        W43561  16.713  14.395   4.471  0.1635  0.2024 -0.2883
27301W        W43562  11.247   5.975  14.596 -0.2827  0.0910  0.0358
27302W        W43563   5.507  16.566   1.090 -0.2305  0.1453  0.2275
27303W        W43564   7.634  17.826  15.759 -0.0185  0.0298  0.3152
27304W        W43565   3.448  17.312   2.853 -0.2549  0.0140  0.0705
27305W        W43566   5.531   7.446  13.689  0.0246  0.0193  0.1608
27306W        W43567   1.726  13.149  13.141  0.4178  0.3850  0.4782
27307W        W43568  10.286  14.774   6.342  0.3829 -0.1038 -0.0244
27308W        W43569   8.151  17.009  12.213 -0.2309  0.3241  0.0031
27309W        W43570   3.086  16.302  14.356 -0.2578 -0.0246  0.4732
27310W        W43571  17.169   8.970  13.987 -0.1712  0.2299 -0.0415
27311W        W43572   0.266  16.174  13.525  0.1327  0.1032  0.1671
27312W        W43573  17.886  10.342   4.735 -0.0182 -0.0369 -0.1053
27313W        W43574  14.338  14.850   4.834  0.1263  0.1490  0.1303
27314W        W43575  14.413   0.508  13.770 -0.0477  0.2833 -0.4270
27315W        W43576  17.802   4.254   4.599 -0.0804 -0.0572 -0.1653
27316W        W43577   6.140   1.247   4.723  0.0571  0.3233  0.1538
27317W        W43578  13.195   6.747   1.934  0.1119  0.0859  0.1008
27318W        W43579   6.848  10.141  14.072 -0.0973 -0.0446 -0.1506
27319W        W43580  13.492   9.721  12.136  0.0416  0.0538 -0.4059
27320W        W43581   2.156  13.780  15.665 -0.1399 -0.1418  0.3988
27321W        W43582   7.207   6.520  14.029  0.1337  0.1365  0.1095
27322W        W43583   7.165  17.518   4.161 -0.1916  0.0911  0.2541
27323W        W43584   4.038   6.345  14.159 -0.0208 -0.1609  0.0715
27324W        W43585   4.808  17.900   1.572  0.1072 -0.1570 -0.3444
27325W        W43586   5.193  11.822  15.865 -0.1416 -0.0681  0.1799
27326W        W43587   9.745   9.482   5.674  0.1283  0.1909 -0.1515
27327W        W43588   2.356   1.891  15.080  0.1047 -0.1410  0.2984
27328W        W43589   7.321  10.496   0.961 -0.0731 -0.1141  0.0252
27329W        W43590   2.429   9.867  14.435 -0.1874  0.2115 -0.0661
27330W        W43591   2.122   4.623  15.744 -0.0346 -0.1540 -0.4404
27331W        W43592  14.533   0.264  11.797 -0.1339 -0.3483  0.0372
27332W        W43593   4.568   2.294   5.642 -0.1653  0.1718  0.0882
27333W        W43594  11.917   7.904  15.622  0.0619  0.1043  0.1099
27334W        W43595   8.116   6.589   2.108 -0.1249  0.2236 -0.0963
27335W        W43596  11.963   6.398  11.042 -0.0165 -0.2735  0.0481
27336W        W43597   4.901   7.212   1.166 -0.0434  0.0080 -0.0928
27337W        W43598   7.862   2.011   4.547  0.2121 -0.1102  0.2951
27338W        W43599   2.274  14.470   2.202  0.1652  0.0815  0.2667
27339W        W43600  15.524  12.134   0.377 -0.2967 -0.0066 -0.1595
27340W        W43601  13.951   7.847  11.197 -0.1492 -0.0833 -0.3867
27341W        W43602  10.821   0.208   5.661 -0.2429 -0.5092  0.0546
27342W        W43603   7.053   4.271  12.117 -0.1387  0.0790  0.0263
27343W        W43604  10.350   3.872   4.526  0.0810  0.2029  0.1941
27344W        W43605   9.598  12.547   2.071  0.0570 -0.2596 -0.1400
27345W        W43606  14.159  10.071  15.733  0.0012  0.1142  0.2536
27346W        W43607  13.035  13.728   5.636 -0.0687  0.4004 -0.0858
27347W        W43608   8.160  11.011  11.360  0.1688 -0.0789 -0.1902
27348W        W43609   1.123   9.210  12.811 -0.1073 -0.0032  0.0239
27349W        W43610  18.182   6.975   0.850 -0.0063 -0.0087  0.0141
27350W        W43611   3.278  12.291  15.215 -0.0753 -0.1286  0.1437
27351W        W43612  14.409   9.997  13.331  0.1355 -0.1900  0.3596
27352W        W43613  15.846  13.555   6.195  0.1360 -0.1474 -0.3884
27353W        W43614   6.050   1.951  11.147 -0.1388  0.0171  0.0551
27354W        W43615   3.656  14.378   3.406  0.1508 -0.1074 -0.2550
27355W        W43616   1.766  12.069  10.490 -0.3900 -0.1897  0.1687
27356W        W43617   8.960   3.029  16.185 -0.0779 -0.0133 -0.1234
27357W        W43618  14.611  15.955  14.271  0.2389  0.0755 -0.0857
27358W        W43619   0.247   2.800   4.422  0.2545 -0.0559 -0.0080
27359W        W43620   9.218  18.009  12.127 -0.0070 -0.4804  0.0961
27360W        W43621   3.804  13.691   2.378  0.3838 -0.0416  0.0196
27361W        W43622   4.939  10.389  15.595 -0.0841  0.3095 -0.1153
27362W        W43623   7.649  17.499   6.259 -0.0207 -0.2677  0.0506
27363W        W43624   4.783   3.318  12.024  0.2407  0.1973 -0.0549
27364W        W43625  13.610  15.108   1.229  0.2759  0.0533  0.3065
27365W        W43626   6.976   8.935  14.946  0.2449  0.0985 -0.2141
27366W        W43627  10.894   9.519  16.149 -0.0834 -0.0671  0.0793
27367W        W43628   2.402  13.562  15.009 -0.0242 -0.2935 -0.0472
27368W        W43629   6.283  15.708  15.222 -0.2821 -0.0552  0.0934
27369W        W43630  13.134   1.848  14.670 -0.0281 -0.1995 -0.1646
27370W        W43631  14.066   2.345  16.544  0.1059  0.1289 -0.0344
27371W        W43632   3.102   1.905   2.612  0.1518 -0.0745  0.0633
27372W        W43633  15.134   3.185  16.065 -0.3426 -0.2994 -0.2694
27373W        W43634   1.486  11.592   6.211  0.3409  0.2958  0.4842
27374W        W43635  15.292  12.539   3.190  0.2003 -0.3008  0.0451
27375W        W43636  13.154  14.523   0.775 -0.0769  0.1942  0.3201
27376W        W43637  11.849  12.214  16.163 -0.4066 -0.1348 -0.2039
27377W        W43638   1.674   3.193   0.490  0.0175 -0.2186  0.4072
27378W        W43639  17.220  15.746  14.389  0.2749 -0.0548  0.1156
27379W        W43640  14.352  17.119   2.647  0.1615 -0.1490 -0.2524
27380W        W43641   9.019   1.500   0.302 -0.2459 -0.2474  0.0749
27381W        W43642  14.351   7.640   5.227 -0.1557 -0.0391  0.2195
27382W        W43643  16.892  10.947   5.677  0.1965  0.3274  0.3606
27383W        W43644   3.281   7.948   0.220 -0.1849  0.3138 -0.0329
27384W        W43645  16.401  12.985  12.409  0.0910 -0.1605  0.0727
27385W        W43646   5.134   9.603   3.895 -0.1293 -0.0248  0.2436
27386W        W43647   4.712  11.842   1.867 -0.1409 -0.1489  0.2263
27387W        W43648   6.903  14.502   2.569 -0.3754 -0.2472 -0.2543
27388W        W43649   7.054  11.509   1.803 -0.1584 -0.1965 -0.2653
27389W        W43650   7.132  10.917   2.966  0.1138 -0.2900  0.0033
27390W        W43651  15.180  10.546  14.548 -0.1236  0.2538  0.0092
27391W        W43652   8.898   4.637   3.656 -0.2116 -0.0600  0.1828
27392W        W43653   2.977   5.641  15.433 -0.0749 -0.0330  0.1755
27393W        W43654   1.352   6.594   2.967 -0.0157 -0.2688 -0.1341
27394W        W43655   0.746  17.604  12.315 -0.2408 -0.0747 -0.4110
27395W        W43656   6.785   0.712   2.003 -0.1234  0.0444 -0.0241
27396W        W43657  12.818   8.096   4.839 -0.2478  0.0829  0.0384
27397W        W43658  15.408   2.304   5.940 -0.1119  0.1299  0.0438
27398W        W43659   0.267   3.311   4.505 -0.0732 -0.3182 -0.0341
27399W        W43660   4.308  11.468  14.492  0.0795 -0.2581 -0.0764
27400W        W43661   9.004  16.230   4.897 -0.0717 -0.1497  0.1314
27401W        W43662   5.497   1.075   4.738 -0.1721  0.1102  0.1709
27402W        W43663  11.268  11.128   0.830 -0.2793 -0.1150 -0.1880
27403W        W43664  17.796   9.277  13.571 -0.0334  0.0856 -0.1502
27404W        W43665  10.295  14.913   0.789  0.1761  0.1022 -0.2839
27405W        W43666   1.519  10.294   2.247  0.0641  0.1196 -0.1816
27406W        W43667   6.525  14.617   1.144  0.1151  0.3181 -0.3096
27407W        W43668  10.910  13.739   1.139 -0.2894  0.1201 -0.2527
27408W        W43669   3.091  11.327  13.180 -0.1519 -0.0069 -0.0099
27409W        W43670   5.472   1.342  15.623  0.0643 -0.1027 -0.2391
27410W        W43671   5.235   6.005  16.616 -0.0784  0.1680  0.1828
27411W        W43672   5.582  13.070  16.281 -0.1573  0.0647 -0.2888
27412W        W43673  16.433  13.047   5.083  0.0108 -0.2802  0.0277
27413W        W43674   8.287  10.502   3.031 -0.1255  0.1343 -0.0476
27414W        W43675  13.722  14.451  11.669 -0.0953  0.0396 -0.2250
27415W        W43676  10.792  12.773   4.713  0.1294  0.1660  0.1861
27416W        W43677  13.500  11.592  15.916 -0.2752  0.0401 -0.1455
27417W        W43678   6.476  15.477   6.092 -0.3002 -0.3474  0.2805
27418W        W43679  12.395  16.882  13.075 -0.0427  0.0918 -0.2289
27419W        W43680  14.151   5.636   5.126  0.0768 -0.0204 -0.0378
27420W        W43681  10.641   0.029   5.239 -0.1896 -0.1223 -0.1271
27421W        W43682  16.078   8.936   2.226 -0.2032 -0.1261  0.1965
27422W        W43683   9.840   5.200  14.629 -0.0054  0.2359  0.4123
27423W        W43684   0.899   7.922  10.659  0.1794 -0.1262 -0.1416
27424W        W43685  13.694   6.015  11.142 -0.3234  0.2299 -0.0481
27425W        W43686  12.741   3.890  15.827  0.1790 -0.0583 -0.4356
27426W        W43687  16.448   0.142   3.579  0.0353  0.1804  0.1350
27427W        W43688   6.198   7.830  13.323 -0.0431 -0.3410 -0.1112
27428W        W43689   4.279  17.488  12.852 -0.4669  0.2172  0.0737
27429W        W43690   7.835  12.474  15.918  0.0214 -0.1946 -0.2744
27430W        W43691  15.306   8.720  12.765 -0.0257  0.2886  0.1447
27431W        W43692   6.065  12.583  14.276  0.0295  0.1658 -0.0370
27432W        W43693   5.340   9.846  16.518 -0.3540  0.0582 -0.0660
27433W        W43694   0.582  10.029   6.174  0.1741  0.1645 -0.0835
27434W        W43695   9.240   0.233   5.695 -0.2379  0.1671 -0.2316
27435W        W43696   1.637  17.852   4.096  0.1475  0.1079 -0.2506
27436W        W43697  10.570  14.636   2.038  0.0833 -0.1603 -0.1314
27437W        W43698   3.984   5.847  15.353  0.3921  0.2550 -0.0170
27438W        W43699   4.896   2.774  13.080 -0.0975 -0.1293 -0.2187
27439W        W43700   8.492   6.025  11.793 -0.0249  0.3091  0.3803
27440W        W43701  13.403  17.930  14.523 -0.1039  0.1392 -0.1084
27441W        W43702   7.033  13.665   5.171  0.0630 -0.2281 -0.1143
27442W        W43703  17.452   5.503   4.870  0.1114  0.3701 -0.0464
27443W        W43704   9.871   2.228   4.225  0.1293 -0.2452  0.1591
27444W        W43705  17.337   2.835   2.439  0.0768 -0.0127  0.0554
27445W        W43706   8.562  12.223  15.320  0.0287  0.0129  0.2135
27446W        W43707   5.488  17.051  13.808  0.0109  0.0819  0.0554
27447W        W43708  11.682  17.675  16.543 -0.2350 -0.2668  0.1964
27448W        W43709   0.275   7.028   3.261 -0.2812  0.2720  0.0182
27449W        W43710   7.498   3.261   3.429  0.0435  0.1214  0.0241
27450W        W43711   6.171  10.500   2.646 -0.0411 -0.0949  0.2267
27451W        W43712   5.051  13.591   2.709 -0.0798  0.0037 -0.1415
27452W        W43713  11.121   9.115   2.980  0.0346 -0.1610  0.0815
27453W        W43714   4.843   4.122   5.574 -0.0364  0.0486 -0.0068
27454W        W43715  12.049   7.309   2.531  0.0734 -0.1058  0.5048
27455W        W43716   2.063  15.185   1.594 -0.0667 -0.0627 -0.2230
27456W        W43717   0.432  10.775   5.551 -0.1418 -0.0255 -0.0324
27457W        W43718   8.079  10.474   0.170 -0.1991 -0.0700  0.0419
27458W        W43719  10.083  12.302   2.874 -0.0219  0.0472  0.0618
27459W        W43720   6.384   6.192   4.623  0.3009 -0.0180  0.1651
27460W        W43721  11.686   5.596   2.242 -0.3219 -0.1000  0.0897
27461W        W43722   0.711   9.355  15.587 -0.1751  0.0125 -0.0176
27462W        W43723   4.647   2.010  15.859 -0.0468 -0.2149 -0.2153
27463W        W43724  10.366  12.489   3.849 -0.1315  0.1461 -0.0959
27464W        W43725   1.300   9.221   4.669 -0.0996  0.2795 -0.0877
27465W        W43726  17.893   8.490  15.886 -0.1001 -0.1393  0.2000
27466W        W43727  16.643  13.340   3.437  0.1108  0.3259  0.1337
27467W        W43728   0.698  17.205   3.847 -0.0960  0.2421  0.1381
27468W        W43729  11.459  11.654  13.125 -0.0059  0.1050 -0.1139
27469W        W43730  17.976   4.211  14.724 -0.2123 -0.2022 -0.1492
27470W        W43731   1.945   8.707   0.186  0.0331 -0.0202 -0.0034
27471W        W43732   3.931   7.212   1.285 -0.2463 -0.2608  0.2099
27472W        W43733   8.717   4.352   1.829 -0.3475 -0.0693  0.1763
27473W        W43734  16.245  12.487   1.583 -0.5507 -0.0999 -0.0343
27474W        W43735   8.469  16.010   3.139 -0.1444 -0.3559  0.1967
27475W        W43736  10.680   2.263   3.699  0.2282 -0.0868  0.1952
27476W        W43737   1.347   3.953   2.649  0.0742 -0.0547 -0.2632
27477W        W43738   7.106   6.219   3.793  0.0154  0.3848  0.0192
27478W        W43739   4.693  16.590   1.396  0.1704 -0.2943  0.0455
27479W        W43740   0.947   3.641   5.931 -0.1088 -0.0444 -0.1769
27480W        W43741  12.894   9.995   1.556  0.0258 -0.0458 -0.0403
27481W        W43742   7.211  12.297  14.715  0.0978  0.0023 -0.1145
27482W        W43743   8.459   3.922   4.771  0.3304  0.0445 -0.2659
27483W        W43744  16.777  11.655  16.260  0.0428 -0.0819 -0.3370
27484W        W43745  17.804   9.754  16.471 -0.2308 -0.1663  0.1300
27485W        W43746   3.120   0.344   3.288 -0.0924  0.0220 -0.1836
27486W        W43747  14.322   6.873   2.188  0.2430 -0.0683  0.2880
27487W        W43748   4.830  16.260   0.063  0.1799 -0.0203  0.1279
27488W        W43749   1.043  11.463  14.765 -0.4462 -0.0594  0.2049
27489W        W43750   3.139  13.792  11.993  0.2830 -0.2928 -0.2343
27490W        W43751  11.995  14.660  11.012 -0.0340 -0.3993 -0.0903
27491W        W43752   7.764  17.735   3.072  0.0027 -0.1975  0.2077
27492W        W43753  13.549   8.857  16.306 -0.1033  0.1087  0.1268
27493W        W43754   4.897   2.575  11.566  0.0768  0.0654  0.0943
27494W        W43755   6.446  10.748   1.023  0.1907 -0.2194  0.2002
27495W        W43756  16.605   0.315  11.382  0.3623  0.1413 -0.2265
27496W        W43757   4.214   2.512  16.449  0.0265  0.1694 -0.0935
27497W        W43758   5.576  17.351   5.271 -0.0695 -0.0627 -0.2076
27498W        W43759  14.026  15.352   0.190 -0.1760 -0.0609  0.0189
27499W        W43760   0.546  10.517  11.506  0.0170  0.0189 -0.1151
27500W        W43761  14.960  10.460   3.311 -0.1441  0.5656  0.5649
27501W        W43762  14.273  11.446   1.730 -0.1960  0.3821 -0.0360
27502W        W43763  12.329   2.630  16.594  0.2079 -0.1145 -0.1420
27503W        W43764   1.334   8.878  15.059  0.0888 -0.3496  0.0369
27504W        W43765   3.253  12.050  15.852  0.1578 -0.1578  0.0368
27505W        W43766  15.689  13.534   0.335 -0.0603  0.1249  0.2021
27506W        W43767   1.775  15.646   1.740  0.0384  0.2169  0.1383
27507W        W43768   7.622   6.561   1.780  0.0632  0.0227  0.0113
27508W        W43769  11.327  13.601  12.337  0.1542  0.0671 -0.0273
27509W        W43770   2.678  15.752  14.830  0.0970  0.1942 -0.3098
27510W        W43771  12.261  15.408  14.808 -0.1479  0.1154 -0.1201
27511W        W43772   4.433   8.749   4.748 -0.1183  0.3332 -0.0468
27512W        W43773   4.430   3.561   1.188  0.2907  0.2779 -0.2331
27513W        W43774  11.186   4.872  11.746  0.4094 -0.1198  0.0491
27514W        W43775   0.760  10.701  11.950 -0.1168 -0.0429  0.0142
27515W        W43776   7.377  17.769   0.527  0.2197  0.0737 -0.3141
27516W        W43777  12.156  14.117   5.105 -0.1640  0.4969  0.0768
27517W        W43778  13.096  12.479   5.662  0.2952  0.1671  0.0329
27518W        W43779   7.163   5.004  16.351  0.0141  0.0720 -0.0163
27519W        W43780   1.375   3.974   0.962 -0.2538  0.1105  0.0182
27520W        W43781   6.895   2.108  11.683  0.0601 -0.3032 -0.1984
27521W        W43782   3.181   9.132  13.571  0.0527  0.3097 -0.2615
27522W        W43783  10.333  15.124   5.025  0.0390  0.2094 -0.2853
27523W        W43784   1.140   2.661  16.447  0.2453 -0.2347 -0.0890
27524W        W43785  10.875  17.746   3.815 -0.1529 -0.2735  0.5319
27525W        W43786   0.751   0.164   4.901  0.0217 -0.0308  0.2627
27526W        W43787  11.982   7.268  13.730  0.0880 -0.2174  0.0878
27527W        W43788  17.862   0.064  13.597  0.1535 -0.2810 -0.1584
27528W        W43789  11.411  15.164  11.915  0.0138  0.1999  0.0451
27529W        W43790  10.239  12.280  12.784  0.0001  0.3212 -0.3119
27530W        W43791   1.551   4.553  11.878  0.3922  0.0534 -0.1571
27531W        W43792  16.495   6.067   1.275 -0.2921 -0.2138 -0.1107
27532W        W43793   3.650  10.212  15.123 -0.0189  0.2855  0.1568
27533W        W43794   5.829   2.547   4.492  0.2928 -0.0611  0.0483
27534W        W43795  12.195   1.793  11.985  0.1585  0.0791  0.3044
27535W        W43796  16.667   0.517   4.330 -0.0088  0.0730  0.0103
27536W        W43797  13.428  12.870   5.387 -0.2546  0.1446  0.0954
27537W        W43798   8.570  13.909   2.732 -0.1370  0.1670  0.0785
27538W        W43799  10.796   2.234  14.599  0.0529  0.2239 -0.3948
27539W        W43800  16.837  17.466   3.355 -0.0624  0.0379  0.1064
27540W        W43801   2.854   1.066  13.377  0.1331 -0.0509 -0.2140
27541W        W43802   4.306  13.462  14.892 -0.1755  0.3653 -0.0118
27542W        W43803  16.006  18.188   4.774 -0.1947  0.1244 -0.2408
27543W        W43804   5.324   0.083  14.293  0.2459  0.2054  0.1587
27544W        W43805  11.610  17.946   3.241 -0.1430 -0.2104  0.1145
27545W        W43806   4.266   9.153   3.921  0.1458  0.0940  0.1468
27546W        W43807  17.443   7.826  15.453  0.0749  0.1572  0.1184
27547W        W43808   2.370   4.860   2.419  0.4100  0.0365  0.0899
27548W        W43809   0.596  13.658  10.940  0.2407  0.1156  0.1827
27549W        W43810   2.480  10.964   3.680  0.0139 -0.0053 -0.1801
27550W        W43811   6.859   2.800  14.617 -0.3200  0.0741  0.1456
27551W        W43812   8.008  14.990  13.236 -0.0376  0.1156  0.2379
27552W        W43813   8.381  12.666  15.444  0.1560  0.1817  0.0778
27553W        W43814  12.197   6.157   4.844 -0.0587 -0.1279  0.2852
27554W        W43815   0.481   6.857   1.976  0.0005  0.1969  0.0035
27555W        W43816  10.844  11.118   5.345  0.0314 -0.1321 -0.1364
27556W        W43817   9.155   6.742   5.083  0.1310  0.2066  0.0076
27557W        W43818  15.027   3.756  16.036 -0.0097 -0.0298 -0.1965
27558W        W43819  11.024   3.314  14.197  0.0241  0.1081  0.0073
27559W        W43820  16.323   9.027  13.846 -0.0414 -0.0521 -0.2419
27560W        W43821  17.959   3.382  16.225  0.2809 -0.0607  0.0503
27561W        W43822   4.235  14.718   0.823  0.1249  0.1569 -0.0992
27562W        W43823   1.469   9.615  12.800 -0.2348  0.1466  0.0034
27563W        W43824   8.517   0.632   0.524  0.2816  0.2966 -0.1872
27564W        W43825  17.135   1.753   3.525  0.0042 -0.2172 -0.1174
27565W        W43826   4.814   1.809  11.914 -0.0951 -0.2597 -0.1955
27566W        W43827  18.009  11.860   4.464 -0.0071 -0.4226 -0.0094
27567W        W43828  11.165  12.790  16.597 -0.2777  0.1013 -0.0758
27568W        W43829  10.713   4.653   3.635  0.1750 -0.0677  0.2833
27569W        W43830   0.496   2.728   5.269 -0.2014 -0.0267 -0.2175
27570W        W43831   7.969   5.041  14.230 -0.0509 -0.0275 -0.2204
27571W        W43832   4.330  15.279  12.190  0.0713 -0.2051 -0.0464
27572W        W43833   8.123   5.476  12.571 -0.0426 -0.2643 -0.2642
27573W        W43834  14.874  15.592  11.733 -0.1068 -0.0525 -0.1747
27574W        W43835   4.000   5.071   0.713 -0.0226 -0.0312  0.1260
27575W        W43836   2.398  10.278   1.187  0.2468  0.2480 -0.1552
27576W        W43837  15.206  17.599  12.141 -0.0619  0.2259  0.1083
27577W        W43838   0.259   2.017  14.124  0.2335  0.0479  0.0005
27578W        W43839  11.940  15.753  11.735  0.2810 -0.2065  0.1979
27579W        W43840  15.027   3.696   0.220  0.2671 -0.1837 -0.0559
27580W        W43841   0.018  11.878   3.617  0.0284  0.2645 -0.0325
27581W        W43842   4.476   6.880  16.481  0.1041 -0.0801 -0.2609
27582W        W43843   0.336  17.517   2.996 -0.4562  0.0492 -0.5561
27583W        W43844  14.987   8.543   1.542 -0.1622  0.3663  0.0569
27584W        W43845   7.365   1.534  13.402  0.1547 -0.0249 -0.0387
27585W        W43846  11.924  16.426   0.134  0.0939  0.1130 -0.2876
27586W        W43847  16.808  13.208   2.561  0.1534  0.0747 -0.1321
27587W        W43848   9.618   1.670   1.741  0.1858 -0.3448 -0.0961
27588W        W43849   8.160   6.147   3.278 -0.2153 -0.0637  0.1446
27589W        W43850  13.620   6.049  14.305  0.0219 -0.2434  0.5389
27590W        W43851   9.299   0.363  12.473 -0.5312 -0.0559 -0.1237
27591W        W43852   1.441  15.649   3.810  0.0886 -0.2753  0.0609
27592W        W43853   0.815   7.489  14.756 -0.2985  0.1518 -0.0355
27593W        W43854  10.816   3.563  12.084  0.0361 -0.0439 -0.0848
27594W        W43855   5.149  11.096  16.387  0.2495 -0.0643  0.3337
27595W        W43856  10.857  16.892   3.992 -0.1551 -0.0695  0.1453
27596W        W43857  14.252   7.684  16.642 -0.0007  0.0968 -0.0251
27597W        W43858  13.479  14.389   0.361 -0.1778 -0.0848 -0.4315
27598W        W43859  10.012  17.567   3.199  0.2803 -0.0786 -0.0228
27599W        W43860   4.138   9.999  12.920  0.1331 -0.4529 -0.2759
27600W        W43861   0.829   2.226   4.592  0.1244 -0.0532  0.1407
27601W        W43862   5.368   2.609  13.338 -0.2494  0.0511  0.1560
27602W        W43863  13.827   7.573  15.784  0.0487  0.0786  0.4592
27603W        W43864  15.280   4.428  16.456  0.1012 -0.2671 -0.1401
27604W        W43865   0.159   0.210  11.835  0.1842 -0.1808 -0.2180
27605W        W43866   3.466   0.314  13.639  0.0141  0.1172 -0.2562
27606W        W43867  11.313  15.855  11.892 -0.1766 -0.2800 -0.4457
27607W        W43868   7.989  12.460   0.161 -0.0426 -0.0655 -0.1180
27608W        W43869   0.371  14.708   5.613 -0.1871  0.1407  0.0024
27609W        W43870   7.719  12.211  13.613  0.3453 -0.0148  0.0166
27610W        W43871   2.593   7.641   1.323  0.1636  0.2536  0.1518
27611W        W43872  16.064  14.365   0.087 -0.2339  0.0214 -0.1827
27612W        W43873   9.731   7.645  16.199  0.0445  0.4619  0.1672
27613W        W43874  12.087   1.746   0.104 -0.0676 -0.0921  0.0350
27614W        W43875   5.552   0.496   2.471 -0.1303 -0.0863  0.0269
27615W        W43876  11.131   1.250   2.373 -0.0533  0.1076  0.4130
27616W        W43877  17.627   7.752  16.405  0.1032  0.0350 -0.1413
27617W        W43878   6.680   4.448   1.524  0.2047  0.0619  0.4865
27618W        W43879  14.258   9.149  13.442  0.3051 -0.0297 -0.0010
27619W        W43880   5.148   1.473  16.103 -0.2465 -0.1067 -0.1062
27620W        W43881   0.044   7.250  15.294  0.0573 -0.0671 -0.0179
27621W        W43882  16.644  11.033  12.466  0.0426  0.0119  0.5552
27622W        W43883  17.188   5.579  13.953 -0.3359  0.2978 -0.0994
27623W        W43884   6.500   0.308   2.773  0.0206 -0.2574 -0.0989
27624W        W43885  15.145   8.175  15.351  0.1067  0.2820 -0.2970
27625W        W43886  13.196   0.143   0.155  0.0165 -0.3095 -0.0246
27626W        W43887   1.428   9.766  13.360 -0.3353  0.3824 -0.0617
27627W        W43888  16.019   1.270  14.051 -0.0111  0.1143 -0.1006
27628W        W43889  15.089  17.840  15.224 -0.0009 -0.1662  0.0640
27629W        W43890  18.037   8.017   4.611 -0.0069 -0.0583 -0.0679
27630W        W43891  10.896   2.769   3.472 -0.0430 -0.1001 -0.1261
27631W        W43892   6.523   8.156   0.282 -0.2070  0.0408  0.1800
27632W        W43893  16.883   8.971   3.868  0.1932  0.1270  0.0565
27633W        W43894   2.928   0.049  11.322  0.2018 -0.0294 -0.1532
27634W        W43895   0.596   9.538  12.154 -0.0200 -0.1021  0.1717
27635W        W43896  11.534  11.922  12.182  0.0538 -0.0707  0.1298
27636W        W43897  17.195   0.783  13.230 -0.2233 -0.0432 -0.4476
27637W        W43898   0.637  11.035   3.801 -0.1174 -0.0885 -0.1410
27638W        W43899  11.119   9.803   0.879 -0.0291 -0.0866 -0.1012
27639W        W43900  12.353  15.096   2.922 -0.0397  0.1193  0.1877
27640W        W43901  14.658   6.521   4.543  0.1606 -0.1319 -0.0443
27641W        W43902   2.389  18.124  15.759  0.2079 -0.0253  0.2900
27642W        W43903   3.588  15.454   0.096 -0.0397  0.3942 -0.1898
27643W        W43904  13.760   1.309   2.883 -0.3519  0.2128  0.1228
27644W        W43905   0.435   5.276   3.745  0.1421 -0.1546  0.2029
27645W        W43906  14.933   9.550  11.178 -0.1585  0.3582 -0.0577
27646W        W43907   2.379  13.484   1.048 -0.1977 -0.0725 -0.0147
27647W        W43908  10.487  17.445   3.776 -0.0500  0.1461  0.1054
27648W        W43909  18.164   7.884  16.201  0.0321  0.0277 -0.1049
27649W        W43910  13.684  16.761  14.021 -0.1840  0.0926  0.1312
27650W        W43911   0.357   6.691  13.408  0.0327 -0.1149  0.4731
27651W        W43912   7.547   6.758   4.523  0.1322 -0.1245  0.0839
27652W        W43913  12.499   8.536  15.315  0.1590  0.0484 -0.1093
27653W        W43914   7.221   1.782   3.533 -0.2621  0.0476  0.3079
27654W        W43915   6.242  17.153  14.544  0.1767 -0.2659 -0.1542
27655W        W43916   6.966  17.391   0.309  0.5164 -0.0649 -0.2019
27656W        W43917  11.835   4.154  11.463 -0.0318  0.1595  0.2301
27657W        W43918  13.189  16.177  12.234 -0.0025 -0.0129 -0.1439
27658W        W43919   6.651   3.460   1.353  0.0140  0.0150  0.1142
27659W        W43920   9.987   4.487   5.097 -0.0660  0.0942  0.3188
27660W        W43921  10.357   7.520  13.791 -0.1399 -0.0052  0.1017
27661W        W43922   3.277   6.118   2.419  0.0509  0.0439 -0.0208
27662W        W43923  13.408   4.382   3.392  0.0847 -0.1280 -0.2812
27663W        W43924  10.977  14.730  16.374 -0.2169  0.0689 -0.1558
27664W        W43925  17.070  13.975  12.340 -0.1987  0.2235  0.1778
27665W        W43926  16.133  11.524   1.927  0.0565  0.0893 -0.4626
27666W        W43927   9.982   1.694   4.170 -0.0249 -0.2365 -0.0149
27667W        W43928   2.273  17.757  14.383  0.1269 -0.2995 -0.1167
27668W        W43929   2.435  16.213  12.792 -0.0890 -0.1349  0.3643
27669W        W43930  14.686  11.649   3.933 -0.0237  0.0458 -0.2365
27670W        W43931   4.176  12.446  11.485 -0.1894 -0.2111 -0.1742
27671W        W43932  15.165   5.341   2.690  0.1470  0.1282 -0.2247
27672W        W43933  16.341  13.662   3.219  0.0521  0.1224 -0.1793
27673W        W43934   7.160  16.673  12.689 -0.1867 -0.0876  0.1595
27674W        W43935   7.093  13.305   2.099  0.2655  0.0394  0.0736
27675W        W43936   7.189  16.199  13.668 -0.3360 -0.0710 -0.0943
27676W        W43937   4.641  14.930  13.975  0.0326  0.1635  0.4192
27677W        W43938   7.448  10.676   3.755  0.1804 -0.0128  0.0070
27678W        W43939   7.817   6.964   2.024 -0.6248 -0.2625  0.0738
27679W        W43940  16.544  17.621   2.418  0.0459  0.2063  0.1361
27680W        W43941  12.363  13.444  14.243  0.1420 -0.1105  0.1393
27681W        W43942   8.354   9.506   3.167 -0.1313  0.1247 -0.0801
27682W        W43943   1.205  15.822   0.020 -0.1113  0.1207  0.0146
27683W        W43944   7.173   9.214  14.265 -0.1803  0.1129  0.0680
27684W        W43945  11.882   6.102  12.579 -0.0067  0.0526  0.2886
27685W        W43946  13.580  14.850  12.231  0.0488 -0.1031  0.1612
27686W        W43947  10.256  11.123  11.460 -0.0815 -0.2995  0.0658
27687W        W43948  17.741   6.891   3.671  0.2583  0.2274 -0.0178
27688W        W43949   6.417  17.553  12.832 -0.0371 -0.5113 -0.1165
27689W        W43950  14.854   9.265  14.812  0.1096 -0.0727  0.0320
27690W        W43951  17.128   8.282  11.457 -0.1806  0.2386 -0.1540
27691W        W43952   7.156  15.158  13.029 -0.3204 -0.3536 -0.3677
27692W        W43953   6.739   3.029  15.996 -0.2677 -0.2243 -0.2820
27693W        W43954  14.075   9.063   1.598  0.0320  0.3986  0.2190
27694W        W43955   1.148   7.603   5.900  0.1013  0.1235 -0.1550
27695W        W43956  16.681  12.617   5.426 -0.0109  0.1708 -0.1257
27696W        W43957   7.174  10.191  15.689 -0.0563 -0.0496 -0.1561
27697W        W43958   6.557   4.662   2.080 -0.1634  0.3049  0.0983
27698W        W43959   9.474   9.176   1.789 -0.0573 -0.0716  0.3967
27699W        W43960  17.634  16.557   3.344 -0.1568 -0.1590  0.2260
27700W        W43961  13.669   9.056  11.217  0.2037 -0.4316  0.0500
27701W        W43962  15.860   7.974   3.846 -0.0987 -0.0936  0.2123
27702W        W43963  13.787   8.650   1.440 -0.4084 -0.1361 -0.2131
27703W        W43964  10.896   5.134   3.802  0.0371  0.0825 -0.1769
27704W        W43965   7.387   0.073   5.597  0.3112  0.0011  0.0655
27705W        W43966   1.616   2.377   2.900  0.1162 -0.1291  0.1396
27706W        W43967   7.690  14.227  15.721 -0.1470 -0.1664  0.0114
27707W        W43968   1.565   9.381   3.222  0.1022  0.0988 -0.1327
27708W        W43969   1.583   0.024   5.859 -0.1643 -0.1966  0.1517
27709W        W43970  15.147   7.164  14.577 -0.2210  0.0621 -0.1705
27710W        W43971   4.602   9.120   3.600 -0.0339 -0.0820  0.1157
27711W        W43972  13.732   7.623  15.317  0.1254  0.1427 -0.2060
27712W        W43973   9.954  13.130   5.568 -0.1384 -0.1560 -0.2567
27713W        W43974  16.906   1.698   0.275 -0.3242 -0.0655 -0.1575
27714W        W43975   1.737  13.469  11.959 -0.0287 -0.0709 -0.1226
27715W        W43976   6.757  16.268   2.712 -0.0472  0.4227  0.0541
27716W        W43977   6.568   9.372   2.867  0.4867  0.2603  0.1218
27717W        W43978   5.996  10.210   5.077 -0.1992 -0.0582  0.1789
27718W        W43979   5.343  13.588   5.048 -0.0965 -0.0912  0.0851
27719W        W43980  11.080  18.068  13.901  0.2073  0.3800 -0.0103
27720W        W43981   0.927  12.371  14.274 -0.1469 -0.2077  0.2148
27721W        W43982   6.786  17.966  16.282 -0.0855  0.0140  0.0771
27722W        W43983  15.534   7.761   2.487 -0.2745  0.0784  0.3740
27723W        W43984  16.632  13.298  14.218  0.2642  0.1924  0.3004
27724W        W43985   6.351   0.933   1.920 -0.0413 -0.1629  0.0357
27725W        W43986  12.426  14.348  14.105 -0.0104 -0.0100 -0.0426
27726W        W43987  10.952   9.093   0.906  0.2009 -0.1390  0.0102
27727W        W43988   5.366   1.767   1.559  0.2122 -0.0239 -0.2252
27728W        W43989  14.626   5.447  15.165  0.1813 -0.2275 -0.2180
27729W        W43990   0.422  17.626   4.584  0.2453  0.2889  0.1928
27730W        W43991  15.592   0.879  12.840  0.1342 -0.1311  0.0760
27731W        W43992   2.204   6.245   0.256 -0.1261 -0.1329  0.1015
27732W        W43993   7.965  17.496   3.956 -0.1703 -0.1483  0.0785
27733W        W43994  15.051   0.989  12.575  0.1782 -0.1110  0.0986
27734W        W43995   6.589  10.854  15.106  0.2355 -0.3699 -0.1130
27735W        W43996   1.838   5.375  15.856 -0.0143  0.1861  0.3269
27736W        W43997  10.755  13.718   3.416  0.1741 -0.1861 -0.1293
27737W        W43998   3.822  13.753  14.723  0.0515 -0.4131 -0.0849
27738W        W43999  10.954  17.759  14.649 -0.1130 -0.0274  0.0760
27739W        W44000   0.151   8.546  14.504 -0.1888  0.1521 -0.0563
27740W        W44001  12.419  17.809   3.475  0.1093 -0.1910 -0.2200
27741W        W44002  16.491   7.341   5.025 -0.0166 -0.3758 -0.0897
27742W        W44003   8.033   5.865   1.362  0.1566 -0.0925 -0.2242
27743W        W44004  16.172  10.117  16.145  0.0358  0.1006  0.0389
27744W        W44005   9.060   4.824   2.364  0.0854  0.2655  0.0719
27745W        W44006  14.359  12.012  12.452 -0.1630  0.1529  0.0437
27746W        W44007   0.735   5.140   0.307 -0.1662 -0.2079 -0.0314
27747W        W44008  12.102   0.942   3.025 -0.0322 -0.3611  0.1182
27748W        W44009   5.689   9.595   2.642  0.0707 -0.2533 -0.0579
27749W        W44010  14.533   5.564  12.562  0.0336  0.2147  0.0298
27750W        W44011   5.512  17.342  16.113 -0.1671  0.1138 -0.0353
27751W        W44012   7.549   6.691   2.852 -0.4240  0.0818  0.0854
27752W        W44013  15.243  11.615   2.848 -0.0992 -0.0634 -0.0149
27753W        W44014   4.247  10.828  12.467 -0.1127 -0.0659 -0.2533
27754W        W44015   8.438   8.936   5.369 -0.0337 -0.1457  0.1381
27755W        W44016   5.154   3.649  12.244 -0.0525  0.0490 -0.0856
27756W        W44017   2.628  14.015   4.620  0.0534 -0.0486 -0.0373
27757W        W44018   6.465   8.350  12.096  0.0067 -0.0766 -0.1547
27758W        W44019  17.106   3.061  12.978 -0.1989 -0.1731 -0.1303
27759W        W44020   3.004   8.430   5.052  0.0030  0.3864  0.3661
27760W        W44021  12.026   1.605   2.305  0.2658 -0.1396 -0.0149
27761W        W44022   0.439   0.463  11.460 -0.3105 -0.2782  0.1806
27762W        W44023  14.967   8.536  13.174  0.2420 -0.0516 -0.3496
27763W        W44024   5.710  11.141   4.795 -0.1076 -0.0910 -0.0779
27764W        W44025   3.535   2.596   6.679  0.3984  0.1522  0.0623
27765W        W44026   5.598  12.300  14.297 -0.0571 -0.1977  0.3417
27766W        W44027  15.197   4.152  13.394  0.0707 -0.6119  0.2036
27767W        W44028  10.942   6.748  13.170  0.0048 -0.1332 -0.2101
27768W        W44029   4.463  11.315  15.589  0.2204  0.1779 -0.1186
27769W        W44030   6.952   2.287   1.688  0.3754 -0.2098  0.1963
27770W        W44031   4.713   5.389  11.979  0.1194 -0.1356 -0.1454
27771W        W44032  18.016  11.094   0.313 -0.2036 -0.1124  0.0544
27772W        W44033   8.131  13.597  15.641 -0.2236 -0.1226 -0.1814
27773W        W44034  10.133  11.454  16.540  0.0791 -0.1144 -0.1336
27774W        W44035   0.535   0.711  16.089  0.1944 -0.1199 -0.1478
27775W        W44036   0.533   4.473   2.386 -0.2536  0.1636  0.1999
27776W        W44037   0.825  17.011  16.485 -0.4204  0.2514 -0.1229
27777W        W44038  15.966  16.358  14.199  0.0985  0.0237 -0.0830
27778W        W44039  10.419   8.709  15.655  0.2412  0.2782 -0.0010
27779W        W44040  12.642   6.220  11.054  0.0043 -0.1806 -0.1093
27780W        W44041  10.168   8.292   2.335 -0.0802 -0.1912 -0.0309
27781W        W44042  14.817   3.431  15.678  0.3157 -0.1039 -0.1153
27782W        W44043  12.747   2.943   0.673  0.2383  0.0882  0.3224
27783W        W44044   5.940   3.535   1.723 -0.2113 -0.1655  0.0375
27784W        W44045  13.489   3.606   4.512 -0.2756 -0.2599 -0.3143
27785W        W44046   0.289  15.828  15.405 -0.1255  0.0796 -0.0440
27786W        W44047  17.645   3.044  12.325  0.0244  0.1374  0.0539
27787W        W44048   8.825  17.544   3.706 -0.0525  0.1974  0.0984
27788W        W44049  13.761   4.287   3.805 -0.1250 -0.1185  0.2031
27789W        W44050   6.467   5.578  16.530  0.3283 -0.0680  0.2139
27790W        W44051  11.894   8.448  13.341 -0.2675  0.0070  0.1222
27791W        W44052   9.678   3.181   3.535  0.0812  0.0526  0.1103
27792W        W44053  15.133  14.127  16.127 -0.1986  0.0961 -0.0462
27793W        W44054   4.338  15.303   5.388  0.0677 -0.2348  0.0166
27794W        W44055  16.055  14.775  13.252 -0.2116 -0.0711 -0.2683
27795W        W44056  13.207  17.421   1.081  0.0578  0.2003  0.1558
27796W        W44057   9.400  14.370  14.025 -0.1440 -0.1975 -0.2093
27797W        W44058  11.217   5.933   4.357  0.2299  0.1249 -0.0765
27798W        W44059  14.894  15.579  10.857  0.1252  0.1350 -0.0595
27799W        W44060   6.711  13.426   1.820 -0.0778  0.1674 -0.0463
27800W        W44061  10.796   8.445  12.405  0.3877  0.2176 -0.1576
27801W        W44062   2.895  13.690   1.985 -0.1448 -0.0589  0.1175
27802W        W44063  10.077  14.208  12.359 -0.0815  0.1339 -0.0992
27803W        W44064  16.291  11.678  13.439 -0.3133  0.1681  0.1336
27804W        W44065   6.140  12.563   1.719 -0.2499  0.1874 -0.0986
27805W        W44066  16.555   0.263  12.279 -0.0971  0.0347 -0.3159
27806W        W44067   7.190  10.165   4.970 -0.2390 -0.0352 -0.2339
27807W        W44068  13.456   4.502  15.567  0.1515 -0.1424 -0.0767
27808W        W44069   6.307  13.060   5.067  0.1377 -0.0990 -0.2592
27809W        W44070  14.148   7.421   4.121  0.4630 -0.0934 -0.0668
27810W        W44071  17.117  12.713  13.080 -0.0342 -0.0503 -0.2416
27811W        W44072   7.433  11.945  11.880  0.2509  0.2867 -0.0498
27812W        W44073  12.296   1.416   2.757  0.1620  0.0320  0.4139
27813W        W44074  16.110   7.872  11.376 -0.2136 -0.0156 -0.0931
27814W        W44075   9.525  16.243  16.465  0.0528 -0.1223  0.1202
27815W        W44076   9.796   5.582  12.081 -0.1849 -0.1522  0.0291
27816W        W44077  11.078   7.079  14.262 -0.1607  0.1641 -0.0467
27817W        W44078   7.417  13.291   5.236 -0.2185 -0.0805  0.0638
27818W        W44079   6.055   8.367  13.465  0.0948 -0.1195 -0.0118
27819W        W44080  16.608  14.889  13.918  0.2489  0.1160 -0.1101
27820W        W44081   5.177   7.761   0.283 -0.0024 -0.3294 -0.1518
27821W        W44082  10.476   0.449  12.835  0.0185 -0.1324 -0.2495
27822W        W44083   7.867   7.339   4.496  0.0548  0.0189  0.0315
27823W        W44084  14.971   1.296   3.494  0.1209  0.1437 -0.0902
27824W        W44085   2.462  10.924  13.418  0.2013 -0.1240  0.2056
27825W        W44086   7.322  14.100   5.232  0.0838  0.1784 -0.1954
27826W        W44087  17.120   1.273  12.802  0.2837  0.1869 -0.1049
27827W        W44088  14.543  17.914  11.766 -0.0743  0.1709  0.0121
27828W        W44089   3.231  14.756  16.184  0.1035 -0.1800  0.0657
27829W        W44090   7.534   6.377   3.317 -0.2016  0.0043  0.0669
27830W        W44091  13.053  12.685  12.667 -0.0405 -0.1005 -0.0995
27831W        W44092   2.588  16.307  15.630 -0.1318  0.1917  0.1838
27832W        W44093  17.790  14.377  15.793  0.1823 -0.1325 -0.2377
27833W        W44094  10.395  12.584  14.311 -0.3353 -0.2413 -0.0968
27834W        W44095  16.450   1.200   1.765  0.2416 -0.1900  0.3067
27835W        W44096  10.562   0.747   4.145  0.0605  0.3171  0.1704
27836W        W44097   3.611  15.986   5.219  0.0760  0.2473  0.0063
27837W        W44098   3.359  17.151  15.304 -0.1747 -0.1749  0.3584
27838W        W44099   4.190  11.029  11.938  0.4692 -0.2692 -0.0355
27839W        W44100  17.067  12.583  14.717  0.0739  0.2688  0.2247
27840W        W44101   9.802   3.374   2.880 -0.0729  0.0750 -0.0889
27841W        W44102   2.385   3.797  13.015  0.3218  0.1988  0.0931
27842W        W44103   4.136  17.583   5.154 -0.1907 -0.0386 -0.0548
27843W        W44104  11.275   2.185  10.460 -0.0779 -0.0251  0.3729
27844W        W44105   5.584   9.859   3.716 -0.0817  0.1627  0.0958
27845W        W44106   2.153   1.783   5.858  0.3973 -0.3429 -0.1200
27846W        W44107   1.881   0.675   0.481  0.2699  0.1867 -0.0730
27847W        W44108   4.128   9.275  16.012 -0.0446  0.0042  0.1513
27848W        W44109   8.170  13.332   0.454  0.0743  0.0934 -0.1028
27849W        W44110   7.647   5.497   3.623 -0.3125 -0.1270 -0.1834
27850W        W44111   8.650  17.854  16.159 -0.2424 -0.3002 -0.1335
27851W        W44112  14.548  10.794   2.511 -0.0304 -0.4615  0.4268
27852W        W44113  17.108   6.600  14.077 -0.5232  0.0959 -0.3073
27853W        W44114   3.702  12.703  13.398  0.5543 -0.1089 -0.1669
27854W        W44115  12.039  13.710   1.295  0.2170  0.0553 -0.0094
27855W        W44116  13.267   0.467   3.685  0.0950 -0.0885  0.0088
27856W        W44117  13.934  12.159  12.175 -0.0394  0.3701  0.0881
27857W        W44118  17.056  10.184   1.931 -0.0499 -0.2173  0.0732
27858W        W44119   6.838  10.643  13.750 -0.1027  0.0542  0.0630
27859W        W44120  10.859  17.046  15.434 -0.1028 -0.3263  0.2456
27860W        W44121   7.731   7.672   0.996 -0.3672 -0.0232 -0.1810
27861W        W44122   9.198  11.176   2.133 -0.1359 -0.0509  0.1164
27862W        W44123   8.179  13.911   5.059  0.1204  0.0576 -0.2153
27863W        W44124  16.366  14.449  15.633  0.2054 -0.4388 -0.1654
27864W        W44125   6.041   6.398  12.944 -0.1455 -0.1153  0.0760
27865W        W44126   6.580   1.696   1.984  0.1068  0.1531  0.0831
27866W        W44127   3.060  17.089  12.956 -0.0108  0.0972  0.3112
27867W        W44128   2.176   4.251   5.176  0.2333  0.1620 -0.0709
27868W        W44129  15.072   2.457  14.125 -0.2128 -0.1241 -0.0242
27869W        W44130  15.526   0.355   3.298  0.0734 -0.2517 -0.1468
27870W        W44131   3.436   4.038  12.293  0.1990  0.4261 -0.2171
27871W        W44132   5.070   2.462   0.607 -0.0435 -0.1477 -0.3016
27872W        W44133   3.310  15.534  13.886  0.0187 -0.4493 -0.2684
27873W        W44134   0.252  12.035  16.273 -0.2207  0.2742 -0.0305
27874W        W44135   8.068   1.045  15.937  0.1430 -0.0550 -0.2953
27875W        W44136  11.170  17.729   5.013  0.1902 -0.0393 -0.2373
27876W        W44137   5.776  13.237  12.255 -0.2617 -0.2713 -0.0376
27877W        W44138  16.140   0.245  16.466 -0.3442  0.0614 -0.0773
27878W        W44139   7.205  16.693  14.675 -0.2906 -0.2802  0.0894
27879W        W44140  17.772  14.164   4.485  0.0490  0.3476 -0.3939
27880W        W44141  16.121   4.159  11.714  0.0412  0.0406 -0.0943
27881W        W44142  10.972  16.023   1.881  0.0670 -0.1950  0.0084
27882W        W44143   2.246   9.997   0.258 -0.1504 -0.0173  0.1778
27883W        W44144   5.945   2.234   5.297 -0.2314 -0.1443 -0.3556
27884W        W44145   5.012   1.379   5.081 -0.0978  0.2337  0.0995
27885W        W44146   0.116   8.401  16.241  0.0845 -0.0430  0.0882
27886W        W44147   0.505  12.319  11.579 -0.0518 -0.2056  0.0283
27887W        W44148   9.187  14.390   0.667 -0.1187 -0.2125  0.2316
27888W        W44149   8.847  13.346   0.733 -0.0112  0.3303  0.0411
27889W        W44150  10.580   5.622  14.408 -0.0148 -0.3237 -0.0442
27890W        W44151   6.697   8.849  15.414  0.0521  0.0540 -0.1694
27891W        W44152  10.727   2.645  14.939 -0.4811  0.0444 -0.0717
27892W        W44153   0.006   3.236  13.553  0.4004  0.0092 -0.0856
27893W        W44154   2.013   1.801  15.862  0.2564  0.0812  0.0666
27894W        W44155  11.533   0.766  12.970  0.0856 -0.0730  0.2562
27895W        W44156  14.192  18.122  12.523 -0.1707  0.2079 -0.0858
27896W        W44157  17.171   1.101   0.783  0.2764  0.3189  0.3343
27897W        W44158  13.621  15.037   5.681 -0.1467  0.4339  0.1065
27898W        W44159   5.254   9.652   4.721 -0.2096  0.2238  0.1827
27899W        W44160  11.976   2.087  13.147  0.2545 -0.1813 -0.1250
27900W        W44161   9.548   6.146   0.041 -0.2436 -0.1251  0.0935
27901W        W44162   3.757   5.154   3.230  0.2266  0.2646 -0.1361
27902W        W44163  16.856   7.975  15.517 -0.2654 -0.0811  0.0306
27903W        W44164  10.820   1.261  15.614  0.2898 -0.3840 -0.2304
27904W        W44165   0.763   6.323  13.610 -0.1783  0.2284 -0.0272
27905W        W44166  14.953   1.933   5.216 -0.0820  0.0932 -0.0743
27906W        W44167   8.485  12.105   0.826  0.4863 -0.2818 -0.2640
27907W        W44168   4.138  17.878  13.160  0.0032  0.0123  0.0455
27908W        W44169   4.406   7.483  15.868  0.0324 -0.0346 -0.1249
27909W        W44170   0.102   4.005   1.508 -0.1015 -0.0212 -0.1965
27910W        W44171   7.092   5.365  10.849  0.0888 -0.0043 -0.1211
27911W        W44172   3.296  11.063   1.198  0.0421  0.3197  0.0307
27912W        W44173   9.795   6.313   1.377  0.1211  0.0705 -0.1216
27913W        W44174  12.174   4.878  12.260 -0.3054 -0.1743  0.0265
27914W        W44175  17.592   0.151  12.364 -0.0890  0.3330  0.0325
27915W        W44176   1.915   1.332   5.693 -0.1225  0.1371  0.1314
27916W        W44177   3.328  14.367  11.849 -0.0686 -0.0904 -0.0308
27917W        W44178   2.374   5.463   3.950  0.3368 -0.1556 -0.1363
27918W        W44179  10.512  11.600  11.416 -0.0728 -0.1810 -0.1651
27919W        W44180   6.917   9.940   4.258 -0.2611 -0.2708 -0.1720
27920W        W44181   6.993  16.877   4.962 -0.1079 -0.1321 -0.0055
27921W        W44182  10.655  14.995   0.435  0.0799 -0.0479  0.0646
27922W        W44183   3.690  13.362   1.537 -0.0699 -0.1096 -0.0955
27923W        W44184  13.794  14.687   2.503  0.1011  0.0240  0.3851
27924W        W44185   9.147   1.779   4.635 -0.3159  0.1856  0.2129
27925W        W44186   7.013  13.251  14.305  0.1024 -0.1973 -0.0705
27926W        W44187  16.700  15.188  11.631  0.0219 -0.1257  0.0957
27927W        W44188  11.130   3.694   0.788 -0.1741 -0.4604 -0.1356
27928W        W44189   5.091  12.751   1.739 -0.0034 -0.0456 -0.2013
27929W        W44190   2.474   5.206   5.152  0.0821 -0.0414 -0.0810
27930W        W44191   7.458   4.770  12.607 -0.0776  0.0065 -0.2100
27931W        W44192  13.667   2.630  16.144 -0.1271 -0.0723 -0.1451
27932W        W44193   8.409   9.170  11.393  0.4135 -0.1730 -0.3129
27933W        W44194   2.673   1.898   5.809  0.1082  0.1584  0.0420
27934W        W44195   6.125   1.129   1.237 -0.1523 -0.0236 -0.1320
27935W        W44196  14.818  15.404   1.152 -0.3146  0.1761 -0.1246
27936W        W44197  17.775   7.469  12.360  0.1429 -0.0040  0.2673
27937W        W44198   9.629  16.350  11.565 -0.0499  0.1172  0.3698
27938W        W44199  17.987   6.126   3.082  0.1407  0.0937  0.0845
27939W        W44200   3.872   2.220  15.221  0.2970  0.0369 -0.0538
27940W        W44201   6.461  11.700   2.798  0.2767 -0.3912 -0.0403
27941W        W44202   6.581   5.668   0.367  0.0216  0.1391  0.1635
27942W        W44203  16.114   2.033  13.831 -0.0293  0.1820  0.0901
27943W        W44204   7.628   2.103  14.410 -0.0345 -0.0159 -0.5038
27944W        W44205   8.202   1.572   3.703  0.0858  0.0900 -0.1001
27945W        W44206  17.182  16.696  14.358  0.1717  0.1383  0.1248
27946W        W44207  11.218  11.246   1.781 -0.0128  0.0397  0.0976
27947W        W44208  16.334  16.439  15.794 -0.2933  0.1396  0.2997
27948W        W44209  11.822  16.358  13.145  0.3708  0.1593 -0.1990
27949W        W44210   9.274   3.417  16.465  0.5041  0.0594  0.1805
27950W        W44211   2.068   5.260  15.369  0.2545  0.0261 -0.1787
27951W        W44212  16.281   2.517  13.062  0.2839 -0.0265  0.1425
27952W        W44213   7.513   6.383  11.876 -0.2788 -0.1222 -0.1659
27953W        W44214   7.517   4.544  13.491 -0.0507 -0.3133  0.0832
27954W        W44215  17.138   9.853  11.922 -0.0986  0.1184  0.1377
27955W        W44216   9.828  14.420  16.271 -0.1580  0.0435  0.1448
27956W        W44217   1.001  15.649  12.237  0.1859  0.0130 -0.0870
27957W        W44218   1.597  15.817   1.275 -0.0704  0.2863  0.0896
27958W        W44219   8.461   1.575  12.888  0.1557  0.0088 -0.4015
27959W        W44220  14.512   9.657  15.791 -0.1672  0.2219 -0.0340
27960W        W44221  11.170   8.565   4.144 -0.4660 -0.1505  0.2412
27961W        W44222  10.658  13.787   1.558  0.3213 -0.1551  0.0550
27962W        W44223   5.988  12.883   2.106  0.2819  0.0961  0.0503
27963W        W44224  11.797  13.182  15.367  0.0618 -0.0430  0.1034
27964W        W44225   0.245  13.424   1.795  0.0289  0.1082  0.0814
27965W        W44226   1.116   7.532  11.504 -0.1187  0.3604  0.0513
27966W        W44227  10.898  10.228  13.187 -0.0142 -0.0648 -0.0999
27967W        W44228   4.063   6.706   1.256 -0.1114 -0.1334  0.3806
27968W        W44229   0.797   5.668  15.563  0.0232  0.0752  0.3385
27969W        W44230  18.122   6.519   3.774  0.2708  0.1952  0.0355
27970W        W44231  18.048  11.666  12.325  0.0920 -0.0351 -0.2765
27971W        W44232   4.521   6.141   0.625  0.0031 -0.0586 -0.3330
27972W        W44233  10.132   3.609  16.180  0.1086  0.0129 -0.2009
27973W        W44234  10.188  10.979   0.057  0.0650  0.2180  0.3014
27974W        W44235   2.267   3.211  15.748 -0.1102 -0.4011 -0.0202
27975W        W44236   3.241  10.869   3.248 -0.2013  0.1959 -0.0561
27976W        W44237   2.131  15.421  16.183 -0.1020 -0.1533 -0.1311
27977W        W44238  15.181  13.017   3.412 -0.0754 -0.1128  0.2158
27978W        W44239   9.495   8.163   2.583  0.6130  0.0822  0.0756
27979W        W44240  13.515  11.057  14.472  0.1209 -0.0208 -0.2371
27980W        W44241  15.969  16.029  13.129  0.0832 -0.2213 -0.1042
27981W        W44242   0.147  10.947  13.425 -0.2651 -0.0529 -0.1402
27982W        W44243   3.852  13.288  13.944  0.1080 -0.1112  0.0280
27983W        W44244   5.705   6.871   5.843  0.1039  0.1172  0.0439
27984W        W44245   4.665  15.084   4.313  0.1257 -0.0180 -0.4118
27985W        W44246  11.636   8.216  10.398 -0.2455 -0.0059 -0.0432
27986W        W44247   2.500  10.714  12.943  0.2924 -0.3845  0.1938
27987W        W44248  18.072   1.838   0.928 -0.0661 -0.0144 -0.0386
27988W        W44249   7.984  14.847  14.267  0.0475  0.0385  0.1249
27989W        W44250  12.081  16.947  14.777  0.1356  0.0281 -0.0054
27990W        W44251  16.654   0.019   1.731  0.2526  0.2596  0.0158
27991W        W44252   9.992   2.043  14.229 -0.1296  0.0016 -0.0655
27992W        W44253  13.687   7.076   4.853 -0.0775 -0.2062  0.1959
27993W        W44254   4.379   1.777   3.455  0.1788  0.1252  0.1907
27994W        W44255  17.608  11.665  15.858 -0.0678 -0.0238  0.1746
27995W        W44256  13.903   5.254   2.967 -0.2504 -0.1788 -0.0926
27996W        W44257  16.555  14.915  14.843 -0.4131  0.0675  0.3944
27997W        W44258   0.537   2.801   6.269 -0.0851  0.1886  0.1714
27998W        W44259   6.598  10.778  11.741 -0.0398 -0.2017 -0.1342
27999W        W44260   0.401   5.437   1.580  0.0939 -0.1748  0.2960
28000W        W44261   7.238   0.386  14.154  0.0694 -0.1624 -0.2173
28001W        W44262  17.530   9.384   2.552  0.1444 -0.0568 -0.0299
28002W        W44263   8.469  16.651  13.416 -0.0779  0.0403  0.0138
28003W        W44264   6.623  14.590  14.198 -0.0790 -0.1854  0.0609
28004W        W44265  15.433  15.747  15.403 -0.0148  0.1656  0.3178
28005W        W44266  13.938   9.639   2.893  0.1853 -0.0578  0.2425
28006W        W44267   3.020  14.176   4.392 -0.2321 -0.2479  0.2371
28007W        W44268   1.601   3.422  16.607  0.3825  0.1469 -0.1220
28008W        W44269  10.075   7.474   5.505 -0.0020 -0.0569 -0.1455
28009W        W44270  13.594   0.947  11.115 -0.1954  0.4391 -0.0973
28010W        W44271  14.161   5.429   2.115 -0.0414  0.0110 -0.1169
28011W        W44272   2.466   6.714  12.379 -0.4769  0.0235 -0.0183
28012W        W44273   7.384   1.783   6.336 -0.2110 -0.0638 -0.3057
28013W        W44274  11.542   1.782  16.287  0.2304  0.0811  0.0188
28014W        W44275  17.165   2.471   4.988  0.2945 -0.0283  0.1820
28015W        W44276   5.208   9.642   0.333 -0.3733 -0.1266  0.0131
28016W        W44277   0.163   5.260   2.764 -0.2456 -0.2030  0.1239
28017W        W44278   0.470   4.292   1.321 -0.5018 -0.0756  0.0568
28018W        W44279   6.122  15.158  13.019 -0.4216  0.3971 -0.2771
28019W        W44280   2.374  14.248   2.695 -0.2730 -0.0537  0.2254
28020W        W44281   5.894  10.990  13.658 -0.0198 -0.0988 -0.1920
28021W        W44282   4.608   2.893   0.613  0.0735  0.5533 -0.1296
28022W        W44283   5.751  13.418   4.614 -0.1261 -0.0749 -0.4138
28023W        W44284  16.704   9.794  12.255 -0.2995 -0.0520  0.0823
28024W        W44285  11.443  13.632  11.797 -0.1696  0.0901  0.2093
28025W        W44286  16.661   7.457   2.259 -0.3719 -0.3885  0.1426
28026W        W44287   2.494   7.698   1.848 -0.2862 -0.0383 -0.1347
28027W        W44288   4.183   4.277   5.329  0.0044  0.1298  0.0379
28028W        W44289   4.787  11.636   2.747 -0.3544 -0.2837 -0.2637
28029W        W44290   8.561   5.008   2.862 -0.0068 -0.1857  0.2372
28030W        W44291  15.568   9.750  13.538 -0.0083 -0.1681  0.2084
28031W        W44292   7.824  12.304  14.588 -0.1056  0.0059  0.1513
28032W        W44293   7.033   1.742  13.149  0.2166 -0.0890  0.0467
28033W        W44294  10.033   9.517   2.471 -0.0568  0.0611 -0.0371
28034W        W44295  14.484  16.410  13.909  0.0439  0.1155 -0.0123
28035W        W44296  16.955   1.797   3.993  0.0675  0.3915 -0.0600
28036W        W44297   4.018  11.131  14.304  0.1361  0.0475  0.0716
28037W        W44298   1.759   9.972   0.524 -0.1699  0.2251  0.0035
28038W        W44299  15.950   2.898   4.016  0.0346  0.4069  0.1840
28039W        W44300   3.546  17.220  14.300 -0.0136 -0.0932 -0.0685
28040W        W44301  11.073  13.835   3.888  0.1953 -0.2636 -0.0777
28041W        W44302   4.137   1.599  12.867  0.1636 -0.2294 -0.2006
28042W        W44303  12.492   3.179  13.739 -0.1350 -0.1517 -0.1067
28043W        W44304   1.511  14.148   2.591  0.3042  0.2199  0.1008
28044W        W44305  13.123  15.373  13.714 -0.0127 -0.2382 -0.1680
28045W        W44306  17.637  14.790   0.259  0.0971 -0.0349 -0.0566
28046W        W44307   6.486   4.836   1.084  0.2390  0.4977  0.2483
28047W        W44308  16.487  14.786  13.465  0.0506  0.0503 -0.3616
28048W        W44309   3.853   2.041   0.392 -0.0950 -0.1170 -0.0334
28049W        W44310   2.586  14.548  12.231 -0.0167  0.0358  0.1416
28050W        W44311   9.364   4.362   2.897  0.2183  0.1873  0.0819
28051W        W44312   2.586   6.728   1.448 -0.0465 -0.4971 -0.3111
28052W        W44313  10.229   3.269   2.625  0.0007 -0.2124 -0.1372
28053W        W44314  11.500  14.274  14.738 -0.1308  0.0205  0.3452
28054W        W44315  10.027  11.269  13.767 -0.0657 -0.1355 -0.2397
28055W        W44316   7.866  11.413   0.723 -0.0220  0.1095 -0.1182
28056W        W44317   6.111  18.014   1.283  0.1108 -0.3723  0.0915
28057W        W44318  15.892  14.612  15.856  0.0069 -0.0306 -0.0369
28058W        W44319  11.226   3.935  16.568  0.0511 -0.2733 -0.2665
28059W        W44320   8.713   1.653  10.552  0.1371  0.0962 -0.0427
28060W        W44321   3.995   5.072  11.733 -0.0933  0.1793 -0.0749
28061W        W44322  10.519  11.252  13.902 -0.0044  0.1735 -0.1790
28062W        W44323   6.315  11.504   3.757 -0.1371  0.1955 -0.0237
28063W        W44324   1.054   2.359   5.031 -0.1841 -0.0680  0.2033
28064W        W44325   0.340   1.497   5.005  0.1533 -0.3308 -0.0705
28065W        W44326   6.981  12.612   4.645  0.0715  0.1367  0.2775
28066W        W44327  17.446  15.776  13.317 -0.0730 -0.2718 -0.3316
28067W        W44328  17.465   4.510  14.358  0.0255  0.2107  0.2175
28068W        W44329   5.267   9.332   2.962  0.0814 -0.1583 -0.1228
28069W        W44330   1.771  10.028  12.476 -0.1675 -0.2728  0.1474
28070W        W44331   5.660  16.102   1.352  0.0388  0.1996  0.2684
28071W        W44332   7.224  15.078   0.086  0.0759 -0.4792  0.1115
28072W        W44333  14.886   2.530   3.590  0.2027  0.1927  0.1713
28073W        W44334  15.067   7.658  13.706 -0.1759  0.0498 -0.2145
28074W        W44335  10.555  15.204  11.879  0.2014  0.2781  0.4547
28075W        W44336   3.656   7.654  16.616  0.0559  0.1093  0.0413
28076W        W44337   4.972  16.124  11.801  0.0542 -0.0295  0.0249
28077W        W44338   0.534  14.699  15.542 -0.1480 -0.4938  0.0681
28078W        W44339  11.043   1.569  11.407  0.0405  0.0180 -0.0584
28079W        W44340   6.679   0.189   4.575  0.1339 -0.0012 -0.1052
28080W        W44341  14.454   9.124  12.267 -0.0624 -0.0436 -0.3535
28081W        W44342  18.154   0.898   2.481  0.1472 -0.1378 -0.0686
28082W        W44343  13.333   2.274   1.642  0.1965  0.0243  0.1917
28083W        W44344   3.264  13.808  16.391  0.3528  0.1746 -0.1050
28084W        W44345   0.795   7.873   2.318  0.1704 -0.1769 -0.1649
28085W        W44346   5.733   8.331   4.889  0.0785 -0.2300  0.2456
28086W        W44347   4.391   2.798  13.765  0.4382 -0.0133  0.2697
28087W        W44348   8.618  16.129  11.784 -0.1853  0.0761  0.1028
28088W        W44349  14.477   8.325   2.874 -0.2452  0.2395 -0.0782
28089W        W44350   5.278  16.710   3.204  0.1239 -0.0876 -0.0098
28090W        W44351  15.464   1.383  12.587  0.0498 -0.0355  0.1388
28091W        W44352   4.319  17.550  13.886 -0.1776  0.0268  0.1772
28092W        W44353  16.090  10.762   0.927 -0.0062  0.0608 -0.1954
28093W        W44354   2.565   8.393  11.806  0.3412 -0.2900 -0.2684
28094W        W44355  16.758   3.695  12.434  0.0707  0.3352  0.0048
28095W        W44356   0.748  10.627  16.543  0.1495 -0.1945  0.2223
28096W        W44357   8.722   3.879   0.633 -0.2790 -0.1883  0.1340
28097W        W44358   9.921  13.459   5.204  0.0230 -0.1126 -0.1571
28098W        W44359   2.964  15.261  14.246 -0.0335 -0.0573  0.0501
28099W        W44360   3.405  11.547  12.531 -0.0812 -0.3609  0.1862
28100W        W44361  17.726  10.875  11.415  0.1211  0.1758 -0.2471
28101W        W44362   7.654  11.444  16.008 -0.0501 -0.0725  0.2650
28102W        W44363  10.545  15.250  13.666 -0.0027 -0.4137  0.1213
28103W        W44364   6.707  12.900   3.294 -0.2087  0.0785 -0.0996
28104W        W44365   0.058  17.213   0.228 -0.3463 -0.0431 -0.1003
28105W        W44366   1.808   0.725   4.967  0.2545  0.2363  0.1489
28106W        W44367  11.248  10.750   5.458 -0.0005  0.0730  0.3792
28107W        W44368  17.112  13.202   6.222  0.2646  0.1239 -0.0908
28108W        W44369   1.550   6.484   4.755 -0.4844 -0.2736  0.0932
28109W        W44370  12.859   0.599  15.941 -0.3523  0.0907  0.1507
28110W        W44371  11.520  11.064  12.893 -0.2536  0.3045  0.4023
28111W        W44372   1.988   9.119  15.050  0.1438 -0.1352 -0.5064
28112W        W44373  12.272  14.058  15.157 -0.4006 -0.3347 -0.0834
28113W        W44374  14.832  11.913  12.631  0.0044 -0.0483 -0.0118
28114W        W44375   8.633  10.595   6.329  0.2698  0.0866  0.0539
28115W        W44376  13.378   4.856  13.830 -0.0919 -0.1118  0.5200
28116W        W44377  15.054  15.271  15.269 -0.0133 -0.0590 -0.0676
28117W        W44378  17.372   9.918  13.298  0.1726 -0.1315  0.0181
28118W        W44379  15.751  13.796  14.541 -0.2032 -0.4437  0.1593
28119W        W44380   3.932  13.885   5.223  0.3499 -0.0048  0.2966
28120W        W44381   3.849   4.920   2.373  0.5974 -0.1706  0.1219
28121W        W44382  17.969  13.791  15.189  0.3050 -0.0843 -0.1393
28122W        W44383  14.917  15.986   2.991  0.1739  0.0574 -0.1967
28123W        W44384  14.068   3.129  14.545 -0.1389  0.3158 -0.1477
28124W        W44385  14.828   9.425   4.771 -0.0495 -0.3055  0.2139
28125W        W44386  17.654  14.698  16.151 -0.0517 -0.1290  0.1944
28126W        W44387   1.982   1.658  13.462  0.4141  0.2680 -0.0072
28127W        W44388  17.605   0.461   1.163 -0.0865  0.1023  0.2730
28128W        W44389   0.983  11.088  13.750  0.1112  0.1350 -0.2010
28129W        W44390   0.544  14.065  14.799  0.1482 -0.0589  0.1983
28130W        W44391  14.821  13.717   4.529 -0.0346 -0.1349 -0.1500
28131W        W44392   7.724   5.374  13.306  0.0722  0.0314  0.0131
28132W        W44393   5.623  11.987  12.641  0.0706 -0.4049 -0.2129
28133W        W44394   1.486   0.153   6.328  0.2315  0.2806  0.3921
28134W        W44395   2.421   2.141  11.518 -0.0007  0.1074 -0.0774
28135W        W44396   6.605  11.373   1.507  0.1249 -0.2714  0.0923
28136W        W44397   1.327   6.320   1.347  0.1101 -0.2425 -0.2487
28137W        W44398   6.903  11.785  16.398 -0.0064  0.1145  0.1178
28138W        W44399   1.501  17.943   4.572  0.1292 -0.3234 -0.1006
28139W        W44400  17.178   4.867   0.384  0.0326  0.0000 -0.0071
28140W        W44401  11.678   0.219   1.772 -0.0013 -0.4769  0.2802
28141W        W44402   8.467   0.929   6.558  0.1241 -0.1995 -0.1004
28142W        W44403   0.224  11.134   1.455 -0.3227  0.0606 -0.1759
28143W        W44404  12.790   8.338   3.787  0.0179  0.2436  0.1253
28144W        W44405   1.929   7.130  11.565 -0.0562  0.1011 -0.4813
28145W        W44406   9.268   7.277   0.892  0.2251 -0.1507  0.0380
28146W        W44407   6.073  14.673  15.062 -0.0850 -0.0222  0.4845
28147W        W44408   0.553  13.621   1.069  0.1998  0.4822 -0.2316
28148W        W44409   9.684  10.359  12.577  0.2201 -0.4727  0.0599
28149W        W44410   5.226   1.276   2.950  0.1748 -0.0474  0.2504
28150W        W44411  14.470   4.054  12.429 -0.5948  0.1810 -0.0686
28151W        W44412  13.287   4.858  12.823  0.1403  0.2069 -0.3276
28152W        W44413  14.682  13.324   1.082 -0.1772  0.2035 -0.1084
28153W        W44414   6.702   4.856   0.551  0.0499 -0.1527 -0.0609
28154W        W44415   5.364   4.482   0.967 -0.1254  0.0637 -0.0521
28155W        W44416   0.985   2.479   6.140 -0.2815 -0.0239 -0.0691
28156W        W44417   9.556  12.736   5.871 -0.0132  0.1398  0.3244
28157W        W44418   9.169  15.025  15.944  0.1177 -0.1027 -0.1035
28158W        W44419   0.504   1.086  12.108 -0.4364 -0.0071  0.2714
28159W        W44420  17.228  16.121  16.133 -0.1212 -0.0075  0.0671
28160W        W44421  10.272   6.887  15.764 -0.2335 -0.0880 -0.0752
28161W        W44422  16.700   0.826  13.611  0.2653 -0.0052 -0.2523
28162W        W44423  13.062  10.612  16.197  0.2450  0.1456  0.1204
28163W        W44424  17.196  18.014  12.746 -0.0723  0.1261  0.0043
28164W        W44425   0.539  12.261  12.209 -0.1111  0.3262 -0.2444
28165W        W44426  14.884  11.695   0.992 -0.3824 -0.1540  0.3149
28166W        W44427   9.919  11.984   1.461  0.1564  0.2827  0.2574
28167W        W44428  10.603   9.086  13.095  0.0510  0.1961  0.0729
28168W        W44429   7.890  16.881   5.158  0.3476  0.1028 -0.0641
28169W        W44430   3.643  14.943   0.086  0.0783 -0.2504 -0.2134
28170W        W44431  16.392  18.133  12.690 -0.1688  0.1645 -0.0718
28171W        W44432  14.013   1.663   3.137 -0.0462  0.1499  0.0279
28172W        W44433   7.758  11.270  15.146  0.2901  0.3660  0.1013
28173W        W44434   7.762   1.844   5.935 -0.2034  0.0486 -0.2127
28174W        W44435  11.495   7.147   2.937  0.0399 -0.2528  0.1166
28175W        W44436  12.028   5.566   1.882  0.2355 -0.0154 -0.1742
28176W        W44437   7.879   4.223   2.807  0.0848 -0.1055  0.1094
28177W        W44438   3.448  18.018   5.628 -0.1339 -0.4145 -0.1273
28178W        W44439  13.861   7.556  14.400 -0.1997 -0.1073  0.0411
28179W        W44440   4.569   8.809  12.795 -0.4012  0.1824 -0.2388
28180W        W44441   8.334   9.487   0.034  0.1544 -0.1566 -0.1405
28181W        W44442   4.403  13.560  13.133 -0.3516 -0.1034  0.0238
28182W        W44443   4.453   7.977   6.394 -0.0476  0.0012  0.0037
28183W        W44444   9.371  10.007   1.140  0.0765 -0.0246 -0.1722
28184W        W44445  17.096  15.163  15.541  0.3323  0.1822  0.0284
28185W        W44446  16.735  15.086   6.093  0.1272  0.1289 -0.2393
28186W        W44447  17.943   6.420  14.743  0.1931 -0.0835 -0.3015
28187W        W44448   4.727   3.629  13.571 -0.1190 -0.0254 -0.1252
28188W        W44449   5.663   4.879  14.066 -0.0797 -0.0889 -0.1066
28189W        W44450   1.828  11.960   1.394 -0.2437 -0.1426  0.1360
28190W        W44451  10.972  12.772  16.065  0.0435  0.3360 -0.1151
28191W        W44452   7.771   6.548   4.923  0.1386 -0.0258 -0.0957
28192W        W44453   2.414   0.163   4.668 -0.1299 -0.1556  0.0846
28193W        W44454  15.914   3.678   0.799 -0.1627 -0.2065 -0.1942
28194W        W44455  15.456   0.666   0.358  0.1537 -0.1128  0.3061
28195W        W44456   6.450  10.576  14.296  0.2796  0.2179  0.0894
28196W        W44457   6.151   1.494   3.812 -0.1805  0.1718  0.0233
28197W        W44458  13.592   3.061  12.917  0.3024  0.1911  0.1345
28198W        W44459  18.138  11.552  16.292 -0.0673 -0.1059  0.2053
28199W        W44460  16.581  10.949   0.731  0.1396 -0.2093  0.1370
28200W        W44461  14.274   2.923   0.095 -0.0856 -0.5613 -0.1921
28201W        W44462  17.696  17.357  14.645 -0.3613  0.4700 -0.2330
28202W        W44463   2.913   6.760  14.105 -0.3478  0.0050 -0.0265
28203W        W44464  15.733  10.224   5.313 -0.1673 -0.0851  0.0382
28204W        W44465   8.633  14.847   1.311  0.1047 -0.3257  0.2824
28205W        W44466   0.888   1.689   1.949 -0.1376  0.5538 -0.1946
28206W        W44467   6.796  16.880   2.721 -0.0102 -0.0994  0.0794
28207W        W44468  11.057  11.352  13.527 -0.1214  0.1842 -0.0353
28208W        W44469   7.181  14.895   5.759 -0.0871 -0.2278  0.2609
28209W        W44470  15.926   8.702   0.848  0.1035 -0.4300  0.0886
28210W        W44471   4.961  10.645   4.377  0.0695  0.0535 -0.0670
28211W        W44472  13.663   3.914   3.442  0.1394  0.0766 -0.2875
28212W        W44473  15.557  14.392   2.311 -0.1494  0.0292  0.1945
28213W        W44474   9.420   5.565   1.218 -0.1600  0.1286  0.2982
28214W        W44475  15.038   3.746   3.029 -0.0774  0.0999 -0.1167
28215W        W44476  11.545  12.207  13.838  0.0862  0.2407 -0.1033
28216W        W44477  15.836  15.199  13.567  0.4719 -0.1264  0.1847
28217W        W44478  11.175   9.152  11.523 -0.2457  0.2695 -0.0515
28218W        W44479  14.086   0.852  12.576 -0.1015 -0.2702  0.1915
28219W        W44480   7.315   4.092  16.222 -0.1701  0.3215 -0.0147
28220W        W44481   2.815   1.465   6.071 -0.1649  0.3039  0.2572
28221W        W44482   7.740  14.375  16.360 -0.2614 -0.4151  0.1485
28222W        W44483  11.955  14.843  15.291  0.1445  0.1783 -0.2953
28223W        W44484  11.348   2.905  14.954 -0.0874 -0.2036  0.2834
28224W        W44485  17.657   1.328  13.708 -0.0403 -0.3537 -0.1080
28225W        W44486   7.982  12.657  12.128 -0.1596 -0.2853 -0.0693
28226W        W44487   9.486   4.092   3.411  0.1080 -0.0555  0.2463
28227W        W44488  16.925   0.372   3.537  0.2409  0.1568 -0.2367
28228W        W44489   3.017  17.245  11.693 -0.1717 -0.0419  0.2737
28229W        W44490   9.441  15.737  16.608 -0.1331  0.0593  0.3324
28230W        W44491   5.883   8.552   3.227 -0.0693 -0.3889 -0.3512
28231W        W44492  16.749   3.486   1.048  0.0124  0.0204  0.0504
28232W        W44493   4.858   2.437   3.204  0.0691 -0.1152  0.0011
28233W        W44494   4.434  17.046  13.078 -0.0828 -0.4898 -0.0948
28234W        W44495   4.913  14.615   2.631 -0.0219 -0.2114 -0.1033
28235W        W44496  16.902  14.995  12.490  0.0291  0.1773  0.5452
28236W        W44497  12.739   7.830   3.054  0.0225 -0.1027 -0.0615
28237W        W44498  13.160   2.120  14.104 -0.0581  0.4892  0.1672
28238W        W44499   3.325  14.935   2.615  0.0932  0.1449 -0.2179
28239W        W44500   8.135  12.161   5.709  0.0739  0.1445 -0.0413
28240W        W44501  13.186  17.435  14.599  0.0700  0.1728 -0.1367
28241W        W44502  16.416  17.712   0.187  0.0178  0.1755  0.2473
28242W        W44503   2.342  11.800   3.165 -0.1880  0.0585 -0.0578
28243W        W44504   0.845   9.866  14.830 -0.0160 -0.2204 -0.2770
28244W        W44505  16.818  16.287   3.431 -0.0294 -0.1905  0.0982
28245W        W44506  12.326   6.071  14.371  0.0270  0.0924 -0.0675
28246W        W44507  13.974   5.496  13.536  0.4495 -0.0641 -0.0441
28247W        W44508   1.718   9.654   2.272  0.2351  0.1960  0.4052
28248W        W44509  13.956  14.800  13.064 -0.2934  0.3387 -0.0542
28249W        W44510   2.228  16.910   2.241 -0.1908  0.0940  0.1944
28250W        W44511   5.645  13.957  14.917  0.1956  0.0135 -0.0630
28251W        W44512   7.451  14.700   4.526  0.0907  0.3033 -0.1987
28252W        W44513   0.032   4.816  13.859 -0.0464  0.0136 -0.0724
28253W        W44514  15.571   3.766  16.474  0.2068 -0.0941  0.2820
28254W        W44515   1.037   9.696   0.629  0.0199 -0.1986 -0.0554
28255W        W44516  10.329   2.304  12.216  0.0711  0.0642  0.0636
28256W        W44517  14.868   8.216  13.863  0.0815  0.2591 -0.2176
28257W        W44518   7.572   0.832  14.982 -0.1466  0.3804  0.0090
28258W        W44519  17.946   4.707  14.546  0.0093  0.0831 -0.2566
28259W        W44520   6.408  17.933  15.027 -0.0452  0.1404 -0.0995
28260W        W44521  15.497  16.121   2.940 -0.0666  0.1791 -0.1111
28261W        W44522  14.155  14.234  12.991 -0.1253  0.2633 -0.0347
28262W        W44523   2.474  17.742   3.837 -0.0996 -0.0013  0.0778
28263W        W44524   1.701   6.640   1.117  0.0454 -0.2989  0.1056
28264W        W44525  16.993   7.233   3.805  0.2444  0.1580 -0.1639
28265W        W44526   7.413  12.800   5.093  0.0048  0.2052  0.1163
28266W        W44527  14.990  14.012   3.391  0.0021 -0.1279 -0.1176
28267W        W44528  10.085  16.786   1.268  0.2566  0.2405  0.0908
28268W        W44529   6.916  17.226   3.206  0.0563 -0.0284 -0.0098
28269W        W44530   3.716  15.099  14.048 -0.1689 -0.0250 -0.0720
28270W        W44531  16.865  12.823   4.806  0.0754  0.0627  0.2534
28271W        W44532  11.716   4.043  13.582  0.0146  0.1962 -0.2010
28272W        W44533   3.979   0.889  15.546 -0.2061  0.0122  0.1312
28273W        W44534  13.298   3.988   4.840 -0.0676  0.1364  0.1010
28274W        W44535  15.398   5.232  10.567  0.0607  0.2943 -0.3032
28275W        W44536  10.379  12.241   5.931  0.0043 -0.1695 -0.0884
28276W        W44537  17.414   9.154   0.012  0.1156 -0.1710 -0.1245
28277W        W44538   3.815   1.381  15.784 -0.1189 -0.0586 -0.1512
28278W        W44539  12.177  11.684  13.787  0.0759  0.0716  0.0183
28279W        W44540   1.863   0.472   1.800 -0.1478 -0.1154  0.3269
28280W        W44541  12.770   1.538   2.967 -0.2779 -0.2945  0.1951
28281W        W44542   8.774   7.177   1.727 -0.3194 -0.2050  0.2627
28282W        W44543   2.148   3.039   4.987  0.2324 -0.3011  0.1846
28283W        W44544  10.770   4.021   2.482 -0.0315  0.0057  0.0281
28284W        W44545   1.879   8.219  15.559 -0.2099 -0.0450 -0.0748
28285W        W44546   6.772  17.172  12.853  0.0504 -0.0248  0.2117
28286W        W44547  14.770   5.641   2.944 -0.0994  0.1270 -0.1717
28287W        W44548  14.395   9.996  14.304  0.2554 -0.0520  0.4407
28288W        W44549   5.613  13.623   4.165  0.0738 -0.3792 -0.0162
28289W        W44550   8.926  16.152   6.757  0.4465  0.2444  0.0124
28290W        W44551   3.183  12.839   3.764 -0.2203 -0.0052 -0.1182
28291W        W44552   5.644  11.160  14.625  0.0796  0.0174 -0.2425
28292W        W44553   8.886   7.587  15.652  0.1449 -0.1104  0.0892
28293W        W44554  17.599  13.955   0.192 -0.0228  0.1133  0.0609
28294W        W44555   5.584   1.236  16.141  0.2840  0.1546  0.0666
28295W        W44556  15.164  15.435  16.059 -0.0548 -0.1529  0.4177
28296W        W44557  15.214  14.205  12.758  0.1691 -0.1829  0.1704
28297W        W44558  14.323   9.763  12.660 -0.0581 -0.1567 -0.0837
28298W        W44559   9.847  13.421   1.149 -0.1149  0.1976 -0.1191
28299W        W44560   5.111   8.649   1.909  0.0181  0.0590 -0.0396
28300W        W44561   2.203   2.548   5.226  0.1648  0.1898  0.0234
28301W        W44562  15.953  13.388   4.838  0.2884  0.0364  0.0490
28302W        W44563  11.831   1.597  15.150  0.0868  0.0645  0.0496
28303W        W44564  15.043  15.723   0.250  0.0604 -0.1959 -0.2492
28304W        W44565  13.848   3.486  12.869  0.2958  0.1849  0.5200
28305W        W44566   7.009   4.223   5.469 -0.3238  0.0806  0.0667
28306W        W44567  13.465   6.185   1.885  0.1084  0.0001  0.1924
28307W        W44568   1.983   3.017  11.957 -0.1262 -0.0824 -0.1448
28308W        W44569  10.072  11.452  13.295 -0.1642  0.0924 -0.0794
28309W        W44570  13.723   0.519   5.066  0.1991  0.0335  0.1725
28310W        W44571   4.517  11.130   1.930 -0.1601 -0.2723  0.1588
28311W        W44572   9.770  11.980   5.271 -0.0256  0.1975 -0.0017
28312W        W44573  13.312  13.639   3.015  0.2138 -0.2699  0.4067
28313W        W44574   4.910   5.075  13.893 -0.0991 -0.0723 -0.1091
28314W        W44575  15.468  10.641   2.060  0.0025  0.2019  0.0792
28315W        W44576  15.406  14.922  14.991 -0.2962 -0.0154 -0.0494
28316W        W44577   1.420  11.341  13.698  0.0271  0.0287  0.1162
28317W        W44578   2.115  18.055  16.598  0.2423 -0.0113  0.1842
28318W        W44579   1.569  12.626  16.357  0.0822 -0.0653  0.0040
28319W        W44580  16.971   5.815   2.667 -0.4440  0.2071 -0.1919
28320W        W44581   0.006   1.697  14.415  0.1494 -0.0948 -0.0755
28321W        W44582  14.745  11.033  12.452  0.1192  0.0572 -0.1470
28322W        W44583  10.697  13.471  12.511  0.2268 -0.0147  0.1368
28323W        W44584  13.475   4.184   2.380  0.0656  0.1565 -0.3149
28324W        W44585  14.825  13.442   3.648  0.0093 -0.2200 -0.2001
28325W        W44586  16.450   1.426  14.352  0.3100  0.1952 -0.2338
28326W        W44587  11.524  13.746  14.971 -0.4428 -0.0792  0.1317
28327W        W44588   6.232  13.153   0.782  0.1781 -0.2179  0.3080
28328W        W44589   0.514  16.683   3.589  0.1683  0.1077 -0.3309
28329W        W44590  10.699   5.767   1.272  0.3101 -0.1977  0.0767
28330W        W44591  11.379   4.667  12.205 -0.3430  0.2821  0.1345
28331W        W44592   9.657  16.678  13.854  0.1212 -0.1024 -0.0220
28332W        W44593  17.921  13.631   1.950  0.0514 -0.0517  0.2703
28333W        W44594  10.879   0.708   1.784  0.1671  0.1217 -0.0816
28334W        W44595   1.721  11.866   4.829 -0.0388 -0.1321 -0.1241
28335W        W44596  10.949  14.661   0.262 -0.0060  0.1725  0.0847
28336W        W44597  13.039  18.009  13.224  0.0597  0.2205  0.2552
28337W        W44598   4.296  17.195  12.415  0.1439 -0.2499 -0.2231
28338W        W44599  15.003   8.556   5.926 -0.0479 -0.0112  0.0193
28339W        W44600   2.209   0.379  15.332 -0.0151 -0.2265  0.0982
28340W        W44601   3.812   0.612   1.881  0.1718  0.2153  0.2241
28341W        W44602  16.872   3.158   1.398 -0.0130  0.4088  0.1001
28342W        W44603   7.988   3.109   4.559 -0.1757  0.0019  0.1203
28343W        W44604   2.359   3.604   0.888  0.1416 -0.0235  0.2490
28344W        W44605   0.442  13.383  15.182 -0.0083  0.0760  0.1102
28345W        W44606  15.397   7.302  13.741 -0.2979 -0.0357  0.0201
28346W        W44607   0.665  14.934  16.510 -0.1079  0.4492  0.0231
28347W        W44608   6.947  11.181  12.443 -0.0801  0.0198  0.1257
28348W        W44609  13.989  15.497   1.686 -0.1716  0.0293  0.1777
28349W        W44610  14.608  10.291  14.721  0.0886 -0.4428  0.1983
28350W        W44611   2.546   5.235   3.171 -0.1300  0.3296 -0.0080
28351W        W44612   4.620  13.845   2.557 -0.0549 -0.0550  0.3261
28352W        W44613   2.332  11.125   1.775 -0.0763 -0.0749  0.0738
28353W        W44614  16.375   7.400  13.303  0.0505  0.2400 -0.2016
28354W        W44615   8.470   2.262   2.582  0.1695 -0.0153  0.0673
28355W        W44616  16.670  12.219   0.013  0.0700 -0.0221  0.2120
28356W        W44617   7.066   6.633   5.483  0.2309 -0.2775 -0.1122
28357W        W44618  17.598  11.833   5.614 -0.2042  0.0677  0.0875
28358W        W44619   6.455   7.342   2.484  0.1910 -0.1055  0.0396
28359W        W44620  15.414  15.815   4.636 -0.2783 -0.1616  0.0687
28360W        W44621   1.929  11.850  15.713 -0.0007  0.1452  0.0294
28361W        W44622   0.111   5.946  13.936 -0.0795  0.3264  0.0017
28362W        W44623   8.533  12.831  11.702  0.0076 -0.1959  0.0223
28363W        W44624   6.446  12.578   3.632 -0.0896 -0.0476 -0.0892
28364W        W44625   4.963   1.903   5.215 -0.2262  0.1287  0.1641
28365W        W44626  16.307   7.330   1.234  0.2363  0.0321 -0.2908
28366W        W44627  13.542   9.687  15.957  0.1010  0.0980 -0.0793
28367W        W44628   5.728   6.934  13.711 -0.2532 -0.2595 -0.1333
28368W        W44629  17.963  14.961  15.014  0.0612  0.1231  0.0161
28369W        W44630  12.044   0.705  15.465 -0.0507 -0.1864  0.0517
28370W        W44631  16.068   2.690   3.135  0.0391  0.0226 -0.0728
28371W        W44632   8.697   6.738   6.551 -0.1724  0.3272 -0.2190
28372W        W44633  15.419  16.653   1.281 -0.2957  0.0074  0.2023
28373W        W44634   3.212   0.748  13.981 -0.2084 -0.3058  0.1088
28374W        W44635   4.014   5.121   4.296  0.4881 -0.1477  0.0650
28375W        W44636  12.580  13.931  13.492  0.0697 -0.1922 -0.1633
28376W        W44637   6.584   4.709   4.348 -0.2066 -0.0739 -0.1308
28377W        W44638   3.718   1.287   3.629  0.3731  0.0948 -0.0160
28378W        W44639  14.092   5.624   4.253 -0.5352 -0.4925 -0.0435
28379W        W44640  15.163  17.576   5.170 -0.2277 -0.2274  0.0150
28380W        W44641  11.441  10.562  12.854  0.1169  0.0004 -0.0197
28381W        W44642  17.034  17.057  13.211 -0.0249 -0.1969 -0.0413
28382W        W44643  15.276   9.885  11.334  0.3711  0.0152 -0.0200
28383W        W44644  14.831  10.917  11.511  0.0048  0.2682  0.1952
28384W        W44645   1.883  15.720   4.260 -0.0698  0.0602 -0.1051
28385W        W44646   8.195   1.313  16.628  0.0643 -0.2489 -0.0512
28386W        W44647  17.416   3.717   1.826 -0.2360 -0.1911 -0.0599
28387W        W44648   2.926  12.192  12.894 -0.2280  0.1424  0.2629
28388W        W44649  12.303   5.233  14.341  0.0056  0.0135  0.0548
28389W        W44650  10.961  15.886   0.392  0.1697 -0.2011 -0.0293
28390W        W44651   3.507  12.133  14.321 -0.3274  0.1395 -0.0182
28391W        W44652  12.483   1.725   3.525  0.2612 -0.1904  0.2878
28392W        W44653   4.171  12.208   3.270  0.1906 -0.3230 -0.1631
28393W        W44654  10.303   0.508  15.355 -0.3040  0.2357 -0.2381
28394W        W44655   7.354  10.390  11.260 -0.0124 -0.1930 -0.2816
28395W        W44656  12.887   7.537   1.823 -0.1775  0.1041  0.2028
28396W        W44657   6.011   7.315  14.904 -0.0674 -0.0796  0.2118
28397W        W44658   6.447   0.880  15.599  0.0125 -0.1865  0.0671
28398W        W44659   2.634   9.300   5.024 -0.0680 -0.0473  0.4028
28399W        W44660   7.930   1.455   2.433 -0.0918 -0.2012  0.1621
28400W        W44661   5.302   6.013   2.505 -0.3889  0.1595 -0.0111
28401W        W44662  14.077   8.208   4.360 -0.1586 -0.0257 -0.2489
28402W        W44663   7.177   0.354   1.520  0.2305 -0.1684 -0.2271
28403W        W44664   0.714   7.721   5.043  0.0185  0.2844  0.0496
28404W        W44665   6.328  10.866  13.355 -0.0435  0.0735  0.0927
28405W        W44666   5.894   5.196  14.998 -0.0004  0.0515  0.2516
28406W        W44667  11.587   5.348   1.460 -0.3278  0.2974 -0.0799
28407W        W44668  14.260  15.647  13.443  0.0765  0.0481  0.2666
28408W        W44669   3.142   5.252   2.323 -0.2228 -0.1929 -0.2693
28409W        W44670   4.909   4.439  15.729 -0.0840 -0.3093  0.0055
28410W        W44671  14.828   9.493   3.937  0.0555 -0.3548 -0.3807
28411W        W44672  14.027   1.278   0.635 -0.2357 -0.0593  0.3291
28412W        W44673   0.983   4.722  16.197  0.1886 -0.1605 -0.1403
28413W        W44674   1.086  13.126  13.944  0.1745  0.0189 -0.2009
28414W        W44675   6.068  10.221  13.229 -0.0715  0.1367 -0.4612
28415W        W44676   2.190  17.490   4.686 -0.2309 -0.1989  0.0016
28416W        W44677   2.873  16.561   1.621 -0.3382 -0.3939 -0.1402
28417W        W44678   9.744  14.765   2.251  0.0425  0.2278  0.1430
28418W        W44679   9.441   4.920  14.739 -0.0789 -0.4449 -0.0287
28419W        W44680   2.228  10.061  15.274  0.1767 -0.0731  0.1090
28420W        W44681   4.168  10.747  14.048  0.2240  0.0547 -0.3374
28421W        W44682   4.089   0.649   4.393  0.1908 -0.0393  0.1161
28422W        W44683  15.410   1.607  11.291  0.0345 -0.0369 -0.1263
28423W        W44684   3.368  14.428  13.142 -0.1405  0.1098  0.0784
28424W        W44685  11.957   9.606  14.841 -0.1604  0.1844 -0.1374
28425W        W44686   1.741   3.427  13.509 -0.1435 -0.1822 -0.3687
28426W        W44687   6.933  10.931  16.527  0.0132  0.0996 -0.1784
28427W        W44688  17.988  16.846  11.615 -0.1128 -0.2562 -0.1023
28428W        W44689  10.319   8.009  13.562 -0.1217 -0.3060 -0.2033
28429W        W44690  15.147   2.040   2.686 -0.4153  0.3734  0.0466
28430W        W44691   2.057  16.074  15.551  0.0639 -0.2863  0.1321
28431W        W44692   3.025  13.008   2.266 -0.0538  0.1827 -0.2258
28432W        W44693   0.082  17.402  14.501 -0.0458  0.0543  0.0677
28433W        W44694   4.133  11.173  16.531  0.0744  0.1940  0.1969
28434W        W44695  11.754  12.664  11.793  0.1631 -0.0755  0.0110
28435W        W44696   2.715   8.475  14.251  0.0618  0.3096  0.0216
28436W        W44697  11.920   3.066   2.781 -0.0844 -0.0158 -0.0101
28437W        W44698   4.297   3.376   4.846  0.0599 -0.3274 -0.1154
28438W        W44699   9.636   6.686   2.490  0.0908  0.4026  0.1777
28439W        W44700   2.544   7.492   0.704  0.0115 -0.1462 -0.1711
28440W        W44701   3.244   8.796  12.372 -0.1291  0.2482  0.0504
28441W        W44702   5.957   7.310  13.879 -0.1671 -0.2848  0.1355
28442W        W44703  10.913   8.771   2.620 -0.0500  0.0021 -0.0672
28443W        W44704  10.799   8.737   5.391  0.2183  0.2264  0.1408
28444W        W44705  17.146   2.846   5.978  0.2349 -0.1669  0.2388
28445W        W44706   0.284  11.958  11.849  0.0193  0.1966  0.0142
28446W        W44707   3.781   2.942   0.455  0.0480 -0.1219 -0.1034
28447W        W44708  17.079  14.036  14.182  0.1492  0.0881 -0.1090
28448W        W44709   9.077  16.302  13.101  0.1563 -0.1257 -0.2069
28449W        W44710  14.334   0.643   3.552 -0.1097 -0.0617 -0.1898
28450W        W44711   9.574  17.730  15.074  0.1605  0.2297 -0.0528
28451W        W44712  14.049   9.880   2.427  0.2200  0.0971  0.4185
28452W        W44713  15.296  12.721   2.643 -0.2923  0.0510 -0.1329
28453W        W44714  14.073   8.008  15.109 -0.0880  0.2597  0.1495
28454W        W44715   4.232  10.562   0.818  0.1139  0.0684 -0.1103
28455W        W44716   2.305   9.673  13.482  0.0161 -0.0778  0.1960
28456W        W44717  10.754   1.468   2.556  0.2397 -0.0762  0.2666
28457W        W44718   0.848   4.412  11.618  0.0993  0.0705  0.0744
28458W        W44719   3.402   0.050   2.889 -0.1750  0.0391 -0.1258
28459W        W44720   2.480  11.752   4.175 -0.0035 -0.2443  0.2227
28460W        W44721  11.508  13.586  13.728  0.2229 -0.1602  0.0995
28461W        W44722   5.247   9.873   0.834  0.0073  0.2788  0.1103
28462W        W44723   8.503  13.391  12.475 -0.0791 -0.0327 -0.0473
28463W        W44724   0.202   9.397   0.663 -0.4147  0.0163  0.0520
28464W        W44725   1.013   9.455  14.331  0.2452  0.0389  0.2409
28465W        W44726   4.779  12.118  14.983  0.4435  0.0136 -0.0164
28466W        W44727   8.170  12.240  14.023 -0.0818  0.1782  0.2881
28467W        W44728   7.759  11.604  13.516 -0.2269 -0.1555  0.2920
28468W        W44729   9.266   2.917  16.589 -0.0191  0.0819  0.0543
28469W        W44730   4.224  12.337  12.552  0.0421 -0.1428 -0.1321
28470W        W44731  11.521   4.850   1.482  0.2429  0.2393  0.2931
28471W        W44732   8.269  10.116   1.092  0.0155 -0.2228 -0.4876
28472W        W44733  13.868  12.694   3.450  0.0108 -0.0412 -0.2793
28473W        W44734   0.738  17.896  14.093  0.3878  0.5205 -0.2665
28474W        W44735   0.868   3.876  16.632  0.1043 -0.3641 -0.2072
28475W        W44736   6.232   7.581  14.305 -0.0296  0.0872  0.0185
28476W        W44737   4.109   3.602  12.025  0.0729  0.4265  0.2812
28477W        W44738  13.365   3.491   3.605 -0.1577 -0.1852 -0.2085
28478W        W44739   4.687   1.166  14.578 -0.0051 -0.1075 -0.1748
28479W        W44740   8.649   3.807  13.877 -0.0786 -0.0628  0.5439
28480W        W44741  12.717   6.731  11.449 -0.1684  0.0216 -0.1367
28481W        W44742  17.732   3.597  14.117  0.0503  0.0917 -0.0657
28482W        W44743  12.601   2.283  16.341 -0.1727  0.2217  0.3178
28483W        W44744   1.214  15.584   2.868 -0.2542  0.1235  0.0020
28484W        W44745  15.153  11.862  11.825 -0.1237  0.1216 -0.1925
28485W        W44746  13.470  17.114   2.169  0.0575  0.0648  0.1717
28486W        W44747  11.462  14.875   1.176 -0.0049 -0.2417  0.1787
28487W        W44748  16.011   5.946   1.635  0.0805 -0.3189  0.3145
28488W        W44749  13.258   4.510   4.289 -0.2708 -0.0108  0.1182
28489W        W44750   9.428   2.942  12.608  0.1541 -0.2032 -0.0921
28490W        W44751  17.847   7.827  15.123  0.2209 -0.1372 -0.0544
28491W        W44752  17.042  17.650   2.582  0.1626  0.0488  0.0315
28492W        W44753  17.185  14.616   0.316  0.0192  0.0380  0.2519
28493W        W44754  17.419   4.108  13.023  0.0881  0.4517 -0.1192
28494W        W44755   5.140   8.982  15.000  0.0452  0.0959 -0.2366
28495W        W44756  15.623  14.115   5.193 -0.1040  0.1333 -0.0007
28496W        W44757  15.458  15.896   3.744  0.0829  0.0799  0.1107
28497W        W44758  11.131   1.923  14.399 -0.1627 -0.0736  0.2930
28498W        W44759  11.037   2.440   1.502  0.2348 -0.1197 -0.1605
28499W        W44760  10.150   2.941  14.625 -0.1137  0.1969  0.3358
28500W        W44761   1.019   1.445  15.529  0.0675  0.0256 -0.0486
28501W        W44762  12.390  13.098  12.184  0.1656 -0.0410 -0.2792
28502W        W44763   0.873  11.485   3.896  0.1053 -0.0164 -0.3383
28503W        W44764   7.022  10.947   1.011  0.0030  0.1204 -0.2311
28504W        W44765   6.429  15.288  15.548  0.0582  0.3468 -0.0149
28505W        W44766   9.583   2.097   3.725 -0.3920 -0.2752  0.1688
28506W        W44767   5.125   8.399  15.724  0.1213 -0.0605  0.4234
28507W        W44768  13.747   6.481   3.843  0.2799 -0.0113  0.2420
28508W        W44769   0.302  13.859   5.228  0.1494 -0.1349  0.2294
28509W        W44770  11.945   8.200  16.627  0.2369  0.1103  0.1444
28510W        W44771  13.128   2.317  16.354 -0.2870  0.2356 -0.0685
28511W        W44772  13.268  14.647   3.960 -0.2185  0.4623  0.2289
28512W        W44773   9.250   8.970   4.141  0.0850 -0.0157  0.1250
28513W        W44774  17.378   1.761  13.662  0.1494  0.3814 -0.0001
28514W        W44775  14.987   4.450   2.520  0.1888 -0.1222  0.1818
28515W        W44776  13.943  10.435  10.386 -0.0382  0.4583  0.2313
28516W        W44777   5.735   5.841  15.450 -0.0541 -0.5021  0.2657
28517W        W44778   8.315  16.222   3.937 -0.1911 -0.3175  0.0448
28518W        W44779   1.370  15.950  13.072 -0.5338 -0.4208 -0.2760
28519W        W44780  10.749   9.194   1.489  0.0499  0.1196 -0.1662
28520W        W44781  14.939  12.694   4.300 -0.2080  0.2325 -0.1574
28521W        W44782  15.643   6.066   2.793  0.0096  0.0421 -0.2449
28522W        W44783   6.683  16.997  16.304  0.0418 -0.1269 -0.1064
28523W        W44784   9.403   9.523   3.950 -0.0397 -0.1644 -0.0280
28524W        W44785  16.886   9.527  15.990  0.0675  0.1633  0.0388
28525W        W44786  15.682   0.813   4.723  0.2476 -0.0756  0.2614
28526W        W44787  15.961   9.043  13.288  0.0109 -0.0501  0.2424
28527W        W44788   1.380  14.931   4.968 -0.0225 -0.1098  0.3541
28528W        W44789   5.127   5.025  11.224  0.1537  0.1332  0.0157
28529W        W44790   4.461   6.585  11.513  0.3191 -0.0479 -0.1020
28530W        W44791  10.760   2.498  11.888 -0.1983 -0.0522 -0.0032
28531W        W44792  18.170  12.801   4.193 -0.1063  0.2727 -0.2076
28532W        W44793  14.282   5.944   3.323 -0.1473  0.1479  0.0330
28533W        W44794  15.036   1.642  14.496  0.1909 -0.1737 -0.0286
28534W        W44795   3.698  16.902   4.277 -0.0935  0.1722 -0.0227
28535W        W44796  10.869  10.946   2.136 -0.5443 -0.0857  0.1999
28536W        W44797   5.778  18.134   6.521  0.2013  0.1251  0.2100
28537W        W44798  17.238  15.316  13.400 -0.2922  0.1812  0.0763
28538W        W44799  18.025  10.959  16.415 -0.1703  0.3351 -0.0370
28539W        W44800   4.247  11.602  16.224 -0.1238  0.2765  0.0176
28540W        W44801  14.372  13.238   0.083 -0.0811 -0.1302  0.1042
28541W        W44802   0.271  16.242  10.397  0.0812 -0.0970  0.0717
28542W        W44803  15.912  14.952   4.747  0.1673  0.2252  0.0838
28543W        W44804  13.025  14.145   0.231 -0.0654  0.1548  0.0331
28544W        W44805   5.770   3.600  12.571  0.3649  0.1947 -0.0685
28545W        W44806   0.154  11.119   3.597  0.1840  0.1508  0.2490
28546W        W44807   9.139   0.932  13.307  0.0343 -0.0343  0.1380
28547W        W44808  12.714   6.430   1.294 -0.0793 -0.1784 -0.3605
28548W        W44809   1.415  10.760   2.981 -0.1430  0.0329 -0.0328
28549W        W44810   0.476   2.218  13.708 -0.1687 -0.1320  0.0958
28550W        W44811  17.431   6.514  14.486 -0.0470  0.2810 -0.0523
28551W        W44812  10.544   4.256  14.535  0.1017 -0.0427 -0.2142
28552W        W44813  16.062   1.419   1.497  0.0745  0.0425  0.1194
28553W        W44814  11.593   7.031  11.078  0.1814 -0.2482  0.1083
28554W        W44815   5.503   0.349  16.457 -0.2942 -0.1710  0.1396
28555W        W44816  12.720   1.350   2.529 -0.0048  0.0545 -0.1061
28556W        W44817   0.029   8.642   4.833  0.0473 -0.1231  0.1286
28557W        W44818  10.780  11.646   5.490  0.0701 -0.0752 -0.1646
28558W        W44819  14.378  14.925  12.460  0.1101  0.0327  0.1946
28559W        W44820  17.230  16.203   4.778  0.0450  0.1535 -0.1666
28560W        W44821   0.291  17.279   2.352  0.2250 -0.0880 -0.0203
28561W        W44822  11.065  15.434   0.599  0.2084 -0.1153 -0.3512
28562W        W44823   7.522  12.653  14.879 -0.1720  0.2016  0.0045
28563W        W44824   2.296  16.134   0.519  0.1249  0.1745 -0.1734
28564W        W44825   1.785  16.004   0.688 -0.0542  0.2466 -0.3001
28565W        W44826  10.153   3.679  12.754  0.0426 -0.3645  0.2385
28566W        W44827   3.079  13.310  14.432 -0.1468 -0.0003  0.1778
28567W        W44828   1.716   6.652   3.726 -0.0173 -0.0456  0.0594
28568W        W44829   7.488  15.178  13.398 -0.0377  0.0216  0.0114
28569W        W44830   3.217  15.135  15.852  0.0661 -0.1931  0.2804
28570W        W44831   8.211   9.603  13.436  0.2661  0.0103  0.1502
28571W        W44832  15.712   4.325  15.709 -0.0576 -0.2880  0.0067
28572W        W44833   0.158  16.263  12.297 -0.0013 -0.1039  0.3966
28573W        W44834  10.407   0.850   5.092  0.0413  0.0268 -0.3042
28574W        W44835   9.789   6.295  11.455 -0.2574  0.0032  0.1454
28575W        W44836   8.698   6.612   2.106  0.2570  0.2255  0.2366
28576W        W44837  16.234   3.261  16.553 -0.0434 -0.1971 -0.3495
28577W        W44838   3.689   0.155   4.493  0.2459 -0.1860  0.1494
28578W        W44839   2.320   0.732   4.919 -0.2815  0.1242  0.1451
28579W        W44840  16.664  12.998  13.226 -0.2059  0.1171 -0.1182
28580W        W44841  13.696  15.294   0.571 -0.1951  0.1168 -0.1218
28581W        W44842   5.463   6.313  13.081  0.1012 -0.3891 -0.2331
28582W        W44843   9.834  16.280   3.302 -0.1821  0.1472  0.1236
28583W        W44844   5.951   0.712   3.422 -0.0022  0.0069  0.0175
28584W        W44845  13.132   3.151   5.304  0.1655 -0.0779  0.3289
28585W        W44846   3.973   4.357  14.537  0.2319 -0.3309  0.0104
28586W        W44847  10.961  12.067   0.640  0.0678  0.1743 -0.1311
28587W        W44848   8.996  12.199   5.039  0.1571 -0.2972 -0.0777
28588W        W44849   5.977  12.647   3.869 -0.2157  0.1264 -0.1196
28589W        W44850  13.265   3.551  15.248  0.1685 -0.2007  0.3887
28590W        W44851   0.958  15.812  14.013  0.0867  0.0256 -0.1499
28591W        W44852  17.037  17.545  12.985  0.0052  0.2956  0.1511
28592W        W44853   3.754  14.892   0.606  0.0255  0.0426  0.2828
28593W        W44854  14.369   5.900   2.183 -0.0107  0.1704 -0.1201
28594W        W44855   4.866  12.714  13.128 -0.1636  0.1465  0.3355
28595W        W44856  18.113  12.090   0.329  0.0786  0.2176 -0.1089
28596W        W44857   3.853   1.031   1.599 -0.1917  0.0970 -0.1379
28597W        W44858  15.862   8.638  12.672 -0.2062  0.0383  0.0837
28598W        W44859  11.160  16.880  16.349 -0.0022  0.2684  0.1469
28599W        W44860  12.783   7.886  12.311  0.1206  0.0675 -0.2765
28600W        W44861   0.958  12.493   1.998 -0.0850  0.0518  0.1374
28601W        W44862   4.130  10.236   1.803 -0.2450  0.0026 -0.1181
28602W        W44863  16.114   6.225   2.609 -0.0275  0.2696 -0.4170
28603W        W44864  17.471  13.979   2.812 -0.0385 -0.1223  0.1330
28604W        W44865   4.699   9.665  14.727  0.0528 -0.0422 -0.0986
28605W        W44866   8.523   3.417  15.200 -0.2545  0.1120  0.2940
28606W        W44867  13.080  15.103  16.587 -0.2541  0.3991  0.0354
28607W        W44868   4.506   7.100  13.397  0.0820 -0.2719  0.2547
28608W        W44869   4.749  14.734   0.804  0.0774 -0.4344  0.0943
28609W        W44870  10.744   3.534   4.185  0.2068 -0.1937  0.2100
28610W        W44871   6.115   5.163   5.250  0.1292  0.1160  0.2645
28611W        W44872  14.474  12.457   4.596 -0.0680 -0.2901 -0.1673
28612W        W44873   2.017  17.810  15.789  0.1679  0.2056  0.0844
28613W        W44874  17.094   1.443  13.247 -0.2182 -0.0950  0.2267
28614W        W44875   8.465   8.328  12.537  0.2550 -0.4472  0.0706
28615W        W44876   1.299   0.862   4.267 -0.0276  0.0609 -0.1088
28616W        W44877   2.303   5.013  12.436 -0.1916 -0.0282 -0.2110
28617W        W44878  17.241  12.970   2.710 -0.1336 -0.2465  0.0387
28618W        W44879  13.491  15.417   5.069  0.0956  0.2188  0.1262
28619W        W44880  15.121   3.249   5.642  0.0087 -0.0157 -0.1016
28620W        W44881  17.007  12.160  15.039  0.2420  0.2969 -0.0686
28621W        W44882   9.815   5.607   3.872  0.1592 -0.0872 -0.2916
28622W        W44883  16.215  11.647  11.544 -0.2441  0.0710  0.2019
28623W        W44884  11.139  17.138  14.938  0.2012 -0.0085  0.0745
28624W        W44885  17.855   6.224  11.512  0.2867 -0.0049 -0.0531
28625W        W44886  17.536  16.026  12.510 -0.2293 -0.0807  0.0388
28626W        W44887   3.928  13.431   3.300 -0.0988 -0.0742 -0.2515
28627W        W44888  15.646  12.523   0.006 -0.0694 -0.0934 -0.0481
28628W        W44889   3.364   9.256  16.562 -0.0046 -0.0692  0.0790
28629W        W44890  17.381   9.685  16.229  0.0755 -0.1111 -0.2349
28630W        W44891  15.946   0.139  12.818  0.0350  0.0190  0.0730
28631W        W44892   6.038   8.257  12.583 -0.1892  0.2744  0.0381
28632W        W44893  16.451   5.892   0.784  0.0320  0.0409  0.1799
28633W        W44894  14.283  16.490   4.702  0.0289  0.1650 -0.0575
28634W        W44895  13.952  16.651   0.326  0.1277 -0.0676 -0.0189
28635W        W44896   2.534   9.393   2.653 -0.0795  0.0576 -0.0166
28636W        W44897  10.733   2.566  16.317  0.2750 -0.0591 -0.1168
28637W        W44898  12.966  11.238  14.522  0.0509 -0.1329 -0.2047
28638W        W44899  10.594   0.301  16.270 -0.0055  0.0218 -0.1983
28639W        W44900   8.304  16.539   5.027 -0.4923 -0.2872  0.2081
28640W        W44901  15.393   1.825  12.335 -0.0551  0.0757 -0.2856
28641W        W44902   3.238   5.707   0.595 -0.0569 -0.0106 -0.1421
28642W        W44903   8.050  13.170  15.385 -0.1334  0.1071  0.3706
28643W        W44904   1.518   2.318   5.255  0.0145 -0.0279 -0.1631
28644W        W44905   8.136  10.379   4.980  0.0727 -0.1351  0.0650
28645W        W44906   3.487  11.769   0.569  0.0789  0.0003 -0.0140
28646W        W44907   6.164  12.085   3.064 -0.2060  0.0799 -0.1433
28647W        W44908   2.631  17.415  14.042 -0.1010 -0.0491  0.0596
28648W        W44909  10.539   5.604   5.011 -0.2150 -0.0232  0.0993
28649W        W44910   5.917  11.477  11.819 -0.0097  0.2110 -0.0436
28650W        W44911   6.541   3.534   3.792  0.2548  0.2391 -0.1954
28651W        W44912  13.876  15.718  12.443  0.3343 -0.0946  0.0286
28652W        W44913  14.506   9.286  11.835  0.1595  0.0689 -0.1669
28653W        W44914  14.121   2.166  13.934 -0.0122 -0.0861  0.1456
28654W        W44915  17.850   6.112  12.315  0.0429  0.1487  0.1790
28655W        W44916   3.604   1.965  14.410  0.1675  0.0761  0.1242
28656W        W44917  17.177   4.223  13.528 -0.3019 -0.0550  0.0975
28657W        W44918  11.434   3.109  16.239 -0.1184 -0.1021 -0.2666
28658W        W44919   7.378  12.477  13.261 -0.0114 -0.0440 -0.0447
28659W        W44920   4.611   6.738  14.655  0.3011  0.4405 -0.0813
28660W        W44921   5.913  10.774   6.030  0.1244  0.2139 -0.0522
28661W        W44922   1.215   4.078   6.176 -0.1280 -0.0332  0.0563
28662W        W44923  13.801   8.730   0.110 -0.1208  0.0634 -0.0469
28663W        W44924  16.628  10.725  11.720 -0.4000  0.0310 -0.3226
28664W        W44925  11.272  16.670  15.076  0.1087  0.2987  0.2324
28665W        W44926   3.171   4.175   2.453  0.1800 -0.1967 -0.0605
28666W        W44927  17.812   8.524   2.324  0.2702 -0.2904 -0.1369
28667W        W44928   4.258   5.092  12.182 -0.0633 -0.2349 -0.0657
28668W        W44929   8.848  11.991  12.054 -0.1677 -0.0726  0.1065
28669W        W44930   1.762  15.524   0.920 -0.5897  0.0124  0.2475
28670W        W44931  10.611  17.363  13.112  0.0311  0.2549 -0.0776
28671W        W44932   5.861   2.575  15.900  0.2806 -0.1147  0.2021
28672W        W44933   9.170   4.124  14.816 -0.0875 -0.5428 -0.2255
28673W        W44934  12.651  12.063  14.831  0.0205 -0.2356  0.0383
28674W        W44935  17.343   4.501   2.379 -0.0921 -0.1855  0.0157
28675W        W44936  11.731   6.785  13.113 -0.0887  0.2860 -0.1266
28676W        W44937  11.847   5.883   0.625 -0.0660 -0.1566 -0.1843
28677W        W44938  15.039   8.540   0.957 -0.0118 -0.2425 -0.0127
28678W        W44939  16.517  15.653   1.923 -0.1625 -0.3772  0.0350
28679W        W44940   0.162   5.976   2.782 -0.2971  0.3550 -0.0743
28680W        W44941  14.794   8.033  13.247  0.1470 -0.1347  0.1539
28681W        W44942   8.552  10.046  11.475 -0.1541 -0.2743  0.1580
28682W        W44943   6.019   9.347   0.520  0.3393 -0.0472  0.1129
28683W        W44944  15.996  12.710  12.437 -0.1997  0.6173 -0.1720
28684W        W44945  14.934   4.616   0.576 -0.2358 -0.2220 -0.2121
28685W        W44946   1.150  12.116  12.926  0.1915  0.1153 -0.0700
28686W        W44947  17.573   9.092   3.214 -0.2062 -0.0001 -0.2572
28687W        W44948   2.086  17.182  14.789 -0.3893  0.0280 -0.0533
28688W        W44949   8.066   5.365   5.964 -0.0818  0.0123 -0.0873
28689W        W44950  14.673  11.998  11.611 -0.1296  0.0878  0.2008
28690W        W44951  14.600  17.952  14.988 -0.0141  0.4431 -0.0300
28691W        W44952   7.126  12.974   2.871  0.1521 -0.0683 -0.3063
28692W        W44953   5.079   4.898   1.044  0.0906  0.0848  0.0356
28693W        W44954  16.745   8.031  12.287 -0.0934  0.2287  0.2563
28694W        W44955   7.556   8.451  14.127  0.0437 -0.0351  0.1837
28695W        W44956  11.374   3.692   4.306 -0.1355  0.0598  0.2518
28696W        W44957   4.988   3.532  13.011  0.2212  0.0733 -0.0584
28697W        W44958  12.504  10.711  14.532 -0.1004  0.0756  0.1433
28698W        W44959  11.353   0.437   3.759 -0.0894  0.1888  0.2579
28699W        W44960   3.611  16.473  16.083  0.1976  0.2414  0.0706
28700W        W44961   0.524   2.526   4.801  0.0594 -0.2497  0.3081
28701W        W44962  11.882   3.434  16.125 -0.0599 -0.1589  0.2547
28702W        W44963  14.210  16.610  12.388  0.1543  0.1505  0.2134
28703W        W44964  17.381  10.409  14.759 -0.0066 -0.1449 -0.2797
28704W        W44965  13.497   9.114   4.182  0.0792 -0.0726  0.0594
28705W        W44966   5.232   3.340   4.688 -0.0372 -0.0202  0.0484
28706W        W44967   1.523   7.803  14.279  0.0419 -0.1141  0.1691
28707W        W44968  17.871  12.239  14.672  0.1734  0.1816  0.2380
28708W        W44969   0.340  10.551   3.901 -0.4093  0.1377 -0.4150
28709W        W44970  15.328   9.238   2.083 -0.1958 -0.4361 -0.2370
28710W        W44971   4.181  14.609   3.717  0.3449  0.1213  0.0624
28711W        W44972   9.816  11.159   5.700 -0.1917  0.2326  0.1706
28712W        W44973  13.083   5.996  14.356 -0.0435 -0.0186 -0.0782
28713W        W44974  16.379  17.858  14.263 -0.5768 -0.0884  0.0098
28714W        W44975  14.158   8.416  12.021 -0.0676  0.1587 -0.2604
28715W        W44976  13.547   7.495   2.445 -0.0263 -0.1939 -0.2199
28716W        W44977  15.707  10.011   1.401  0.1283  0.1694  0.1754
28717W        W44978   2.428  17.923   2.520  0.0424 -0.1227  0.0653
28718W        W44979  12.831   1.116  11.807 -0.2284  0.1586 -0.2039
28719W        W44980   5.849  15.358   3.274 -0.2078  0.1233 -0.2683
28720W        W44981   8.867   6.732   1.600  0.2302 -0.1670 -0.0577
28721W        W44982  17.954   9.883  12.412  0.1139 -0.5265 -0.0609
28722W        W44983   8.068   6.518  11.914 -0.0996  0.0217 -0.1232
28723W        W44984   3.949  11.246   5.141  0.2678 -0.2000 -0.0130
28724W        W44985  12.278  12.121  15.202 -0.2630 -0.1105 -0.1632
28725W        W44986  12.952  15.915  11.848  0.1084  0.0105  0.5110
28726W        W44987   7.736   2.787   3.604 -0.1317  0.0044 -0.0860
28727W        W44988  13.557   6.848  11.034  0.0905 -0.1764  0.3116
28728W        W44989   6.344  17.529   6.083 -0.1346  0.4742  0.1214
28729W        W44990  15.423  15.595  11.689 -0.0404 -0.0848  0.1676
28730W        W44991   2.969  18.164  14.539  0.0752 -0.2316  0.0028
28731W        W44992   4.073  12.867  14.314  0.0961  0.1096 -0.0990
28732W        W44993   1.241   1.371  12.250 -0.2441  0.1034  0.0404
28733W        W44994   8.834   7.032  13.437 -0.2071  0.2059  0.0770
28734W        W44995  13.434  12.779  13.052  0.0396 -0.0072  0.1819
28735W        W44996   7.093   5.630   4.384 -0.0754  0.1153  0.0503
28736W        W44997   0.939   6.467   0.815  0.4497 -0.1157 -0.1530
28737W        W44998   9.090   0.756   0.054 -0.0156 -0.0996  0.0751
28738W        W44999  14.172   7.681  13.927  0.0695 -0.2450 -0.0366
28739W        W45000  12.154  14.103   2.674  0.0211 -0.2029  0.0378
28740W        W45001   0.694   7.008   3.630  0.2402  0.1951  0.1420
28741W        W45002   9.357  14.197  14.618 -0.1655 -0.0416  0.3148
28742W        W45003  11.053   0.476  14.543  0.3633 -0.1066  0.2228
28743W        W45004  12.894   7.454  13.216  0.1734 -0.0468 -0.1922
28744W        W45005  15.939  13.408   2.960 -0.3311 -0.2158  0.1500
28745W        W45006   0.327  17.850   1.740  0.0494  0.3413 -0.1739
28746W        W45007  12.113  11.738  16.174  0.2656  0.2201 -0.0523
28747W        W45008   6.493  14.686  16.342 -0.1523 -0.0635 -0.2176
28748W        W45009  17.383   3.251  11.923  0.0003 -0.1118  0.1477
28749W        W45010   6.634   3.489  13.267  0.1748  0.2445  0.4361
28750W        W45011  11.687   2.270   1.060  0.0895  0.3723  0.0857
28751W        W45012  15.851   7.573   2.031 -0.0158 -0.1368 -0.0288
28752W        W45013  15.664  10.045  14.353 -0.1196 -0.1998  0.2477
28753W        W45014   7.275  13.628   0.184  0.0797 -0.1306  0.0208
28754W        W45015   4.966  16.433   1.035 -0.1447  0.0096 -0.0235
28755W        W45016  12.180  10.348  13.134 -0.0350 -0.4669 -0.0477
28756W        W45017   4.662  17.815  13.234 -0.1829 -0.0124  0.1243
28757W        W45018  10.229   7.568   1.154  0.1600  0.0002  0.2567
28758W        W45019   9.097   8.923   6.070 -0.1222 -0.0015 -0.0316
28759W        W45020  16.180  11.512  14.801 -0.2141 -0.0432  0.0414
28760W        W45021   9.020   1.150  11.455  0.1750  0.0534  0.1667
28761W        W45022  11.807  15.711   4.253  0.2342 -0.2080  0.1635
28762W        W45023   0.226  15.016  14.771 -0.1226  0.1798  0.0313
28763W        W45024   5.684  11.759  13.147  0.0816  0.1635  0.1104
28764W        W45025  17.864  12.350   2.542 -0.3048  0.0212  0.0107
28765W        W45026   5.468  14.961   3.841  0.0928  0.0585  0.0682
28766W        W45027   8.048  16.008   0.435 -0.2307  0.1648 -0.2627
28767W        W45028  10.745   4.925   0.276 -0.0580 -0.0315  0.1581
28768W        W45029   0.137   8.263   2.322  0.0359  0.2333  0.1269
28769W        W45030  14.726  13.649  15.430  0.1135 -0.0489  0.3555
28770W        W45031  11.487   3.928  11.084  0.0085 -0.3180 -0.1187
28771W        W45032  14.893   6.818  11.941  0.1526  0.0079  0.1398
28772W        W45033  10.141  10.563   2.808 -0.2070 -0.0026 -0.1905
28773W        W45034   0.614   9.345  12.737 -0.1457 -0.1038  0.1928
28774W        W45035   8.437  13.863   3.750 -0.2508 -0.1674  0.0643
28775W        W45036   7.211   2.675   2.520  0.0766  0.0919 -0.1518
28776W        W45037  10.469  10.652   2.277 -0.1364  0.2220  0.1758
28777W        W45038  17.455   1.000  14.687 -0.1117 -0.1486 -0.3841
28778W        W45039   2.689  16.942   1.225 -0.2752  0.2683  0.0751
28779W        W45040   9.404  13.558  13.660 -0.1494  0.0413  0.0411
28780W        W45041   2.140   8.723  12.009  0.0854  0.0963  0.1990
28781W        W45042  11.186   2.059   1.259  0.1234  0.1565  0.1182
28782W        W45043  16.190   3.616  15.544 -0.1234 -0.1667 -0.0087
28783W        W45044   4.702  15.231  11.916 -0.1351  0.1685 -0.1111
28784W        W45045  11.034   1.728   2.862  0.1076  0.0714  0.0433
28785W        W45046  11.029  12.539   3.141  0.2832  0.0811  0.1993
28786W        W45047  12.484   0.669  14.051  0.3835  0.0810  0.2195
28787W        W45048  17.953  16.078  15.243  0.3543  0.1069 -0.2315
28788W        W45049   6.152  14.410  15.467 -0.1022  0.4011  0.3349
28789W        W45050   6.257   4.456  15.788 -0.0926 -0.4634  0.4696
28790W        W45051  14.013   9.345  11.664  0.0424  0.0020  0.0045
28791W        W45052  16.804   5.682   3.706  0.1785 -0.1382  0.1763
28792W        W45053   8.368  10.976   5.935  0.0527  0.1313 -0.0389
28793W        W45054   1.464   7.631   0.206 -0.1365 -0.0692 -0.0868
28794W        W45055   6.383   5.445  13.604  0.4204  0.0965  0.1043
28795W        W45056   7.049   8.801  12.393  0.1851 -0.2821 -0.2751
28796W        W45057  12.352  14.758   5.259 -0.0716  0.1318  0.2445
28797W        W45058   4.521   5.655  13.391 -0.3318  0.2944  0.0833
28798W        W45059   9.704   2.985  14.409  0.0874 -0.1570 -0.1981
28799W        W45060   6.532   0.914   4.613  0.1781 -0.0006 -0.3345
28800W        W45061   6.670  18.025  12.443 -0.1228 -0.3254  0.3906
28801W        W45062   9.907  11.447   0.304 -0.1143  0.2608 -0.1809
28802W        W45063   7.784   3.324   0.883  0.1245 -0.2363  0.3341
28803W        W45064  10.045   9.920   0.619 -0.1140  0.0025 -0.1591
28804W        W45065  15.863  17.366   5.762  0.1325 -0.2610 -0.3004
28805W        W45066  11.657   3.787  14.528 -0.2146  0.1570  0.1896
28806W        W45067   3.405  13.742   2.701  0.2414 -0.1055 -0.0239
28807W        W45068  16.927  11.770  13.651  0.0556  0.2145  0.1335
28808W        W45069   5.598  14.434  12.720 -0.0000 -0.0461 -0.1027
28809W        W45070  16.026   2.437  12.486 -0.1025  0.6282 -0.1739
28810W        W45071   5.537  13.381  13.359  0.1599 -0.0005  0.2718
28811W        W45072   1.520   9.400  15.193  0.0229 -0.0169 -0.3015
28812W        W45073   9.397   6.782   3.042 -0.3585 -0.0091 -0.0886
28813W        W45074  13.995   2.441  12.199  0.1320 -0.1964  0.0658
28814W        W45075   7.901   0.555  16.491  0.0917  0.2614  0.1828
28815W        W45076  17.901  12.655   5.071  0.1038  0.0467 -0.1672
28816W        W45077  15.387   8.058  15.909  0.3042  0.2144  0.0053
28817W        W45078   4.317  12.146   1.828 -0.1228 -0.1725  0.0678
28818W        W45079   9.172  17.984   0.951  0.0975  0.2742 -0.1607
28819W        W45080  17.360  13.602  12.062  0.2508  0.3198  0.2975
28820W        W45081  15.262   3.668  13.128  0.0187 -0.0324 -0.1449
28821W        W45082  15.397   2.621   1.922  0.1526  0.0541 -0.2347
28822W        W45083  15.368  14.018   2.578  0.0862 -0.1613 -0.1905
28823W        W45084  15.882   2.635   2.655  0.0176 -0.0757 -0.2069
28824W        W45085   4.648   0.262   1.499 -0.1800  0.2293  0.1933
28825W        W45086  13.356   1.796  15.930 -0.1703 -0.0929 -0.0166
28826W        W45087   4.737   7.072  11.408 -0.0380 -0.0207  0.0078
28827W        W45088  14.570   3.632   0.777  0.1275 -0.3030  0.1035
28828W        W45089   3.658   5.044   5.163  0.2329  0.0318 -0.1348
28829W        W45090   0.238   7.516  16.444  0.0201 -0.2682  0.3594
28830W        W45091   8.619  12.272   2.279  0.0674 -0.1332 -0.2681
28831W        W45092  17.978   6.038  13.214  0.2389 -0.1762  0.0173
28832W        W45093   5.751   0.032   3.287  0.0057  0.1213  0.2007
28833W        W45094  11.261   7.099  12.995 -0.0561  0.0531 -0.1672
28834W        W45095   2.514  17.831   4.554  0.3079 -0.0283 -0.0101
28835W        W45096   8.327  13.169  12.967  0.1114 -0.2524  0.0173
28836W        W45097  11.058   0.611  11.708  0.2046  0.1965 -0.0415
28837W        W45098   9.938  14.988   3.332  0.3139 -0.1476 -0.1886
28838W        W45099   0.168   4.262  16.574  0.3313  0.2338 -0.2910
28839W        W45100   7.587   6.618   2.324  0.3942 -0.2193 -0.1552
28840W        W45101   8.447  15.691  11.977  0.1225 -0.3615 -0.0693
28841W        W45102   0.376   5.838   5.458 -0.2996 -0.1202 -0.0974
28842W        W45103   6.528   0.778  15.061  0.0712  0.2682 -0.2526
28843W        W45104  11.834   0.597   1.351  0.3724 -0.1485  0.0139
28844W        W45105   2.496   3.334   2.315  0.0641  0.0097 -0.0420
28845W        W45106  10.289   4.545   3.426  0.2091  0.1772 -0.0703
28846W        W45107  15.687  18.039   0.892  0.1008 -0.2236  0.0191
28847W        W45108   7.148   1.763   5.309  0.1857 -0.0377 -0.1287
28848W        W45109  16.871   8.809   2.737 -0.1275 -0.0480 -0.1180
28849W        W45110  13.772   8.948  14.273 -0.1105  0.2039 -0.1404
28850W        W45111   4.911   1.812   1.342  0.0194 -0.1059 -0.3165
28851W        W45112  18.093   5.772  14.424  0.4023  0.1404  0.1083
28852W        W45113   5.408   9.098   2.067 -0.1657  0.0601  0.1982
28853W        W45114  16.479   6.901  12.369 -0.1329  0.0479 -0.1730
28854W        W45115   0.247   7.732   2.069 -0.0081  0.1882  0.1256
28855W        W45116   1.597  12.077   0.817 -0.1590 -0.2009 -0.3238
28856W        W45117   1.065   3.179  14.646 -0.0429 -0.1180  0.0901
28857W        W45118   9.934   4.989   4.622  0.3120 -0.0580  0.1131
28858W        W45119  15.934   6.440  16.600  0.0508  0.2280 -0.0432
28859W        W45120  15.894   0.809  15.987  0.0431 -0.1306 -0.0226
28860W        W45121   7.700  14.044   1.589  0.0152 -0.0416  0.2278
28861W        W45122   4.273  15.267  12.700  0.0063  0.1210 -0.2158
28862W        W45123  13.478   4.482   1.053  0.3386 -0.0370  0.1724
28863W        W45124  10.599  10.494   2.957 -0.2208 -0.0231  0.1592
28864W        W45125  11.338  11.954   2.527 -0.0211  0.3398  0.1964
28865W        W45126   6.534   4.526  14.732  0.1219 -0.0752 -0.0398
28866W        W45127  15.561   8.837   2.320 -0.1591  0.0231  0.0857
28867W        W45128   6.693   4.452  13.071  0.0769  0.1032  0.0694
28868W        W45129   7.670  14.037   3.377  0.3426 -0.2851 -0.0630
28869W        W45130  11.748   5.792  11.839 -0.0981 -0.0544  0.1911
28870W        W45131  14.251   4.460   5.102  0.2205 -0.0878  0.2876
28871W        W45132  13.571  12.089   2.556  0.1611  0.0178  0.2402
28872W        W45133  12.752   2.622  12.986 -0.0017 -0.0026  0.0780
28873W        W45134  15.078  14.424   2.916 -0.0074  0.0109 -0.1812
28874W        W45135   6.119   6.369  16.264 -0.2091 -0.2444  0.4309
28875W        W45136  14.629  15.150  14.381 -0.2519 -0.0408  0.1374
28876W        W45137   8.979   5.420  12.718 -0.3005  0.2189 -0.0251
28877W        W45138  11.454   6.006   2.228 -0.0993 -0.0191  0.0595
28878W        W45139   9.511  15.912  16.121 -0.0227 -0.2614 -0.0897
28879W        W45140  15.870  10.552   2.957 -0.2921 -0.2609 -0.0996
28880W        W45141   1.694   7.536   1.390 -0.3104 -0.0461  0.0915
28881W        W45142  11.841  15.342  13.087 -0.0205  0.2250  0.0838
28882W        W45143   4.029   1.308  16.633 -0.0813  0.0455 -0.2269
28883W        W45144  12.373  17.627  13.747 -0.2410 -0.0760 -0.2190
28884W        W45145   4.487   2.115   4.913 -0.0476  0.0543 -0.1060
28885W        W45146  10.394  17.691  11.372 -0.1582  0.0318  0.1132
28886W        W45147   5.210   5.150   0.607  0.1476  0.0267  0.2902
28887W        W45148   2.149   5.771  14.040 -0.1560  0.0586  0.1648
28888W        W45149   7.798   0.850  12.708  0.1338 -0.1551  0.1072
28889W        W45150   2.322  15.509   2.468  0.2272  0.0298 -0.1184
28890W        W45151   7.496  16.680   4.362 -0.0970 -0.2286 -0.1701
28891W        W45152  16.131  15.345   2.012 -0.1434  0.0344  0.0829
28892W        W45153  15.187  15.817   4.194  0.1121  0.0232  0.2568
28893W        W45154  14.157  11.052   4.872 -0.0123 -0.1311 -0.2586
28894W        W45155   4.367  13.191   1.532 -0.1869  0.2429  0.3155
28895W        W45156   3.010   1.594   4.060  0.1537  0.0129 -0.1046
28896W        W45157  16.330   2.189   4.556  0.1307 -0.2655  0.0959
28897W        W45158   0.209  13.155   3.783  0.0239  0.0123  0.0682
28898W        W45159  16.712  15.350  14.139  0.2770 -0.0707  0.0847
28899W        W45160  12.816  13.344  11.627  0.0535  0.2260 -0.1591
28900W        W45161   1.290  11.425   1.317  0.1356  0.0924  0.0284
28901W        W45162  17.069   5.429   2.990 -0.1827 -0.2838 -0.0414
28902W        W45163   0.676  11.356   3.444 -0.3140  0.1024  0.0523
28903W        W45164  15.973   9.607  15.939  0.0082 -0.3175  0.1763
28904W        W45165   9.283   5.917  14.034 -0.0185 -0.1180 -0.0497
28905W        W45166  13.545   6.382   2.330  0.0287  0.2632  0.0883
28906W        W45167  15.391  14.164   1.728 -0.0748  0.1352  0.2361
28907W        W45168  11.496  13.355  14.393 -0.0851  0.1131  0.1834
28908W        W45169   8.229   9.234   1.568 -0.0161 -0.1086  0.0153
28909W        W45170   5.881   4.920  11.418  0.3885 -0.0367 -0.0710
28910W        W45171   9.647  12.496   2.647 -0.0032 -0.2539  0.1184
28911W        W45172  16.649   4.372  13.961 -0.1682  0.1434 -0.1216
28912W        W45173   6.906   2.818   5.444  0.3941  0.2188 -0.0022
28913W        W45174  17.063   2.012  11.570  0.2779  0.2472 -0.2926
28914W        W45175   8.428  13.034   2.940  0.3654  0.0034 -0.2301
28915W        W45176  17.849   7.440  13.165 -0.1501 -0.0842 -0.1229
28916W        W45177  11.236  11.601   3.910  0.2232 -0.1935  0.0004
28917W        W45178   5.044   2.370   1.326  0.0052 -0.0012 -0.2525
28918W        W45179  10.045  10.086   4.959 -0.1126  0.0742 -0.4074
28919W        W45180   8.910   2.846  15.640  0.1184  0.0311  0.0997
28920W        W45181   9.937   0.758  15.638  0.0246 -0.0255 -0.1640
28921W        W45182   0.018   4.083   4.259  0.0031 -0.1817 -0.2624
28922W        W45183  17.031   9.362  11.217  0.1168 -0.0223  0.1030
28923W        W45184   3.544   5.106  14.102  0.1398  0.2290 -0.1410
28924W        W45185   4.469  16.388  11.795  0.0746  0.0555 -0.3821
28925W        W45186  14.397   0.975  13.568  0.0105 -0.3560 -0.2234
28926W        W45187   4.422   6.891   3.400  0.0553  0.0399  0.4976
28927W        W45188  16.670   7.128  14.607  0.1031  0.0563  0.0487
28928W        W45189   8.458   7.166  12.608  0.0571  0.1885  0.2551
28929W        W45190  17.196   9.165   4.674 -0.0672  0.0643 -0.0418
28930W        W45191   5.867   9.484   1.127 -0.3671 -0.1952  0.1896
28931W        W45192  11.951  14.559  14.842  0.2656  0.0771  0.4234
28932W        W45193   1.789  12.561  11.988  0.1460 -0.4285  0.3089
28933W        W45194   6.998   6.498  15.025 -0.1753  0.0243 -0.1508
28934W        W45195  17.121  14.175  11.129 -0.0025 -0.0007 -0.3046
28935W        W45196  11.931  12.895   2.884  0.1899  0.0135  0.1194
28936W        W45197   5.051  16.866  14.113 -0.0477 -0.0510  0.1068
28937W        W45198  11.530   2.103  15.323  0.0480  0.0706  0.1499
28938W        W45199  17.636  17.259  16.013 -0.1644  0.4411  0.2953
28939W        W45200   9.817   5.913  13.828 -0.0702  0.2443 -0.1837
28940W        W45201   9.998   5.315  16.370  0.0261 -0.0350  0.2450
28941W        W45202  10.711   7.762  16.188  0.1539  0.0090  0.2391
28942W        W45203  13.804   0.082  12.947  0.0958  0.3830  0.4144
28943W        W45204   7.180   9.682   5.154  0.0237 -0.1554 -0.2239
28944W        W45205   7.333  16.333   6.478 -0.0627  0.2834 -0.1656
28945W        W45206   6.226  11.194  16.291  0.1649 -0.2583 -0.0234
28946W        W45207   2.799  14.411  16.558 -0.1037  0.0130 -0.3379
28947W        W45208   7.337   8.135   3.491  0.2175 -0.1564  0.0568
28948W        W45209   2.113   5.299   3.483  0.1221  0.1646  0.2838
28949W        W45210  13.453   9.817  12.950  0.0537 -0.1188  0.2826
28950W        W45211  14.161  11.719  14.790 -0.0961  0.0663  0.1481
28951W        W45212   2.553   2.776  16.644  0.0411 -0.0828 -0.1881
28952W        W45213   4.892   4.878  12.213  0.1890 -0.1745  0.2596
28953W        W45214  17.815   0.674   2.987  0.1298 -0.3882 -0.0635
28954W        W45215  15.994  14.130   4.296 -0.0385 -0.3109 -0.0775
28955W        W45216   5.645  12.148   4.844  0.2513 -0.2344  0.1677
28956W        W45217   8.075   5.813  15.345 -0.0048  0.1163 -0.2665
28957W        W45218   4.507   6.179   4.834 -0.0251 -0.3105 -0.1239
28958W        W45219  13.154   4.243  15.849  0.0761  0.1627 -0.1944
28959W        W45220   1.063  13.971   2.512 -0.0406  0.2403 -0.0907
28960W        W45221   8.564   8.442  12.005  0.1726 -0.0366 -0.0729
28961W        W45222  14.059   2.271  16.006 -0.0388 -0.0622  0.0118
28962W        W45223  15.632  14.506   5.514 -0.0691 -0.0949  0.1548
28963W        W45224   9.201   6.853  13.132 -0.1494  0.0142  0.1200
28964W        W45225   9.094   4.759   1.454  0.0477  0.0447  0.0057
28965W        W45226   7.380   9.681   3.008  0.0080  0.0834 -0.2950
28966W        W45227  14.299   4.646  10.928  0.0872  0.0927 -0.0531
28967W        W45228  14.211  13.626   1.091 -0.1568  0.3642  0.0972
28968W        W45229  12.771   6.944  16.035  0.1504 -0.0525 -0.0718
28969W        W45230  10.484   0.952  11.476 -0.0698 -0.1180  0.0100
28970W        W45231   5.002  12.817  12.019  0.0411 -0.1053 -0.1380
28971W        W45232  17.150   9.957   1.454 -0.1611  0.1534  0.2232
28972W        W45233   5.901  12.861   4.737 -0.0339  0.0827  0.3213
28973W        W45234   8.380  15.221  15.439  0.3244 -0.0481 -0.1472
28974W        W45235   3.853  17.273  15.153  0.3280 -0.2142 -0.1570
28975W        W45236  17.332  16.635  15.884 -0.1521  0.2071 -0.4973
28976W        W45237   1.561   8.436  14.990 -0.1524 -0.1012  0.3465
28977W        W45238   9.236  12.071  13.396  0.2249 -0.1587  0.1903
28978W        W45239  13.654   8.462  11.912  0.1121 -0.0221  0.1475
28979W        W45240  12.516   6.480   5.089 -0.0816 -0.0614 -0.0383
28980W        W45241   8.831  11.419  12.502 -0.1115  0.0592  0.1122
28981W        W45242  12.501   7.282  14.456 -0.0263 -0.1004  0.0676
28982W        W45243  10.584   2.235  15.901  0.1017 -0.1904 -0.2550
28983W        W45244   4.134   4.362   1.354 -0.0181 -0.0598  0.0859
28984W        W45245   1.368   7.093   0.162 -0.1565 -0.2526  0.1535
28985W        W45246   5.766  15.668   0.690  0.2260 -0.0125 -0.3232
28986W        W45247  16.488  15.301  12.535 -0.2415 -0.0862 -0.2344
28987W        W45248  15.730  13.947   3.904 -0.0309  0.2157 -0.0557
28988W        W45249  16.734  13.410   0.286  0.0629  0.1388 -0.2178
28989W        W45250   6.357  13.685   3.628  0.2993 -0.1959  0.0300
28990W        W45251  11.370   2.432   3.346  0.0383  0.1595  0.0188
28991W        W45252  12.945   6.619  11.000 -0.0162 -0.0889 -0.0329
28992W        W45253   3.841  13.958   1.000  0.1098  0.3604 -0.3748
28993W        W45254   3.085   7.169  14.408  0.0832  0.0414 -0.1482
28994W        W45255   5.847   2.713  15.405 -0.2764 -0.0762  0.2387
28995W        W45256   7.504  11.271   3.060 -0.0238 -0.0245  0.0682
28996W        W45257  15.070   1.096   4.515  0.0128 -0.1176 -0.2067
28997W        W45258   8.057   9.290   1.104  0.1828 -0.2513 -0.1322
28998W        W45259   2.552  16.217  14.748  0.2930  0.0436  0.2009
28999W        W45260  17.548  10.166   5.566 -0.2177  0.1696  0.1801
29000W        W45261   9.997  18.044   1.075 -0.1180 -0.2758 -0.0583
29001W        W45262  14.767  17.196  11.281  0.0131 -0.2391 -0.0713
29002W        W45263  12.684   4.138   2.821  0.2068 -0.0175  0.3483
29003W        W45264  16.327  14.451  11.236 -0.0720 -0.1683 -0.1199
29004W        W45265   1.577   4.974  14.284 -0.2596  0.3656  0.3462
29005W        W45266  15.593  17.683   5.415 -0.4715 -0.0837  0.4783
29006W        W45267  16.756   0.144   4.013 -0.0360  0.0088  0.1309
29007W        W45268   7.313   2.672   3.857  0.0949  0.1125  0.0145
29008W        W45269  16.745   8.843  11.820  0.0500  0.1383 -0.1035
29009W        W45270  15.237   8.122  13.464  0.1843 -0.2515  0.3011
29010W        W45271   9.285   0.862  12.347 -0.0574  0.2056  0.1978
29011W        W45272   0.992   4.859   1.424  0.0898 -0.0758 -0.0286
29012W        W45273   1.843  17.175   2.114  0.1389 -0.1475  0.0209
29013W        W45274   2.314   6.930  16.110  0.0784  0.0716 -0.2433
29014W        W45275   2.398   6.135   0.752  0.1452  0.0489  0.2953
29015W        W45276   4.462  17.182  15.749 -0.4101  0.2786 -0.2510
29016W        W45277  11.932   9.620   0.535  0.0800  0.0908  0.0875
29017W        W45278  17.613   1.714  13.229  0.0981  0.2449 -0.2343
29018W        W45279  16.196  15.858   0.234 -0.0397  0.1063  0.1412
29019W        W45280   0.604   9.477   0.301 -0.0203 -0.1123  0.1068
29020W        W45281  12.058   2.436  16.109  0.1160  0.1267  0.0980
29021W        W45282   2.702  11.222  12.754  0.0177 -0.1355 -0.0865
29022W        W45283   8.955   9.314  11.989 -0.1258 -0.0322  0.1097
29023W        W45284   3.174  17.346  14.863 -0.0946  0.4333 -0.1692
29024W        W45285  10.039   2.621  11.815  0.1676  0.0412  0.0484
29025W        W45286   8.676  14.537  12.949 -0.0476  0.3785 -0.0982
29026W        W45287   6.719   2.348   5.186 -0.2324 -0.0641  0.2355
29027W        W45288   5.050  13.369  15.870 -0.1538 -0.1264 -0.1510
29028W        W45289   9.637   4.993   5.024 -0.0052 -0.0068  0.0465
29029W        W45290   6.369  12.672  14.787 -0.0512  0.3069  0.1233
29030W        W45291  17.960  16.311   3.772  0.2035 -0.0196 -0.0087
29031W        W45292  18.023  17.673   3.161 -0.1324 -0.0638  0.0736
29032W        W45293  12.726  11.369   1.516 -0.0255 -0.2587  0.1641
29033W        W45294  15.129   6.540   4.802  0.0635 -0.0489 -0.0978
29034W        W45295  16.044   6.826   1.881 -0.1013  0.1765  0.1106
29035W        W45296   3.210  10.362   5.799 -0.2273  0.0054  0.2099
29036W        W45297   6.679   9.695  13.818  0.1684 -0.1200  0.0705
29037W        W45298   2.152  13.597   5.099 -0.1371 -0.0837 -0.4311
29038W        W45299  16.541   0.874   5.137 -0.0784  0.0274 -0.2204
29039W        W45300   7.091  17.628  15.665  0.2591 -0.1510 -0.0574
29040W        W45301   1.726   8.680   4.033 -0.0488  0.1329  0.0948
29041W        W45302  16.575  15.490  14.688  0.0383  0.1352  0.0688
29042W        W45303   8.727   3.077   2.391 -0.2797 -0.1339  0.1046
29043W        W45304  15.304  10.065   0.464 -0.1055  0.0712  0.2945
29044W        W45305   2.035   6.704   2.378 -0.1936 -0.2775  0.0363
29045W        W45306   8.093   9.489  16.214 -0.3083  0.1654  0.1418
29046W        W45307  10.531   4.032   1.308 -0.0327 -0.2550  0.0533
29047W        W45308   4.332  10.714   2.250 -0.3454  0.0042 -0.0598
29048W        W45309  12.967   9.898   1.091  0.0200  0.2584 -0.2465
29049W        W45310  12.041   7.264   0.637  0.0452 -0.3247 -0.2536
29050W        W45311   0.283   5.383   5.571  0.1143 -0.0259 -0.4294
29051W        W45312  13.787   3.588  11.692  0.0763 -0.1224  0.2187
29052W        W45313   8.202  16.869   2.056  0.2027  0.0694  0.1722
29053W        W45314  11.754  11.927   0.622 -0.4169  0.0959  0.0211
29054W        W45315   2.828  10.552  14.851  0.0528  0.0981  0.1060
29055W        W45316  12.881  17.420  11.643 -0.3095 -0.0074  0.1196
29056W        W45317   6.679  11.815  15.907 -0.2299  0.2547 -0.1000
29057W        W45318   2.703   1.315   0.243 -0.3004 -0.2300  0.2445
29058W        W45319  11.595   0.277  13.621 -0.0898  0.2127  0.0005
29059W        W45320  16.555  16.992   1.580  0.2360 -0.0477 -0.1594
29060W        W45321   1.436  13.470   0.704  0.2096  0.1517 -0.0543
29061W        W45322   3.145   4.306   4.831  0.0124  0.0553 -0.0212
29062W        W45323  16.275   1.696  12.015 -0.1027  0.1294 -0.0426
29063W        W45324   3.516  15.436   3.396  0.1975 -0.0130 -0.0657
29064W        W45325   2.230  17.417   0.572  0.0846 -0.0628  0.1337
29065W        W45326  13.523   0.818   3.001 -0.0397  0.1459  0.0539
29066W        W45327  16.426   5.356  13.664 -0.1248  0.4215  0.1115
29067W        W45328  16.652  10.075   1.173 -0.3483 -0.0429 -0.0767
29068W        W45329  16.531  12.727   0.266  0.0964  0.1313  0.0099
29069W        W45330   4.009  12.885  11.911 -0.1369 -0.0004  0.0937
29070W        W45331  12.790   3.360   4.588 -0.0087 -0.1964  0.0488
29071W        W45332  11.203  16.865  13.743  0.0363 -0.0429  0.0525
29072W        W45333   8.976   8.779  16.618 -0.1435  0.2192 -0.0181
29073W        W45334   4.229   6.662   3.004  0.1010 -0.1119 -0.1521
29074W        W45335  16.644   1.510  12.986  0.0519  0.2035 -0.0138
29075W        W45336   7.402  17.143  12.822  0.0398  0.3402 -0.0899
29076W        W45337   7.349  16.190  12.686  0.1479 -0.1533 -0.2034
29077W        W45338  10.322   6.226   4.406 -0.3221  0.1119 -0.0180
29078W        W45339  13.791  14.139   2.154  0.1429 -0.1945 -0.2762
29079W        W45340   5.069  13.255   6.281 -0.3012 -0.0812  0.1394
29080W        W45341   7.916  17.349  16.007 -0.1736  0.1857 -0.0239
29081W        W45342  18.136  13.653  12.976  0.1546 -0.2320 -0.1523
29082W        W45343   5.638  13.398  12.790  0.0655 -0.1262 -0.3432
29083W        W45344   5.371   4.197  15.752  0.1013  0.0126 -0.1249
29084W        W45345   4.502   1.655  14.666  0.0373  0.1227  0.2493
29085W        W45346   9.471   3.528   5.708 -0.3537 -0.0558 -0.2001
29086W        W45347   9.591   4.567   4.755  0.0377 -0.1466  0.2408
29087W        W45348   3.540   0.624   4.307  0.0993  0.0656 -0.2558
29088W        W45349  16.501  13.896  12.987  0.1224  0.1011  0.0970
29089W        W45350   4.647   0.451   4.269 -0.1123 -0.1908 -0.0574
29090W        W45351   0.434   6.546  15.647  0.1486  0.2396  0.3333
29091W        W45352   2.241   0.594  12.343 -0.0243  0.4794  0.1155
29092W        W45353   6.657  10.810   4.349 -0.0153  0.0619  0.1449
29093W        W45354   7.482   6.100   1.657 -0.1490 -0.1329 -0.0332
29094W        W45355  16.207   8.432   1.596  0.0953 -0.1197 -0.2944
29095W        W45356   8.788  10.337   5.012  0.1438 -0.0360 -0.0664
29096W        W45357  14.437   6.798   1.167  0.2925  0.0403 -0.1661
29097W        W45358   3.125  13.301   3.995  0.0095 -0.3627  0.2546
29098W        W45359  18.172   2.894  14.018 -0.0387  0.0581  0.0375
29099W        W45360   0.864  14.326   3.953  0.0063 -0.2210  0.0838
29100W        W45361  14.146   0.147   4.055  0.0600  0.0694  0.2038
29101W        W45362   5.992   5.311   0.020  0.1275  0.0223 -0.2628
29102W        W45363  17.964  16.238   5.784 -0.0563 -0.0002 -0.1223
29103W        W45364   5.320  15.886  14.089 -0.2049 -0.0762  0.0953
29104W        W45365   6.458   4.937   3.836 -0.0914 -0.1569 -0.0154
29105W        W45366   2.590   0.812   5.308  0.1287 -0.0622  0.3219
29106W        W45367  13.289   6.927  16.204 -0.0193 -0.1431 -0.0889
29107W        W45368  13.471   2.752   1.428  0.0806  0.0057 -0.0256
29108W        W45369  10.625   6.439  12.461 -0.1419 -0.0386  0.2389
29109W        W45370  13.886  10.074  16.278 -0.2305 -0.0088 -0.0591
29110W        W45371   2.446   0.909  11.375  0.4517 -0.1512  0.0656
29111W        W45372   9.535  16.406   2.821 -0.0452 -0.1075 -0.0588
29112W        W45373   9.963  17.681   4.421  0.0215 -0.0639 -0.0495
29113W        W45374   2.293   2.461   4.719 -0.2653  0.0458 -0.0615
29114W        W45375   6.947  12.256  13.187 -0.2603  0.2320  0.1067
29115W        W45376  13.747   8.276   2.151  0.0754 -0.1082  0.0319
29116W        W45377   7.788  17.385   5.214 -0.0030 -0.1296  0.3276
29117W        W45378   8.829   4.838  12.568  0.0522  0.1768 -0.1862
29118W        W45379   1.764   5.563   1.328  0.2618 -0.4710 -0.0508
29119W        W45380   6.152  12.513   2.706 -0.2233 -0.2368 -0.1809
29120W        W45381   1.894  10.848   1.702  0.0129 -0.1523  0.3880
29121W        W45382   1.070   8.516   0.094  0.1543  0.1848  0.0247
29122W        W45383   9.424   5.644  13.557  0.2057  0.1690  0.1895
29123W        W45384   4.190   3.152  14.114  0.2279 -0.0751 -0.3573
29124W        W45385   8.105   7.621   5.075  0.3754 -0.1431  0.2235
29125W        W45386   3.635   7.514   3.310 -0.2897  0.2630  0.2029
29126W        W45387  14.019   0.261   3.574  0.1532  0.2660 -0.1275
29127W        W45388   0.262  13.149   5.847  0.0605  0.0773  0.0477
29128W        W45389   7.865   3.589   0.053  0.0150 -0.2932 -0.1187
29129W        W45390   0.168   7.682  14.979  0.1302 -0.0162  0.0974
29130W        W45391   1.931   8.577  16.322  0.2627  0.1865 -0.2339
29131W        W45392  13.609   8.139  15.100  0.1169 -0.1463 -0.0685
29132W        W45393   2.370   3.768  16.514 -0.0357 -0.2766 -0.0986
29133W        W45394  13.745  10.388  14.875 -0.0308 -0.1679 -0.4015
29134W        W45395  12.711   0.843   0.046 -0.0006 -0.0935  0.0479
29135W        W45396   5.944   6.802  14.968 -0.0980  0.0617  0.0665
29136W        W45397  14.177  17.392   1.967 -0.2849 -0.0649  0.0410
29137W        W45398  16.582  18.162   5.004 -0.0317 -0.1001  0.2412
29138W        W45399   0.245  16.152   5.647  0.1090  0.4396 -0.2662
29139W        W45400  16.506   3.334   1.637  0.3515  0.1797  0.0238
29140W        W45401  15.449  16.206   1.984  0.1882 -0.1103  0.4380
29141W        W45402  14.673   2.661  15.116 -0.4128  0.1828  0.0014
29142W        W45403   6.754   6.575   1.318  0.1337  0.0736 -0.0176
29143W        W45404   9.081   6.744  14.209 -0.0640  0.1012  0.3965
29144W        W45405  18.040  14.781   5.918 -0.1009 -0.1399 -0.0505
29145W        W45406  13.446   1.213  13.351  0.2808  0.3298  0.2561
29146W        W45407  11.742   8.766   5.325  0.1797 -0.0562  0.3045
29147W        W45408   6.409   4.024  14.894 -0.1151 -0.1535 -0.1202
29148W        W45409   6.536  15.888   4.776 -0.0897  0.1774  0.0863
29149W        W45410  17.548   4.741   1.986 -0.2131 -0.4296 -0.0588
29150W        W45411  16.769   8.221  11.778  0.0774  0.4555 -0.0580
29151W        W45412  16.684  12.719  15.877  0.2035 -0.1500  0.1008
29152W        W45413   0.704   4.413   1.841  0.0606 -0.0279  0.3368
29153W        W45414  16.297   3.824  12.551  0.0225 -0.0684  0.1984
29154W        W45415   7.624  11.497  12.086  0.0779  0.0902  0.0043
29155W        W45416   4.690   2.168   4.347 -0.1553  0.0048 -0.0043
29156W        W45417  13.227   7.341  11.587  0.1061 -0.3563  0.1711
29157W        W45418   9.526   2.124  14.542  0.0214 -0.1370  0.2191
29158W        W45419   6.362  10.840  13.860 -0.2233  0.0413  0.1219
29159W        W45420   1.703  17.196  13.589 -0.2884 -0.2327  0.2004
29160W        W45421  10.065  13.915   2.280 -0.1709  0.1208  0.1088
29161W        W45422   5.640  10.621   2.586  0.1150  0.0873 -0.2397
29162W        W45423   9.991  15.322  15.388 -0.0797 -0.0933 -0.1779
29163W        W45424  13.822   7.249  13.268  0.0380 -0.2190 -0.0321
29164W        W45425   8.767  12.986  14.734 -0.2864  0.2365 -0.0617
29165W        W45426  17.409   6.076   1.828  0.1297 -0.1399  0.2889
29166W        W45427  16.630  12.454  13.099  0.0598  0.3725 -0.3192
29167W        W45428   0.508  10.262  14.916 -0.1938 -0.0767 -0.0870
29168W        W45429   3.224  11.523  15.899  0.2442  0.0323  0.1258
29169W        W45430  12.752   8.149   2.604  0.2212 -0.2643  0.0848
29170W        W45431   5.614   4.862  15.247 -0.1750 -0.1051  0.1539
29171W        W45432   1.964   9.357   4.007 -0.1247 -0.2672  0.0848
29172W        W45433   2.238   7.267   2.040 -0.0164 -0.0384  0.1804
29173W        W45434   5.266  11.958  12.228  0.0594 -0.1716 -0.0712
29174W        W45435  15.696  12.502   2.371  0.0923 -0.3099 -0.0802
29175W        W45436   2.145  14.899  14.587 -0.0641 -0.0086 -0.0059
29176W        W45437  11.557  14.876   1.869 -0.1228 -0.1598  0.3196
29177W        W45438   1.209   1.977   2.562  0.2634  0.0589  0.2626
29178W        W45439   1.800   7.786  12.188  0.3481  0.2579  0.0145
29179W        W45440   4.378   0.840  12.881 -0.2709  0.2506 -0.2684
29180W        W45441   0.352  10.880  16.041 -0.2432 -0.3163  0.0411
29181W        W45442   6.558  14.371   4.583 -0.1632 -0.0538  0.0319
29182W        W45443   0.926  14.345  11.587 -0.0706  0.0057  0.0787
29183W        W45444  17.463  13.127   1.994 -0.2486 -0.3924 -0.0760
29184W        W45445   8.324   0.359   0.099  0.1301 -0.0409  0.1413
29185W        W45446   4.632   6.401   1.052  0.2352 -0.0214  0.3536
29186W        W45447   6.425  16.769  13.827 -0.0083  0.0060 -0.1305
29187W        W45448  18.089  12.330  15.292 -0.1788  0.2030  0.1753
29188W        W45449   7.452   1.632   0.482  0.2337  0.0297 -0.1588
29189W        W45450  14.034  10.387   3.633  0.0691  0.2057 -0.1238
29190W        W45451   6.622  15.406   4.548  0.1892 -0.2784  0.0594
29191W        W45452  14.396  17.140  13.957  0.2432  0.0677  0.0881
29192W        W45453  14.569  17.434  12.065 -0.2089 -0.1181  0.2406
29193W        W45454  17.555  13.464  11.123 -0.0539  0.0926  0.5043
29194W        W45455   8.312   9.224  15.468  0.1320 -0.1488  0.2229
29195W        W45456  12.876   4.822   2.092 -0.0721  0.0717  0.2257
29196W        W45457  15.860   6.559   1.015 -0.1018 -0.1123  0.0691
29197W        W45458  15.499  13.384  14.312  0.0843  0.0769  0.1527
29198W        W45459   9.060   0.534  16.235  0.0590  0.0923 -0.0648
29199W        W45460  16.257  16.281   3.125  0.1815  0.3308  0.1297
29200W        W45461  10.064   0.355   1.838  0.3508  0.2001 -0.1720
29201W        W45462   6.718   6.248  16.225 -0.1389 -0.2896 -0.1243
29202W        W45463  14.645  16.112   4.220  0.1133  0.2091 -0.0379
29203W        W45464  11.225   0.450  14.063  0.2128  0.0477 -0.0533
29204W        W45465   9.222   9.367   0.318  0.2079 -0.0354 -0.0259
29205W        W45466  13.325  16.557   2.319  0.0492  0.1025 -0.1516
29206W        W45467  13.635   3.003  14.300 -0.0110  0.0436  0.2362
29207W        W45468  15.970   8.650  11.901  0.2554 -0.0764  0.0530
29208W        W45469   9.807  11.605  14.181  0.0998  0.0517  0.1737
29209W        W45470   5.583  15.644   1.169 -0.2950 -0.0573  0.0620
29210W        W45471  15.403   5.105   4.118 -0.0984  0.2942 -0.0241
29211W        W45472   5.699  11.117  12.753 -0.1568  0.1531 -0.0748
29212W        W45473   8.630   1.012   3.062  0.2489 -0.1513  0.0344
29213W        W45474   3.582   5.606   3.050  0.1567  0.0202 -0.0429
29214W        W45475   3.678   0.919   0.546 -0.1250 -0.3141 -0.2023
29215W        W45476  13.433   1.739   3.073 -0.1230  0.0975  0.1457
29216W        W45477  12.975   0.075  11.038 -0.3268  0.1216  0.1807
29217W        W45478   4.716   1.363   0.453  0.0395 -0.2389 -0.1939
29218W        W45479   2.461  17.436   5.829 -0.2329  0.0408 -0.1627
29219W        W45480   0.953  10.632  14.170  0.0076  0.1963  0.0572
29220W        W45481  13.790   1.220  12.407  0.2582 -0.0838  0.1461
29221W        W45482   2.331   6.452   4.411  0.2757 -0.1771 -0.0028
29222W        W45483  11.562  12.818  15.198 -0.2118  0.0528  0.1091
29223W        W45484   0.037   2.840  13.121 -0.1776 -0.1557 -0.3318
29224W        W45485   9.257  11.938   5.382  0.1963 -0.2695 -0.1757
29225W        W45486   6.074   3.722   4.368  0.2262  0.0316  0.0447
29226W        W45487   3.894   3.394   5.142 -0.0202 -0.0679 -0.1938
29227W        W45488   1.297   6.979  14.624 -0.3948 -0.1836 -0.1985
29228W        W45489  16.308   9.303   3.794 -0.0439 -0.0247 -0.2040
29229W        W45490  17.286   6.604   1.427  0.0685  0.2170 -0.1793
29230W        W45491  12.594   2.162   1.226  0.3310 -0.2833  0.0622
29231W        W45492  10.420   8.557   3.703  0.0794 -0.1201  0.0600
29232W        W45493  12.748   0.032   2.423 -0.2670 -0.0873 -0.0254
29233W        W45494   1.522  12.280   5.117  0.0103 -0.0270  0.1717
29234W        W45495  14.838   6.731  15.814  0.2974  0.1010  0.1705
29235W        W45496  16.427  14.016   0.922  0.1607  0.0341 -0.1218
29236W        W45497   3.834  14.420   0.683 -0.0666  0.1366 -0.0500
29237W        W45498   5.256  15.731  11.616 -0.2660  0.3398  0.0654
29238W        W45499  16.481  14.887  12.932  0.0528 -0.4731 -0.2535
29239W        W45500  16.307   6.687   0.206  0.1189  0.0773  0.2609
29240W        W45501   9.812   1.697  12.795 -0.1347 -0.3850  0.0821
29241W        W45502   5.455  10.868   5.220 -0.3184  0.0239 -0.2934
29242W        W45503   7.830  11.335   5.382 -0.3880  0.0871  0.1212
29243W        W45504   7.157   3.351   4.552 -0.3499  0.0035  0.0447
29244W        W45505   0.170   3.435  14.722 -0.0721  0.3650 -0.1931
29245W        W45506  14.010   7.194  15.495 -0.0050 -0.1229  0.3501
29246W        W45507   8.311   0.629   5.371  0.1044 -0.0389 -0.2529
29247W        W45508  16.232   9.380   2.455 -0.1540 -0.2437 -0.0449
29248W        W45509   8.263   1.929  14.408 -0.1532 -0.0245  0.0881
29249W        W45510  11.060   6.025   1.593  0.5161 -0.1200 -0.0729
29250W        W45511  11.984   2.456   0.258  0.3097 -0.0545 -0.4088
29251W        W45512   2.629   5.075   3.733  0.0578 -0.2157 -0.0412
29252W        W45513  17.947  15.421   5.604 -0.2659 -0.2135  0.2135
29253W        W45514  13.708   7.016  11.599 -0.3642 -0.0687 -0.0250
29254W        W45515   4.656   5.207  14.292  0.0687  0.2153  0.1040
29255W        W45516  14.711   1.110  14.520 -0.1555 -0.1554 -0.0107
29256W        W45517   2.106   2.515  12.628  0.1255 -0.1869  0.0055
29257W        W45518  14.505  11.633  12.867  0.1215  0.0349 -0.0907
29258W        W45519  11.998  10.023   1.955 -0.0841 -0.0856  0.1248
29259W        W45520  12.806  14.845  15.144  0.3191 -0.0601 -0.3373
29260W        W45521   1.182  13.035   3.265 -0.2404 -0.1300 -0.0223
29261W        W45522   9.435   1.755   4.061 -0.1360 -0.0220 -0.0238
29262W        W45523  12.839  17.693   2.598 -0.1498  0.1194  0.0250
29263W        W45524  11.762   9.180   0.931 -0.1266 -0.0857 -0.1648
29264W        W45525   4.690   7.288   3.500  0.4575  0.1332 -0.2812
29265W        W45526   0.895  10.700   0.693 -0.0632  0.2101  0.1212
29266W        W45527   4.299   7.635   2.149  0.1635  0.1011 -0.1247
29267W        W45528   0.336  13.919  13.042 -0.0304  0.2151  0.2079
29268W        W45529  15.553  15.748  12.861 -0.0826 -0.3447 -0.2228
29269W        W45530  12.863  15.768  13.856  0.0498 -0.1546  0.3152
29270W        W45531   5.768   4.103  12.756 -0.1521 -0.1463 -0.2160
29271W        W45532   8.690   6.904  15.177 -0.2495  0.1893 -0.2988
29272W        W45533  15.411  16.028  16.274 -0.3363  0.2050  0.1580
29273W        W45534  11.873  15.155   4.274 -0.0281 -0.0388  0.2076
29274W        W45535  11.982   3.070  11.505 -0.0061  0.0913 -0.1539
29275W        W45536   0.136  10.621   3.455 -0.2752  0.1633  0.1859
29276W        W45537  12.164  11.531   3.126 -0.2738  0.1069  0.0984
29277W        W45538   8.770   7.027   2.401 -0.0771 -0.0375  0.2023
29278W        W45539  13.378   0.794   4.097 -0.2544 -0.0198 -0.1133
29279W        W45540   3.757   2.398   0.004  0.3757 -0.0364  0.1248
29280W        W45541  10.679   1.218   4.896 -0.0711  0.0637  0.1866
29281W        W45542  10.952   3.233  16.107 -0.0558  0.1239  0.3219
29282W        W45543   6.009  14.126  11.932  0.2775  0.0726  0.2764
29283W        W45544   4.156   8.605   3.227 -0.2320  0.2361  0.0819
29284W        W45545  13.332   6.769   2.997 -0.0106  0.1155  0.1295
29285W        W45546  15.736   5.841  11.638 -0.0240  0.0849 -0.0727
29286W        W45547   9.638  12.096  10.617  0.0547  0.0195 -0.3290
29287W        W45548   5.091   5.702   3.905  0.4069 -0.1824  0.0002
29288W        W45549  15.100   6.434   1.982 -0.1771  0.0944 -0.1554
29289W        W45550   8.886  10.890   1.139 -0.1861 -0.0833  0.0550
29290W        W45551   0.967   0.254  15.230  0.2354 -0.3616  0.0598
29291W        W45552   7.036   4.664  15.603 -0.1894 -0.0249  0.2282
29292W        W45553   8.051   5.058   2.556 -0.2337  0.0851 -0.0334
29293W        W45554   4.377  15.697   0.722 -0.2281 -0.1134  0.3902
29294W        W45555  15.891   2.969  12.292  0.1412 -0.2137 -0.2989
29295W        W45556  15.107   1.040   0.205  0.0610  0.2625 -0.0094
29296W        W45557   6.618  14.894   0.753  0.1266 -0.0117  0.3558
29297W        W45558  14.574  14.835  11.291 -0.0893  0.3106  0.1460
29298W        W45559   4.322  14.761  14.327 -0.0313 -0.1174  0.0634
29299W        W45560   3.227   6.758  12.854  0.1328 -0.0205 -0.2188
29300W        W45561   3.573   3.528   0.611 -0.1132  0.0601 -0.1528
29301W        W45562   9.274   3.303  12.955  0.0170  0.0738 -0.0329
29302W        W45563  11.369   5.268  14.256 -0.1588  0.3143  0.0722
29303W        W45564  14.559   4.720   4.056  0.3480 -0.0336  0.1478
29304W        W45565   6.577   3.324   2.751  0.0761  0.1108  0.4189
29305W        W45566   6.568   5.347   5.039  0.2432 -0.1487 -0.0525
29306W        W45567   8.520   9.166  13.680 -0.1141 -0.2646 -0.0717
29307W        W45568  10.920  17.884  12.584  0.0853 -0.0206  0.1657
29308W        W45569  11.110   8.494  14.795 -0.1712 -0.1425  0.0208
29309W        W45570   9.978   0.823  16.474  0.1784 -0.0987 -0.2106
29310W        W45571  12.327   3.290  11.056 -0.2271  0.4294  0.0696
29311W        W45572  18.100   4.903  12.316 -0.2092 -0.2408  0.1465
29312W        W45573  12.411  17.721  15.072 -0.0527  0.1538 -0.1624
29313W        W45574   4.217  16.950  16.519  0.0403 -0.2974  0.0929
29314W        W45575   1.608  16.523   0.513 -0.3062  0.1314  0.3365
29315W        W45576   9.817  13.666   4.365 -0.1676  0.1984 -0.0799
29316W        W45577   0.239  11.320   6.239  0.1652 -0.1614 -0.1949
29317W        W45578   7.462  12.692   1.476 -0.0218 -0.1004  0.0200
29318W        W45579   6.634   7.362  11.411  0.3643 -0.2796 -0.0677
29319W        W45580  13.518   4.353  10.117 -0.0363  0.2977 -0.1688
29320W        W45581   6.068  15.932   0.383  0.1265  0.0186 -0.2540
29321W        W45582   0.020   6.574   3.262 -0.1549 -0.2342  0.0219
29322W        W45583   7.948  17.753  11.877  0.1281  0.1116  0.2285
29323W        W45584   7.356   7.772  16.227 -0.0262  0.1468 -0.2878
29324W        W45585  14.305  13.390   2.855 -0.2797 -0.1824 -0.0711
29325W        W45586   0.387   5.888   0.467 -0.1304 -0.2952 -0.1015
29326W        W45587  10.383   4.816   2.604 -0.0966  0.1479 -0.2929
29327W        W45588   1.658  16.382  12.384 -0.0890 -0.3064 -0.1107
29328W        W45589  10.899  16.544  13.365 -0.1614 -0.0837 -0.1568
29329W        W45590  16.769  11.234  16.491  0.1679  0.2110 -0.2378
29330W        W45591  13.776   3.500  13.318  0.0062  0.0554  0.0870
29331W        W45592  15.238  14.485   4.675  0.0241 -0.0921  0.0471
29332W        W45593   1.451   7.503   4.212 -0.1411 -0.2553  0.3840
29333W        W45594   4.983   2.862   0.284  0.2446  0.1543  0.2628
29334W        W45595  18.012  14.325   2.295  0.0718  0.2027  0.3020
29335W        W45596  15.140   6.504  10.923 -0.0398  0.0407 -0.0785
29336W        W45597  13.566  16.787  15.330  0.4076 -0.0788  0.0532
29337W        W45598   5.157   0.609   5.357  0.1673  0.0240 -0.0557
29338W        W45599   8.241  14.104  12.138  0.2349  0.0585  0.0628
29339W        W45600   5.761   6.335   3.748  0.0113  0.2527 -0.0465
29340W        W45601   4.361   7.512  13.675  0.2547 -0.1744  0.1135
29341W        W45602   0.895   2.515   2.626  0.3550 -0.1412 -0.2511
29342W        W45603   4.910   3.706   0.194  0.0017 -0.0471 -0.0421
29343W        W45604  13.850  13.371  14.942 -0.1190  0.1764  0.2635
29344W        W45605   5.278  12.995   3.554  0.2895  0.1856  0.2693
29345W        W45606  16.508  17.135  11.109 -0.1009  0.1410  0.0996
29346W        W45607  13.289  14.449  15.194 -0.2335  0.0047 -0.1590
29347W        W45608  14.233   2.142   3.544 -0.0533 -0.0971  0.2494
29348W        W45609  11.127  15.891  15.569  0.0206 -0.2103  0.0469
29349W        W45610   4.941  10.398   3.399  0.1077 -0.1460  0.0828
29350W        W45611   7.504   8.166   4.225  0.2036 -0.0400 -0.0870
29351W        W45612   1.056   4.258  13.877 -0.2636 -0.3232 -0.1763
29352W        W45613   0.496  18.048  16.510 -0.1678 -0.0127  0.1776
29353W        W45614  17.684   1.406   2.384 -0.0595  0.4130 -0.2539
29354W        W45615  13.513  13.747  12.579 -0.1386  0.6256  0.4121
29355W        W45616  11.889  13.039  14.143  0.1315  0.0666 -0.4721
29356W        W45617   0.321  10.558   1.406  0.0504 -0.4953 -0.0672
29357W        W45618   9.345   2.272  13.032  0.1866 -0.0256 -0.1903
29358W        W45619  17.188  17.281   4.682 -0.4385  0.3199  0.1742
29359W        W45620   8.044   3.462  14.994  0.0351  0.1283 -0.3277
29360W        W45621   1.543   6.368  15.979 -0.2824  0.5102  0.1770
29361W        W45622  14.615   0.887  16.559 -0.0524  0.0371  0.0896
29362W        W45623   7.397   5.604   1.642  0.5481 -0.0864 -0.2045
29363W        W45624  13.294   8.499  14.983 -0.0669 -0.0369 -0.0152
29364W        W45625   1.393   1.665  13.896 -0.3894  0.1847 -0.0042
29365W        W45626  10.960  10.709   0.571  0.3088  0.0816 -0.3487
29366W        W45627  13.753  14.578   3.054 -0.0379  0.1635  0.1426
29367W        W45628  16.868   3.532   5.160 -0.1938 -0.0146  0.1419
29368W        W45629  12.370  12.941  14.286 -0.0793  0.0945  0.1384
29369W        W45630   8.444   5.029  11.599  0.0106 -0.1280  0.0161
29370W        W45631   6.993  15.057   2.965 -0.2047 -0.1131 -0.2471
29371W        W45632  16.556   9.266   0.146 -0.1118  0.0005  0.3043
29372W        W45633   2.544  12.235  14.818 -0.1259 -0.1518 -0.2427
29373W        W45634  10.350  10.003  13.323  0.1651 -0.3193  0.0426
29374W        W45635   3.045   3.857  13.949  0.0824 -0.0236 -0.1508
29375W        W45636  10.556  11.921  12.567  0.0542  0.2426  0.1610
29376W        W45637   5.219   5.111   2.839 -0.1839 -0.2640 -0.1000
29377W        W45638  11.128   4.762  10.857  0.4676  0.0806 -0.0104
29378W        W45639   6.814   0.202   1.969 -0.1395 -0.1483  0.3857
29379W        W45640  12.792  13.883  15.073  0.0722  0.1276  0.2752
29380W        W45641  15.111  14.387   2.077  0.0165  0.0859 -0.2476
29381W        W45642   3.080   6.197  14.349  0.0590  0.0676 -0.1463
29382W        W45643  14.330   0.831   1.280 -0.0311 -0.1622  0.0733
29383W        W45644  16.593   4.816   1.732  0.3339  0.4666 -0.2330
29384W        W45645  13.971   1.635  14.190 -0.4666  0.0725  0.0780
29385W        W45646  17.511   4.558   0.605 -0.1037  0.2204  0.3309
29386W        W45647   1.866  10.055  14.464  0.2376  0.0404  0.0353
29387W        W45648  16.008  11.035   0.514 -0.0404  0.0926  0.3057
29388W        W45649  14.327   7.574  12.979 -0.1729  0.3697  0.2496
29389W        W45650  10.586  13.041  14.180 -0.2458 -0.0185  0.0229
29390W        W45651  16.453  15.062   2.212 -0.0175 -0.2272 -0.1963
29391W        W45652  11.114   9.313   5.204 -0.2746 -0.0487  0.0453
29392W        W45653   8.849   1.971   2.709 -0.0461  0.0559  0.0890
29393W        W45654   9.568  14.000   5.258  0.2285  0.0198 -0.0226
29394W        W45655  10.401  15.045  14.551  0.0551  0.0302  0.0717
29395W        W45656   3.598   4.682  12.825  0.1732 -0.3335 -0.2960
29396W        W45657   7.063   1.660   1.576  0.1377 -0.3030 -0.0343
29397W        W45658   6.910   1.536   2.398  0.1534 -0.1805  0.1479
29398W        W45659   4.670   4.669   3.143 -0.5723 -0.1544 -0.1645
29399W        W45660  14.910   4.071  15.683  0.3428  0.0839  0.1270
29400W        W45661  16.443   8.518  14.892  0.1072  0.0272  0.0900
29401W        W45662  16.113   6.355  13.022  0.2717 -0.2063 -0.4022
29402W        W45663   9.679  14.407   4.928 -0.0456  0.1446 -0.2944
29403W        W45664   4.784  16.298   4.554 -0.0410 -0.1149 -0.1930
29404W        W45665   2.257  16.223  11.398 -0.2080  0.4076 -0.0331
29405W        W45666  14.691  16.872  16.090 -0.4057  0.0241 -0.3021
29406W        W45667   1.366   7.784   3.112 -0.0591 -0.2192 -0.1179
29407W        W45668  13.593  13.219  12.248 -0.0180 -0.1106 -0.0463
29408W        W45669   8.494   7.616   4.122  0.0808  0.3630  0.4113
29409W        W45670   6.064  11.698   6.065 -0.0114  0.1097  0.1548
29410W        W45671  17.044   7.749  15.066 -0.1901  0.0023 -0.0494
29411W        W45672   1.190   8.074  12.309  0.1214  0.3961 -0.0507
29412W        W45673   5.972  13.035  13.489 -0.0299  0.2359 -0.1114
29413W        W45674   9.496   8.655  12.116 -0.1347 -0.1785  0.0159
29414W        W45675  15.134   9.036   3.043 -0.2616 -0.0677 -0.0396
29415W        W45676  15.237  10.357   5.232  0.1683  0.2743  0.0206
29416W        W45677  12.246   2.963  12.318 -0.3648 -0.1769 -0.1262
29417W        W45678   7.562   4.864  15.372  0.0464  0.1467 -0.0995
29418W        W45679  10.794  16.136   2.855 -0.1974 -0.2917 -0.1701
29419W        W45680  10.161   9.970   2.708  0.0769 -0.0047 -0.2531
29420W        W45681   4.647   7.379  12.249  0.0280  0.1106 -0.0286
29421W        W45682   6.485  14.104  12.562  0.1242 -0.2365 -0.2019
29422W        W45683  16.450  11.756   5.175 -0.0980 -0.1003 -0.1138
29423W        W45684  17.599   0.063   1.684  0.1928 -0.3964  0.1489
29424W        W45685   4.070  16.272   3.294  0.0292  0.1054  0.3568
29425W        W45686   1.559   5.878   4.513 -0.0195 -0.1268 -0.0900
29426W        W45687   6.851   9.299  14.650  0.1383  0.0629  0.3303
29427W        W45688  12.021   4.108  15.308 -0.0639  0.1296 -0.0353
29428W        W45689   2.412   4.558  16.097 -0.0325  0.0958  0.0919
29429W        W45690  16.197  16.191  13.557  0.3429  0.2119  0.0035
29430W        W45691   5.851   9.688   4.476 -0.2023  0.0490 -0.1440
29431W        W45692   6.983   3.474  12.894  0.2291 -0.2828 -0.0152
29432W        W45693   2.865   0.614  12.907  0.0167  0.1785 -0.0488
29433W        W45694   7.106   4.514  16.042  0.0945  0.1331  0.3738
29434W        W45695   6.591  15.675   2.681 -0.0011 -0.0068  0.0205
29435W        W45696  14.012  16.021  15.686  0.2723 -0.1975  0.1837
29436W        W45697   8.226  17.032   4.837 -0.0431 -0.1218 -0.3307
29437W        W45698   0.886  17.467   1.640 -0.1397 -0.3973 -0.0534
29438W        W45699   3.330  12.231  16.403 -0.0373  0.1262  0.0230
29439W        W45700  18.105  11.736  13.092 -0.1466  0.4691 -0.0395
29440W        W45701   5.198  15.669  13.673 -0.4579  0.0744 -0.2040
29441W        W45702   4.789  15.582   5.769 -0.3744 -0.0809 -0.4365
29442W        W45703  13.597   8.894  13.225  0.1120 -0.0484  0.1592
29443W        W45704   6.838   7.687  12.556 -0.1957  0.0830  0.2447
29444W        W45705   3.634  12.775   4.562 -0.0282 -0.2699 -0.0339
29445W        W45706   5.512   1.366   1.896  0.1207  0.4879 -0.0646
29446W        W45707  10.706  16.121  12.450 -0.2309  0.0659  0.0080
29447W        W45708   1.527   4.668   1.326  0.0078  0.0341 -0.0903
29448W        W45709  13.150   2.313  11.386  0.3413  0.1268  0.1086
29449W        W45710   5.771   6.881   0.460 -0.0111  0.2105 -0.0611
29450W        W45711   6.048  10.800   0.474  0.0592 -0.0491  0.2117
29451W        W45712  16.335   5.752   4.567 -0.1109  0.0477  0.0140
29452W        W45713  10.579   1.718   3.501 -0.2122 -0.2160  0.1950
29453W        W45714   8.141  11.646  15.780 -0.0217 -0.0387 -0.0400
29454W        W45715  17.420  13.000  16.220  0.0466 -0.0276  0.2627
29455W        W45716  12.222  11.044   2.851  0.1746 -0.0431  0.0051
29456W        W45717  15.476  10.122   4.872 -0.2346  0.1773 -0.1022
29457W        W45718   5.084  12.712   0.398  0.4123  0.0384  0.0137
29458W        W45719   0.832   5.650   0.216  0.0964  0.0669  0.5527
29459W        W45720   2.989  12.074   6.366 -0.0169 -0.1906 -0.3060
29460W        W45721  14.520  11.690  13.851  0.2274 -0.0073  0.0363
29461W        W45722   5.684   6.774  11.623 -0.3540  0.0780  0.0405
29462W        W45723   3.375   1.189   5.800  0.2950  0.2974 -0.0382
29463W        W45724   1.803   0.369   1.309  0.0212 -0.0217 -0.0168
29464W        W45725  11.373   7.349  12.431 -0.3987 -0.0588  0.0860
29465W        W45726   5.739  12.496  12.681 -0.0353 -0.0343 -0.1049
29466W        W45727  14.074  10.566  16.444  0.1219 -0.1284 -0.1039
29467W        W45728   6.782   8.940  15.909  0.0073 -0.3040 -0.4052
29468W        W45729   2.991   8.088  13.946  0.1073  0.0380 -0.4559
29469W        W45730   5.232  15.462  15.595  0.3457 -0.0307  0.1238
29470W        W45731   5.292  18.161   2.208 -0.1071 -0.3045 -0.0635
29471W        W45732  15.166   2.650   4.913  0.2371 -0.3475 -0.0744
29472W        W45733  10.549   4.896   1.773  0.0291  0.0310 -0.2021
29473W        W45734   9.413   6.362   1.029 -0.0607  0.0703 -0.2491
29474W        W45735   9.926  14.315   4.509 -0.0263  0.1405  0.2234
29475W        W45736  10.299  14.136  14.344 -0.1922  0.0626 -0.0252
29476W        W45737   7.395  12.507   5.464 -0.1041  0.2230 -0.0946
29477W        W45738  10.651   7.985  16.608  0.3826  0.1151 -0.3280
29478W        W45739   0.057  12.639  13.379  0.1150 -0.1945  0.0595
29479W        W45740   6.588   6.691   3.218  0.1254  0.0429  0.2167
29480W        W45741   4.358  13.295  11.919 -0.2755 -0.1510  0.1868
29481W        W45742  11.094   0.145  12.615 -0.1499  0.1166 -0.3363
29482W        W45743  17.301  12.402  12.141  0.2070  0.2074  0.2482
29483W        W45744   8.111   5.021   1.491  0.0531  0.1179  0.0405
29484W        W45745  13.457  17.819   3.987  0.0902  0.3839  0.1623
29485W        W45746   1.193  14.805  14.570 -0.3537 -0.3731  0.2323
29486W        W45747  12.553   4.461  14.483 -0.0723 -0.2582 -0.2838
29487W        W45748  12.160  14.052   5.573 -0.0570  0.0311  0.2449
29488W        W45749   7.814  12.182   2.878  0.3913  0.2464  0.0633
29489W        W45750   0.608  13.303   0.005  0.2903  0.2505 -0.2630
29490W        W45751  17.379  11.936   0.748 -0.2993  0.1175  0.0805
29491W        W45752   2.868   7.766  16.016 -0.1750 -0.1479 -0.3844
29492W        W45753  10.241   3.085   3.556  0.0751 -0.1560 -0.0545
29493W        W45754   8.093   1.576   1.187 -0.1322  0.1630 -0.2779
29494W        W45755  10.641  10.501  16.247 -0.3527 -0.2826 -0.0031
29495W        W45756   9.345  12.734  13.373 -0.2384 -0.0255 -0.3835
29496W        W45757  14.830   2.029   3.843 -0.2382  0.1804 -0.1063
29497W        W45758  12.622  12.419   1.644 -0.1187  0.0218  0.2638
29498W        W45759  16.398  10.616  13.694 -0.2134 -0.1871  0.4039
29499W        W45760   8.364   5.465   2.720  0.0927  0.2965 -0.1650
29500W        W45761  13.254   6.811  12.492 -0.1689 -0.0706 -0.0792
29501W        W45762  10.969  11.296   1.156 -0.0880 -0.3579  0.0167
29502W        W45763   1.556   2.876   3.688 -0.1645  0.0039 -0.0516
29503W        W45764   0.104  11.320  14.126  0.4715  0.0633  0.1822
29504W        W45765   8.749  11.848   5.312 -0.0868  0.2052 -0.0925
29505W        W45766  18.075   0.378  16.563 -0.0837  0.1308  0.0347
29506W        W45767  12.426   8.386   0.514  0.0172 -0.2117 -0.1133
29507W        W45768   0.833  15.446   1.390  0.1977  0.0890 -0.1381
29508W        W45769  13.038   6.980  13.416 -0.0902 -0.0758  0.1007
29509W        W45770  10.562   3.464  13.134  0.1290 -0.2829  0.1616
29510W        W45771   5.774   6.716   2.848  0.2164 -0.1468 -0.1015
29511W        W45772  10.122  10.522   1.871  0.0206  0.1378 -0.1211
29512W        W45773   7.514   0.546   5.465  0.1604  0.1424 -0.0875
29513W        W45774  14.338   0.217   1.926 -0.0283 -0.1384 -0.1247
29514W        W45775   5.054  17.935   0.299 -0.1648  0.0277  0.0784
29515W        W45776  11.951  16.127  14.234 -0.0217 -0.2531 -0.0707
29516W        W45777   3.842   8.259   1.479  0.2111 -0.0308 -0.3025
29517W        W45778   9.470  17.224   1.005  0.1018 -0.0090 -0.2712
29518W        W45779   8.785   8.715   4.329 -0.2563 -0.1025 -0.0019
29519W        W45780  10.101  14.985  11.824  0.1208 -0.1748 -0.0896
29520W        W45781   7.012   1.057   0.184 -0.5926 -0.2499 -0.1365
29521W        W45782   3.344  16.224   4.122  0.1877  0.0711  0.2681
29522W        W45783   9.384  11.770  16.094  0.0889  0.1943  0.0565
29523W        W45784   2.501  17.186  14.487 -0.0257  0.1743  0.4700
29524W        W45785   1.769  15.879   6.397  0.2783 -0.1517 -0.2637
29525W        W45786   7.365  14.294  12.490  0.1590  0.2360  0.2581
29526W        W45787  10.488   3.180   1.247  0.0688  0.5665 -0.0853
29527W        W45788  16.961   5.496  13.321 -0.1316  0.0771 -0.0267
29528W        W45789  16.305   9.180  15.255  0.4152  0.0066  0.3803
29529W        W45790   7.358   7.656  11.477 -0.2835  0.0284  0.2166
29530W        W45791   9.704   8.675  12.617 -0.0798  0.1078  0.0434
29531W        W45792   6.109   2.948   4.705 -0.2143  0.0275 -0.3512
29532W        W45793   6.497   1.636   3.295  0.1346 -0.0792 -0.3113
29533W        W45794  11.071   8.436  11.992  0.0659  0.1103  0.0147
29534W        W45795   2.254  12.424   4.707 -0.4728 -0.2956  0.2311
29535W        W45796  11.126  16.392  16.014  0.0352  0.1056  0.2540
29536W        W45797  18.160   3.789  11.630 -0.0209 -0.0610  0.2260
29537W        W45798  18.103  16.429  13.176  0.0192 -0.2456  0.2034
29538W        W45799  10.533   7.401  15.074 -0.0665  0.0833 -0.0629
29539W        W45800   3.319  10.459  14.580 -0.1413  0.1457  0.1310
29540W        W45801   8.417   1.344   0.419 -0.0059 -0.3632 -0.0161
29541W        W45802   2.869   9.759   1.027 -0.0450  0.0299  0.1770
29542W        W45803  11.697  13.612   2.089  0.3958  0.2408 -0.0851
29543W        W45804   8.595  17.797   3.288 -0.0408  0.1090  0.1653
29544W        W45805  10.908   1.988   4.215 -0.0284 -0.3366  0.0319
29545W        W45806   5.755   7.340   5.624 -0.2829  0.1215  0.0126
29546W        W45807   8.018  10.083   0.576  0.3148  0.1806 -0.1888
29547W        W45808   1.044  17.060  12.603  0.0381  0.2698  0.0930
29548W        W45809   4.626  11.743  15.926  0.1557 -0.1078 -0.0406
29549W        W45810   0.093   8.104   5.472  0.1548  0.1372  0.0174
29550W        W45811   8.326   0.177   6.017 -0.0367 -0.0291 -0.1389
29551W        W45812   5.573  12.017  13.617 -0.0552  0.1651 -0.0180
29552W        W45813   1.018   1.002   4.676 -0.1016  0.1905  0.1217
29553W        W45814   8.031  16.418   1.904  0.0256 -0.0940 -0.0595
29554W        W45815  16.941   1.252   1.728 -0.2781 -0.1507  0.0601
29555W        W45816  15.989   5.199   3.842  0.3812  0.1517 -0.0526
29556W        W45817   3.440   0.389   5.593  0.0535  0.2460 -0.0700
29557W        W45818   6.662   7.502   5.313 -0.2527  0.0152  0.0239
29558W        W45819  17.090  12.922  13.565  0.0784 -0.1624 -0.0087
29559W        W45820   9.276  10.106  15.730 -0.3432 -0.0336 -0.1076
29560W        W45821  12.687  15.130   5.548  0.0371 -0.2911  0.0271
29561W        W45822   4.204   8.212  11.739 -0.0762 -0.2996 -0.1161
29562W        W45823   9.778  11.608   3.887  0.0612  0.0484 -0.0715
29563W        W45824   6.776   9.352  15.541  0.4366 -0.0153  0.0009
29564W        W45825  17.252  11.982  11.306  0.1367  0.0066  0.3614
29565W        W45826  15.358   8.523  14.474 -0.1741 -0.0003  0.3057
29566W        W45827  15.713   2.867   4.799 -0.3820 -0.0206 -0.1979
29567W        W45828   9.063   7.228   5.266 -0.2233 -0.0537 -0.1382
29568W        W45829  17.851   2.149  12.356 -0.1230  0.0257  0.3434
29569W        W45830   0.047  11.416   2.237 -0.1110 -0.5231 -0.0968
29570W        W45831   6.557  15.899  11.419  0.4927  0.0024  0.2446
29571W        W45832   2.713  18.173  15.378  0.1544  0.1720 -0.0883
29572W        W45833   8.099   3.723   1.224  0.0947  0.0180 -0.1895
29573W        W45834   8.858  14.149   2.003 -0.0983 -0.4001  0.1071
29574W        W45835  11.522   2.021   0.714 -0.0827  0.1273 -0.0908
29575W        W45836  11.391   9.445  13.929 -0.2015 -0.1665  0.1547
29576W        W45837   3.459  11.091  15.816  0.0784 -0.0247  0.2614
29577W        W45838   6.296   0.068  13.379 -0.1271  0.0228 -0.0987
29578W        W45839  13.807   6.563   2.881 -0.0436  0.0010 -0.1497
29579W        W45840   8.772  18.162  15.326  0.0712  0.0189  0.1960
29580W        W45841   5.495  10.469   4.376  0.3760  0.0044  0.1062
29581W        W45842   2.101   0.768   1.469  0.1162 -0.2938  0.2445
29582W        W45843   8.748  12.822   5.418  0.2994 -0.0564 -0.2017
29583W        W45844  13.299   6.294  15.784  0.0038 -0.1358 -0.1087
29584W        W45845   6.850   6.488   2.815  0.3974  0.0853  0.1450
29585W        W45846   3.346   0.101  14.181  0.2706 -0.1265  0.0494
29586W        W45847  16.446   3.156  14.038 -0.2937  0.1413 -0.0517
29587W        W45848   9.786  14.424   1.449 -0.0438  0.1396  0.2187
29588W        W45849  15.116  17.497  11.216  0.1140  0.1866  0.1329
29589W        W45850   6.386  15.267   2.363 -0.1931  0.0049 -0.2082
29590W        W45851  11.376   2.656   2.845 -0.0189  0.3624 -0.1793
29591W        W45852  13.103   0.746   1.795 -0.1701  0.0256 -0.0325
29592W        W45853   6.555  10.263   4.495 -0.1968  0.2531 -0.0762
29593W        W45854   1.081   9.418   1.514 -0.4262 -0.0917  0.0066
29594W        W45855   6.009  13.740  12.741  0.1717 -0.0908 -0.0297
29595W        W45856  16.193   7.094   4.522 -0.0987  0.1819 -0.3034
29596W        W45857   4.019  15.784   3.560  0.3320 -0.0324 -0.1266
29597W        W45858  15.998   3.483   5.593 -0.0158  0.1345  0.4134
29598W        W45859   9.975  15.979  11.701  0.1334  0.1221  0.1118
29599W        W45860  14.237   2.809   5.748  0.2555  0.1528  0.0451
29600W        W45861  15.119  13.812   5.205  0.2768 -0.0846 -0.1026
29601W        W45862   1.533   0.024   1.164  0.2371 -0.2029 -0.1249
29602W        W45863   9.047   4.316   2.188  0.0363 -0.2293 -0.5671
29603W        W45864   5.264   9.351  15.339 -0.2260  0.2222 -0.2492
29604W        W45865  13.409  11.196   2.188 -0.0612  0.1813  0.3476
29605W        W45866   9.545   3.456  14.209 -0.2995  0.1580 -0.1638
29606W        W45867  16.292  15.258  13.285  0.1637 -0.0614  0.1556
29607W        W45868   2.735   2.515   4.980 -0.0333  0.2010 -0.0513
29608W        W45869   1.213   1.804  16.477  0.3857 -0.1662  0.2433
29609W        W45870   9.490   2.783  13.076 -0.0477  0.1832  0.0008
29610W        W45871  13.020  17.967   3.374 -0.1017 -0.3956 -0.0092
29611W        W45872   6.052  14.707  11.880 -0.0669  0.1245  0.0207
29612W        W45873  12.503  12.275  16.152  0.2992 -0.1220 -0.1835
29613W        W45874   7.746  14.929   0.145 -0.1920  0.0563 -0.3933
29614W        W45875  11.207   6.145  15.346 -0.3114 -0.0629  0.0444
29615W        W45876  11.928   0.700  13.918  0.2215 -0.0858 -0.1125
29616W        W45877  13.481   4.683  14.853 -0.3226  0.0842 -0.0849
29617W        W45878  14.165   2.778   1.150 -0.2597 -0.0694  0.1075
29618W        W45879   8.016  15.782   6.660  0.0788 -0.1940  0.0048
29619W        W45880   1.483   8.501   0.340 -0.1439 -0.0856 -0.1250
29620W        W45881   5.887   5.609  13.636  0.1831  0.3756 -0.1400
29621W        W45882   4.567  16.957  14.417 -0.2821  0.0680  0.0564
29622W        W45883   9.003   3.909  16.452  0.0638 -0.0547  0.0179
29623W        W45884   5.035   7.839   3.817  0.0471  0.1109  0.1965
29624W        W45885  16.949  11.125   1.107  0.1320  0.4524  0.6160
29625W        W45886   9.105   9.603   1.321 -0.1069  0.2118  0.1003
29626W        W45887  13.131   4.878  11.064 -0.1875  0.5191  0.0408
29627W        W45888  12.060   7.703   3.382  0.1519 -0.2180  0.0248
29628W        W45889  10.540   5.941   2.637  0.2861  0.2811  0.2467
29629W        W45890  16.193   4.108   1.282  0.0843  0.0440  0.1195
29630W        W45891  11.551  10.758   4.694  0.0982 -0.2274  0.1202
29631W        W45892   8.507  14.286  14.625 -0.2387  0.0710  0.0594
29632W        W45893   0.320   6.034  15.626 -0.2454 -0.1070 -0.2252
29633W        W45894  16.571  16.785   4.550  0.1661 -0.1152  0.1999
29634W        W45895  13.058  11.988   5.275  0.1796 -0.0160  0.1273
29635W        W45896   6.118   2.883  13.288  0.0383 -0.0962 -0.1824
29636W        W45897  16.386   5.768  15.062 -0.1473 -0.2793  0.0553
29637W        W45898  11.049  11.591   6.027 -0.0040  0.1499  0.0324
29638W        W45899   7.844   1.688   2.895 -0.2382  0.1169 -0.1490
29639W        W45900   1.979  12.643  14.029  0.0266 -0.0578 -0.0099
29640W        W45901   0.304  15.919  11.727 -0.0404  0.1305 -0.1117
29641W        W45902  11.541  11.322   3.537 -0.1195  0.4243  0.0941
29642W        W45903  15.182   9.754  12.913 -0.1881  0.1126  0.0871
29643W        W45904  10.979  10.523   3.940  0.1237 -0.0298  0.2440
29644W        W45905  11.441  10.078  16.022  0.2139 -0.2525  0.1596
29645W        W45906   7.691   6.222   2.810 -0.2651 -0.1128 -0.2704
29646W        W45907  15.880   6.924  12.294  0.0257 -0.0965 -0.1807
29647W        W45908   1.264   0.067  12.224 -0.0766  0.2299  0.0899
29648W        W45909   2.103   5.969  13.075 -0.1204  0.0168 -0.1491
29649W        W45910   9.731  13.177   2.256  0.0716 -0.1237  0.1200
29650W        W45911  16.242  13.209   2.442 -0.2043  0.0285 -0.2214
29651W        W45912   9.350   7.759  15.832 -0.1638  0.1210  0.0280
29652W        W45913   3.573   4.365   1.055  0.1801  0.1060 -0.2166
29653W        W45914  14.314  15.806   2.031  0.2149  0.0539  0.1764
29654W        W45915  15.455  11.648  12.499  0.0491  0.1641  0.2036
29655W        W45916   2.990  16.812  11.945 -0.3849  0.3766 -0.0706
29656W        W45917  11.087  18.007   0.466  0.2035 -0.1851  0.2320
29657W        W45918  10.488  10.958   2.768 -0.3805 -0.1661  0.0125
29658W        W45919   8.703  16.462  14.310 -0.0178 -0.3990 -0.0198
29659W        W45920   8.609  17.411  14.111  0.0244  0.0232 -0.0535
29660W        W45921  13.523   5.032   4.217  0.1987  0.2288 -0.0324
29661W        W45922   4.689  12.342   0.190 -0.0542 -0.2847 -0.0357
29662W        W45923   3.300   7.796   0.680 -0.0142 -0.0294  0.1423
29663W        W45924  15.438   2.327  16.140  0.2343  0.1054  0.1957
29664W        W45925  16.756   3.702  15.034  0.0119  0.0310 -0.1952
29665W        W45926  10.270   5.828  12.275  0.2662 -0.0291  0.2345
29666W        W45927   7.915   7.191   1.210 -0.0285 -0.2082 -0.1074
29667W        W45928  12.339  14.292  11.745  0.0973 -0.1899 -0.0929
29668W        W45929   4.194   8.517  12.640  0.1835  0.2194  0.0447
29669W        W45930   2.018  10.937   2.745 -0.1200 -0.2819 -0.2112
29670W        W45931  10.725   7.598  11.899  0.1610 -0.1640  0.2898
29671W        W45932  10.951  10.882  16.506  0.1405  0.2015 -0.0449
29672W        W45933   3.761  10.220   1.096 -0.0234  0.4498  0.0798
29673W        W45934  12.822   3.351   3.865  0.0958  0.0860  0.1119
29674W        W45935   0.263  14.963   1.902 -0.0074  0.3521 -0.0208
29675W        W45936   4.379  12.852  12.274  0.0274 -0.3753  0.2053
29676W        W45937  18.112   2.735   5.310 -0.2116  0.0643 -0.0194
29677W        W45938   1.840   9.208   1.069 -0.1308  0.1524  0.0421
29678W        W45939  15.342  10.359   3.684 -0.1596 -0.0269 -0.3259
29679W        W45940   2.822   9.415   2.099  0.1374  0.0735 -0.1912
29680W        W45941   1.239   2.684   3.329 -0.3724 -0.1043  0.0603
29681W        W45942   9.514   0.938   3.203  0.3792 -0.0134 -0.1444
29682W        W45943   1.356   7.129  12.284  0.0979  0.1353 -0.1522
29683W        W45944   4.516  14.667   1.665 -0.1623  0.0952  0.0043
29684W        W45945  12.234   4.752  15.927  0.0427 -0.2654  0.1223
29685W        W45946   6.619   1.071  16.523 -0.0609 -0.0810 -0.0128
29686W        W45947   3.442  15.715  13.216  0.2403  0.2032 -0.2799
29687W        W45948  10.626  16.580  16.438  0.0200  0.0229  0.3055
29688W        W45949   2.468  13.490   5.995 -0.1759 -0.0114 -0.3205
29689W        W45950  13.992   3.178   3.716 -0.0432 -0.1003  0.0423
29690W        W45951   9.555  14.578   5.400 -0.0888 -0.0907 -0.0090
29691W        W45952   7.242   8.817  13.993 -0.2927  0.1439  0.1010
29692W        W45953   7.555   6.129   5.882 -0.1190  0.2060 -0.0369
29693W        W45954  13.214  14.038  12.791  0.0879 -0.1258 -0.2498
29694W        W45955   0.585   8.113   5.376  0.0670  0.0273 -0.3212
29695W        W45956  15.938  16.056   4.516 -0.0760 -0.1854  0.0299
29696W        W45957   0.126  14.874  15.309 -0.1141 -0.1856 -0.1443
29697W        W45958  16.685  14.381  16.001 -0.4768 -0.1834  0.0261
29698W        W45959  10.331   5.649  16.641  0.0014 -0.3769 -0.0418
29699W        W45960  16.842  16.553  15.830  0.1611  0.2161 -0.1013
29700W        W45961  11.028  15.130  12.774  0.1331 -0.3548 -0.1907
29701W        W45962   4.490   7.701   3.706 -0.1047 -0.0281 -0.2284
29702W        W45963  15.192  18.039   5.456 -0.1917  0.4513 -0.1997
29703W        W45964  17.076   9.300   0.395 -0.2214  0.1702  0.3146
29704W        W45965   8.184   7.653  16.563 -0.0686 -0.0644 -0.2889
29705W        W45966  12.162  12.439   6.020 -0.0673 -0.1486  0.2843
29706W        W45967  13.861  17.332  15.247 -0.1100 -0.0773  0.0423
29707W        W45968   3.687  17.023  14.789 -0.3301  0.1301  0.0080
29708W        W45969   5.065   6.543   1.784 -0.0779  0.0809 -0.1484
29709W        W45970  17.708  13.903   1.425 -0.2359  0.0777 -0.0487
29710W        W45971   7.061   0.426   3.525 -0.0564  0.3394 -0.1446
29711W        W45972  14.805  15.762  15.166  0.1593  0.1533  0.0024
29712W        W45973  17.544   3.391   4.333  0.0739  0.0578  0.0033
29713W        W45974   6.523  12.826   4.636  0.3446 -0.0389  0.1350
29714W        W45975   5.115   9.123   1.596  0.1164  0.1553 -0.1298
29715W        W45976  15.576  12.947  12.653  0.1648  0.0976  0.1225
29716W        W45977   6.572   3.814  15.903  0.3234  0.0152  0.1857
29717W        W45978  11.820   1.559  14.025  0.0133  0.4163 -0.3600
29718W        W45979   4.989  17.273   0.941 -0.2757 -0.1272  0.1256
29719W        W45980   5.184   7.794   1.309  0.0351 -0.5308 -0.0931
29720W        W45981   5.339  15.447   4.021 -0.0868 -0.0141  0.0642
29721W        W45982  14.153   4.929   4.385 -0.1339 -0.0290  0.1284
29722W        W45983   1.070   4.163  14.981  0.0779 -0.0433 -0.1229
29723W        W45984   6.431  13.068   2.904  0.1171  0.4106 -0.0287
29724W        W45985   8.214   1.528   5.444  0.3631  0.3435  0.2147
29725W        W45986   8.993  14.914   1.781  0.3703  0.0086 -0.2381
29726W        W45987   8.401   4.208   5.319 -0.2872 -0.0559 -0.1467
29727W        W45988   8.768   6.145   4.117 -0.0750  0.1543 -0.2172
29728W        W45989   3.894  18.182   3.699 -0.1837  0.1406 -0.0082
29729W        W45990   3.723  13.516   0.011  0.2683 -0.4680 -0.0096
29730W        W45991  12.980   9.946  11.180 -0.2029 -0.1346  0.1591
29731W        W45992  13.293   7.807  16.444 -0.0317  0.0483 -0.1350
29732W        W45993   0.780  15.746  11.585 -0.1799  0.1295  0.1934
29733W        W45994   6.208   2.788   5.846  0.1014 -0.3019 -0.0605
29734W        W45995   5.991  11.393   2.195  0.1326 -0.0227  0.2219
29735W        W45996  12.197   7.398  12.154 -0.2220 -0.3991 -0.1542
29736W        W45997   1.958  10.163   0.963  0.0780  0.1879 -0.1064
29737W        W45998  11.382   2.625   1.110  0.1253  0.0172 -0.2939
29738W        W45999   3.011  16.292  15.355  0.0488 -0.0786  0.2388
29739W        W46000   1.688  17.079  11.640  0.1232  0.0559  0.0863
29740W        W46001  11.720   2.791   4.713  0.1507  0.2605 -0.1199
29741W        W46002  15.471   8.000   2.074  0.3510 -0.2996 -0.0444
29742W        W46003   3.409   7.707  15.219 -0.0683  0.0454  0.3450
29743W        W46004   0.866   3.059   0.404  0.0695 -0.1935 -0.0194
29744W        W46005   1.000   4.680   2.233 -0.1329 -0.3717  0.1571
29745W        W46006   0.881   3.069   2.650 -0.0844 -0.2174 -0.1000
29746W        W46007   7.198  17.058   0.749 -0.3092  0.0638 -0.0768
29747W        W46008  11.611  17.093  14.995  0.0962  0.1959  0.0920
29748W        W46009  14.294   6.706  11.444 -0.0969  0.1083  0.0801
29749W        W46010  14.841  12.462  14.476 -0.1538 -0.2157 -0.1956
29750W        W46011   6.208   6.052  14.247 -0.2332  0.2962 -0.1239
29751W        W46012  12.181  15.505   3.417 -0.0998 -0.2223 -0.1665
29752W        W46013  12.226   7.811  16.450  0.1511  0.1139  0.1213
29753W        W46014  16.256   7.930  12.450 -0.0768  0.1106  0.1923
29754W        W46015   4.477   0.389  12.645  0.3305 -0.0021  0.0433
29755W        W46016   2.952   6.535   2.645  0.0310  0.0132  0.3147
29756W        W46017   2.144  10.895  16.561  0.0542 -0.0428 -0.0075
29757W        W46018   5.670   6.030   5.029 -0.0425 -0.2737 -0.2552
29758W        W46019  12.247   1.239   4.227 -0.2996  0.0326 -0.1607
29759W        W46020  15.611   5.554  14.318  0.1009 -0.0943  0.0808
29760W        W46021   2.679   0.693  16.543  0.0001 -0.0044  0.0854
29761W        W46022   1.131   1.296  16.022  0.0256 -0.0459 -0.1577
29762W        W46023  11.676   0.957   3.864  0.1639  0.3567 -0.0769
29763W        W46024  12.329  17.253  11.579 -0.3436  0.1886  0.1250
29764W        W46025   8.507  13.297   1.425  0.1650 -0.0712 -0.0825
29765W        W46026   7.711   1.057   2.899  0.1857  0.0160 -0.0889
29766W        W46027  13.209  14.984   0.431 -0.0550  0.2027  0.1806
29767W        W46028   9.404   2.724   3.511 -0.1884  0.1165 -0.3045
29768W        W46029   2.159   7.774  13.796 -0.0064  0.1508 -0.1587
29769W        W46030  10.271   1.354  12.674  0.0827  0.0052  0.3416
29770W        W46031  15.630  10.159   1.919  0.0651  0.3905 -0.0361
29771W        W46032   1.186  12.553  12.001  0.1065  0.5870  0.1420
29772W        W46033   6.860  16.049  15.935 -0.0207 -0.0795  0.0404
29773W        W46034   0.547  12.072  14.606  0.1340 -0.1652 -0.1082
29774W        W46035  15.445   6.763  13.571  0.1704  0.2193  0.1945
29775W        W46036   8.205  14.680   3.166  0.0514  0.1836 -0.2820
29776W        W46037   6.468   4.465   0.701 -0.3978 -0.1615 -0.0572
29777W        W46038  10.774   9.768   4.920  0.0850  0.1266 -0.1075
29778W        W46039  17.477  13.661  12.569 -0.1126 -0.2864  0.2504
29779W        W46040   9.944  16.082   0.078  0.4988 -0.2038 -0.1372
29780W        W46041   7.037  13.913   0.980  0.0835 -0.4107 -0.5076
29781W        W46042   6.169  10.914   4.862 -0.1953 -0.1288 -0.0622
29782W        W46043   4.720  11.230  13.187 -0.1685  0.0754 -0.3544
29783W        W46044  16.367  18.081   2.681 -0.2113 -0.0821 -0.2285
29784W        W46045  16.737  13.393  15.877  0.0359 -0.2120  0.1096
29785W        W46046  15.368   5.089  14.984  0.2630  0.0964  0.0275
29786W        W46047  17.323  13.933  14.963 -0.1013 -0.1471  0.1268
29787W        W46048   1.974  18.056   4.376 -0.1014 -0.1042  0.4878
29788W        W46049   6.376   8.614   3.164 -0.0312 -0.0053  0.0198
29789W        W46050   2.001   4.380   2.156 -0.0713  0.1907  0.2063
29790W        W46051  11.989  12.597   4.198  0.0345 -0.3810 -0.0221
29791W        W46052   2.778  12.589   4.027  0.2379 -0.1318 -0.2160
29792W        W46053  17.521   2.492  15.441 -0.1874  0.0751  0.0395
29793W        W46054  15.242   8.204   4.209 -0.1755  0.0229 -0.1066
29794W        W46055   8.698  16.598  12.140 -0.1278  0.0420  0.0331
29795W        W46056   2.690   8.412  13.343 -0.2212 -0.3466  0.1896
29796W        W46057  12.436   1.675  12.387  0.1585 -0.2413 -0.2049
29797W        W46058  10.851  15.303  13.205  0.2649 -0.0160 -0.1026
29798W        W46059   2.928   1.055   1.960  0.1209 -0.0128 -0.1988
29799W        W46060  14.749   2.924  15.999  0.2408 -0.2400 -0.1826
29800W        W46061  16.332  16.351   2.376 -0.0272 -0.0014 -0.0859
29801W        W46062   7.990  16.716   3.105 -0.0416 -0.1288  0.0659
29802W        W46063  12.171   0.511   4.730  0.1410 -0.2017 -0.0182
29803W        W46064   1.817   2.359   4.362  0.1090  0.2351 -0.0970
29804W        W46065  11.134   0.521   2.994 -0.0532 -0.0215  0.0613
29805W        W46066   6.459  16.572   5.377 -0.0981  0.0536  0.3028
29806W        W46067   4.025   1.635   1.033 -0.2009  0.0448  0.3464
29807W        W46068   7.392   9.212  14.789 -0.0774  0.1375  0.0542
29808W        W46069   4.061   2.895   1.767  0.0676  0.3140 -0.2784
29809W        W46070  11.568   6.582  15.404 -0.1254 -0.2091  0.1065
29810W        W46071   1.285  12.377  15.980 -0.1586  0.0783  0.1101
29811W        W46072  11.785  17.500   1.790 -0.0329  0.1683 -0.0896
29812W        W46073  10.284  17.644   4.839  0.0454 -0.0837 -0.1365
29813W        W46074  14.119   5.105  13.311 -0.0636 -0.0011 -0.0137
29814W        W46075   0.269   1.939  16.086  0.4425  0.1357  0.0067
29815W        W46076   6.546  15.198   2.903 -0.3892  0.1005  0.1838
29816W        W46077  18.173  10.009  13.774  0.1318  0.2338 -0.3834
29817W        W46078  12.640   4.290   1.422 -0.4848  0.0124  0.1355
29818W        W46079  13.762   5.070   3.493  0.3324  0.4343  0.1480
29819W        W46080   8.785   0.137  13.392 -0.0688  0.0458 -0.2189
29820W        W46081   5.349  15.881   3.753  0.0137 -0.3277 -0.0424
29821W        W46082   8.335  14.652   0.825  0.1483 -0.1850  0.0273
29822W        W46083   8.257  16.570  12.451  0.0820  0.0114 -0.2135
29823W        W46084   0.305   8.690  13.284  0.0475  0.0064 -0.1493
29824W        W46085  10.732  14.336  16.529 -0.1158 -0.2500 -0.3037
29825W        W46086   1.619   8.958   2.306  0.1632 -0.1011 -0.1683
29826W        W46087  11.314  13.972   0.704  0.0705 -0.1018 -0.3534
29827W        W46088   8.431  16.857   3.367  0.0364  0.1812  0.0300
29828W        W46089  10.423  10.667   4.912  0.3364  0.3173 -0.1864
29829W        W46090   3.934  13.319   0.749  0.2402 -0.0866  0.1448
29830W        W46091   7.015   1.721  12.081  0.1420 -0.1323 -0.1133
29831W        W46092   7.386  11.035  11.579  0.4065 -0.0366 -0.1633
29832W        W46093   3.624   0.741   5.880 -0.2415 -0.0772 -0.1677
29833W        W46094   2.872  16.240   2.080  0.0994 -0.0465 -0.1377
29834W        W46095   0.991   4.160   2.233 -0.1787 -0.2157 -0.1111
29835W        W46096  10.602   1.507   5.297  0.4224  0.0217  0.0454
29836W        W46097  11.665   0.092   1.278 -0.0620 -0.1624 -0.0796
29837W        W46098  16.936  17.691  11.984 -0.1143  0.1634 -0.0294
29838W        W46099   6.040   5.701   0.463 -0.0781  0.0314 -0.1033
29839W        W46100   1.753   2.311   0.502 -0.0227  0.0852  0.3431
29840W        W46101   4.596  14.199  13.663 -0.2938 -0.3335 -0.1048
29841W        W46102  16.788   7.061   4.632  0.3961 -0.0665  0.2341
29842W        W46103   2.056  16.719  12.873 -0.1351  0.2319  0.0615
29843W        W46104   2.262   4.777  13.588  0.1471 -0.1613  0.0767
29844W        W46105  15.634  10.704   0.618  0.0603 -0.1258  0.1107
29845W        W46106  16.036  17.700   2.465 -0.1446  0.0789 -0.2722
29846W        W46107   1.272  11.567   4.284  0.0844 -0.4973  0.0531
29847W        W46108   4.577  11.029  13.663  0.0143 -0.1225  0.2310
29848W        W46109  14.314   0.176   3.068 -0.4378 -0.3609 -0.0844
29849W        W46110  10.477   5.099  14.469 -0.4709  0.1000  0.2916
29850W        W46111   8.050   4.064  10.815 -0.1305  0.0934  0.1671
29851W        W46112   0.489   8.919  12.471 -0.1671  0.1138  0.0563
29852W        W46113   2.206   7.631  11.833  0.6352  0.0823 -0.0991
29853W        W46114   6.773   1.353   2.815  0.1443  0.1898 -0.0939
29854W        W46115  13.674   6.734  15.535  0.1089 -0.2057  0.3027
29855W        W46116  12.892  16.052   0.216  0.1045 -0.0327 -0.0694
29856W        W46117  16.208  10.436  15.772 -0.2601  0.0045  0.2113
29857W        W46118  10.361   0.926  15.002  0.0213  0.0452  0.1357
29858W        W46119  16.560  10.827   3.686  0.1061 -0.3324  0.3705
29859W        W46120  17.819  17.283   0.841  0.4184  0.1881 -0.0385
29860W        W46121  16.428   9.065   5.195 -0.0760  0.0116  0.1565
29861W        W46122  17.330  14.672  15.640 -0.2317 -0.0982  0.1652
29862W        W46123   9.718   9.126   3.925 -0.4190  0.0363 -0.4702
29863W        W46124  15.472  16.659   1.831 -0.3918 -0.0722 -0.1474
29864W        W46125   4.459   8.481   0.586 -0.1206  0.1507 -0.3432
29865W        W46126  11.929  11.285   5.560  0.2194  0.2612 -0.0210
29866W        W46127  16.022   4.609  12.015 -0.4570 -0.0559 -0.2799
29867W        W46128   7.505   0.343   0.031  0.0829 -0.0783  0.1341
29868W        W46129  10.140   2.554  16.196  0.0536  0.0454  0.1256
29869W        W46130   9.514   0.228   6.187 -0.0560 -0.0884  0.0165
29870W        W46131   4.259  16.206   0.716  0.1020 -0.1987 -0.1310
29871W        W46132   2.976   3.275   5.194  0.0695  0.0556 -0.0255
29872W        W46133  18.019  12.480   1.312  0.1466  0.4861 -0.2902
29873W        W46134   1.668  12.207  12.847 -0.0650 -0.0164 -0.0837
29874W        W46135   6.510  10.967   2.702  0.4049 -0.2880  0.3136
29875W        W46136   1.218  12.965  11.597  0.0491 -0.1480  0.0494
29876W        W46137  13.526  13.039   4.908  0.0932  0.1216 -0.0651
29877W        W46138   0.862  16.664   6.508  0.2295  0.0589  0.0076
29878W        W46139  15.191   0.233  14.377  0.2283  0.0521  0.1294
29879W        W46140   5.638   5.497  10.480  0.1168 -0.1969 -0.0662
29880W        W46141   4.006  12.887  14.841 -0.0482 -0.1359  0.1082
29881W        W46142  10.984  14.396  13.368 -0.2870 -0.0963 -0.1259
29882W        W46143   1.847  11.651   0.678 -0.0737  0.1901 -0.0462
29883W        W46144  17.771  10.683   2.990  0.3944  0.3523  0.1267
29884W        W46145   2.598  14.779   1.393 -0.1126  0.1394 -0.1049
29885W        W46146   7.673  16.854  13.176  0.4585  0.1809  0.0082
29886W        W46147   2.540   3.268   1.808  0.1891 -0.1670  0.1052
29887W        W46148  11.269   7.271  10.715 -0.2910  0.3183  0.0703
29888W        W46149   6.055  15.529  13.315  0.2602  0.2669  0.2525
29889W        W46150   1.764   9.845  11.954  0.0521  0.2148  0.0430
29890W        W46151   1.723  11.357   2.500  0.0461  0.0342 -0.3999
29891W        W46152   2.863   3.029   0.928  0.1252 -0.1969  0.1377
29892W        W46153   9.072  12.419  15.317 -0.0801 -0.1834 -0.0930
29893W        W46154   8.410   0.111  12.556 -0.1827 -0.0218 -0.0107
29894W        W46155  12.618   8.814  16.582 -0.3035 -0.2998  0.0443
29895W        W46156   2.544   1.461  12.531 -0.0528  0.0678 -0.2329
29896W        W46157  15.609   3.083   3.723 -0.2048 -0.1334  0.1060
29897W        W46158   3.843   8.538  13.506 -0.1852  0.1032  0.0731
29898W        W46159   5.050  11.831   2.288 -0.1343  0.1580 -0.1583
29899W        W46160   0.579   3.715  15.619 -0.1623 -0.2486 -0.1670
29900W        W46161  10.815  13.268   1.064 -0.3567  0.0375  0.0066
29901W        W46162  13.288   6.221   4.114 -0.2246  0.2557  0.1796
29902W        W46163  13.219  15.925   3.413  0.2901 -0.0354 -0.1569
29903W        W46164   0.271  16.476  12.754 -0.1550  0.0912 -0.1073
29904W        W46165   3.261  13.556   3.207 -0.1880 -0.3352  0.0720
29905W        W46166   1.099   0.805   3.558 -0.1443  0.0339  0.2327
29906W        W46167   8.724   2.192  14.724  0.1130  0.0330  0.1188
29907W        W46168  16.485   6.407  13.373 -0.1501 -0.0833 -0.0456
29908W        W46169  15.834  15.855   4.986 -0.1579 -0.2716  0.1965
29909W        W46170   6.418   6.782  15.861 -0.1263  0.0237 -0.3554
29910W        W46171   6.266  16.684  14.834 -0.0711 -0.1162  0.2112
29911W        W46172   5.732   7.987   1.560  0.0181  0.2380  0.2516
29912W        W46173   4.253  18.067  14.171 -0.0228  0.2781 -0.0094
29913W        W46174   2.458   9.788   5.175 -0.0249 -0.0340 -0.1309
29914W        W46175  14.872  10.006  12.577  0.0777  0.2879 -0.0046
29915W        W46176  10.135   5.348   5.167 -0.0040 -0.3075 -0.2020
29916W        W46177   8.926  14.753   3.242  0.2432  0.3945  0.1638
29917W        W46178   7.303  12.969  13.402  0.0582  0.0833  0.0271
29918W        W46179   0.703   9.934  13.325 -0.2934  0.2170 -0.0447
29919W        W46180  17.053  15.369   4.311  0.2826 -0.1134 -0.1414
29920W        W46181   9.735   4.066   2.921 -0.0913 -0.0259  0.1878
29921W        W46182   9.306   8.662  11.487  0.0866 -0.0295  0.3271
29922W        W46183   0.655  13.812  12.659 -0.3331  0.0649 -0.0496
29923W        W46184  13.052  15.061  11.525 -0.1846  0.2588  0.0984
29924W        W46185   0.977   9.564  16.546  0.2242  0.0430  0.0156
29925W        W46186  10.601   8.421  14.415 -0.4127  0.1029  0.1644
29926W        W46187   8.495   6.622   4.135 -0.0133  0.1433 -0.1127
29927W        W46188  12.976  13.382  15.428 -0.0267  0.2060 -0.1374
29928W        W46189   4.826   4.829  13.547 -0.0737 -0.0264  0.2576
29929W        W46190  12.788   0.894  11.391 -0.1038  0.0246 -0.0452
29930W        W46191  15.121  15.789   3.378  0.2012  0.2243  0.2466
29931W        W46192  17.778   7.501  15.949  0.0324  0.2055 -0.1489
29932W        W46193  17.538   3.869  13.467  0.4325  0.2382 -0.0336
29933W        W46194   5.271   8.401   1.375 -0.2118 -0.2698 -0.3009
29934W        W46195   6.564   9.183  15.043  0.3846  0.0430  0.1900
29935W        W46196  10.250   1.630   2.384 -0.1991 -0.0435  0.1693
29936W        W46197  14.472   8.623  12.972  0.0995 -0.2898  0.2933
29937W        W46198   8.063  16.046  13.117 -0.1468  0.1536 -0.1236
29938W        W46199  15.581  10.215   3.254 -0.1151 -0.0523  0.0708
29939W        W46200   1.359   8.549  13.640 -0.0010 -0.1466  0.0822
29940W        W46201  14.435   4.869   4.849  0.1434 -0.5306 -0.0422
29941W        W46202  12.635  14.387   1.471  0.0420  0.1651 -0.2145
29942W        W46203   2.352   7.861  16.295 -0.0984 -0.2460  0.2656
29943W        W46204  15.932  17.492  16.328  0.0940 -0.0603 -0.1414
29944W        W46205  14.362   2.654  11.927 -0.1961  0.0559 -0.1542
29945W        W46206  11.144  14.396  15.511  0.1725  0.1349 -0.1183
29946W        W46207   5.825  12.111   1.753  0.1158 -0.1691  0.2920
29947W        W46208   4.120   8.664   1.847 -0.0983  0.1523  0.0390
29948W        W46209   7.761   2.689  14.300 -0.0383  0.3293  0.1062
29949W        W46210  13.336  10.330  16.568 -0.0366  0.0479 -0.1247
29950W        W46211   6.398   8.708  11.705  0.0993 -0.0365 -0.2258
29951W        W46212  17.567  16.474   0.614  0.0994 -0.4992 -0.1132
29952W        W46213  18.001  17.413   5.645  0.0136  0.2163 -0.1231
29953W        W46214  17.163  15.930   4.363 -0.0965  0.3165 -0.2601
29954W        W46215   3.847   3.137   3.030 -0.1628 -0.0350 -0.0749
29955W        W46216  16.113  16.629   4.773  0.2457 -0.0599 -0.2945
29956W        W46217   2.458   4.954   5.616 -0.0664  0.2091  0.1828
29957W        W46218   8.372   0.247   1.470  0.0279 -0.4290 -0.3325
29958W        W46219  13.580  16.571  12.919 -0.2760  0.0748 -0.0987
29959W        W46220   3.776  15.772   1.676  0.2520 -0.2757  0.2638
29960W        W46221  13.422   2.907   0.491  0.1112 -0.2821 -0.2543
29961W        W46222   4.433  16.348   1.736 -0.1412  0.2521 -0.0980
29962W        W46223   9.514   9.857   0.125  0.5353 -0.0652  0.3474
29963W        W46224   2.466  15.194   0.674 -0.0721 -0.0528 -0.1293
29964W        W46225   2.048  11.285  12.119  0.0739  0.0308  0.0968
29965W        W46226   7.371   4.099   2.100  0.1108 -0.1354 -0.1330
29966W        W46227  16.269  12.509   4.053  0.2577 -0.1677  0.0519
29967W        W46228  10.984   7.855   5.695  0.0336 -0.2426  0.2791
29968W        W46229  11.430   1.872  15.791 -0.0667  0.2675  0.2734
29969W        W46230   9.343  10.805   4.258  0.2980 -0.1798  0.2939
29970W        W46231  11.082   8.531   2.081 -0.1223 -0.1877 -0.0154
29971W        W46232  13.138   5.843  12.961  0.1702  0.2571 -0.4064
29972W        W46233   1.908  14.573  16.224 -0.2145  0.1156 -0.3322
29973W        W46234   0.377  16.567  13.778  0.3217 -0.1772 -0.1063
29974W        W46235   7.835   2.801   0.418 -0.0384  0.1341  0.0845
29975W        W46236  15.413  14.711  12.890 -0.0269  0.0196 -0.2588
29976W        W46237   3.641   5.274  12.661 -0.1019 -0.0334 -0.3416
29977W        W46238   1.291   9.956   0.330 -0.1248  0.0688  0.1598
29978W        W46239   0.128  16.947  13.284 -0.2691  0.0617 -0.1347
29979W        W46240   4.223  11.888  12.305  0.0132 -0.1952 -0.0247
29980W        W46241  13.166  10.811  15.396 -0.0559  0.0722  0.4200
29981W        W46242   1.006   5.341   1.689  0.0110 -0.2721  0.0761
29982W        W46243   2.405  12.525  14.185  0.0645 -0.0337 -0.1476
29983W        W46244   3.336  14.632   0.571  0.2892 -0.0698 -0.2354
29984W        W46245   0.998   6.527   6.445  0.1669  0.0599  0.2156
29985W        W46246   4.362  11.901  16.642 -0.0481 -0.1738 -0.0375
29986W        W46247   6.411  10.284   0.765 -0.4751 -0.0023  0.1332
29987W        W46248   7.499  11.957  14.557 -0.1555  0.0662 -0.1313
29988W        W46249   8.939   9.868  11.932 -0.1180  0.1720 -0.1331
29989W        W46250   5.377  16.541   1.986  0.0350 -0.0719  0.1902
29990W        W46251  17.450  14.188   4.068  0.1118  0.2606  0.0014
29991W        W46252   9.678  13.142  13.883  0.1491 -0.2956 -0.1314
29992W        W46253  16.614  17.221  12.985 -0.3827  0.2057  0.0456
29993W        W46254  12.832   6.971   3.028  0.0704  0.0585 -0.3023
29994W        W46255  12.012   1.576   1.826 -0.2389  0.2682  0.2998
29995W        W46256   9.642  16.508   4.316  0.0705 -0.3118 -0.0177
29996W        W46257   7.857   5.819  14.813 -0.0752 -0.0913  0.0139
29997W        W46258  10.113   1.102  11.851 -0.1080 -0.0792 -0.4258
29998W        W46259   2.795   0.447   0.323 -0.0147 -0.0069  0.0667
29999W        W46260  15.612   1.065   4.296 -0.0086  0.2297 -0.1923
30000W        W46261  14.426  13.859  12.301  0.2186  0.3356  0.0855
30001W        W46262  14.378  10.452   3.253  0.2301 -0.1438  0.2029
30002W        W46263  12.638   0.603  13.493  0.3133 -0.0566 -0.3476
30003W        W46264   8.825  15.541   0.777 -0.1372  0.2759  0.0691
30004W        W46265   2.514   4.298  11.329  0.1071 -0.2026 -0.2812
30005W        W46266   4.674  13.720  11.786  0.0825 -0.2786  0.0362
30006W        W46267  10.911  10.282   4.796  0.3332 -0.0611 -0.0353
30007W        W46268   8.087  14.579   2.112  0.1917 -0.0534  0.2246
30008W        W46269  10.732   3.303   3.265 -0.0552  0.3970  0.3920
30009W        W46270  10.782   3.519  11.014  0.0948 -0.0638 -0.2322
30010W        W46271  17.953   0.806   4.354  0.0278  0.0649 -0.0733
30011W        W46272   2.091  17.662   1.536  0.0995  0.2111 -0.1880
30012W        W46273   4.527   4.954  11.767  0.0432 -0.1749  0.3632
30013W        W46274  10.119   9.328   3.736 -0.2522 -0.2679  0.1049
30014W        W46275   8.125  17.818   4.417  0.0359 -0.1747 -0.0522
30015W        W46276   6.938  12.375   3.726 -0.1480  0.0414 -0.0637
30016W        W46277   7.883   1.841   2.159  0.2091  0.2260 -0.0313
30017W        W46278  12.623  13.383   1.664  0.1371 -0.1262  0.1140
30018W        W46279   8.535  13.822   4.649  0.2116  0.1539 -0.0568
30019W        W46280   1.686  17.816  11.580  0.0700 -0.0850  0.0020
30020W        W46281   1.196   6.203   2.726 -0.0581 -0.1895 -0.4581
30021W        W46282  14.779  17.825  13.508 -0.1283  0.0602  0.1872
30022W        W46283   4.472   7.227   6.229 -0.0211 -0.0384 -0.0666
30023W        W46284   5.622   2.801   3.584 -0.1699  0.1130 -0.1343
30024W        W46285   8.917  10.536   4.557 -0.3948 -0.1856  0.1523
30025W        W46286   2.938  16.469  15.923  0.1844  0.3617  0.2621
30026W        W46287  15.433  14.421  15.196  0.0802 -0.2279 -0.1765
30027W        W46288   4.342   9.524   0.046  0.0263  0.0889  0.2287
30028W        W46289   2.933  14.985   2.257 -0.2220  0.0154  0.3976
30029W        W46290   0.205  15.357   3.169  0.0631 -0.1628  0.0035
30030W        W46291   4.032   4.449   0.764 -0.0517  0.0153  0.0712
30031W        W46292   3.378   3.123   6.786 -0.1632 -0.2666  0.1196
30032W        W46293  11.782   3.278   4.959  0.2903  0.0197 -0.1508
30033W        W46294  10.600   4.758  14.164 -0.1428 -0.1552 -0.0243
30034W        W46295   0.632  10.091   3.148  0.0975  0.1366  0.1210
30035W        W46296   1.152  16.474  15.773  0.1783  0.0019 -0.2560
30036W        W46297   7.176   7.138   5.493  0.0705 -0.2753 -0.0275
30037W        W46298  15.849  11.269   2.688 -0.1363  0.1386  0.2640
30038W        W46299  15.009   6.199   5.125  0.0072  0.0206  0.0025
30039W        W46300   0.645  11.940  13.175  0.0433  0.0678 -0.0456
30040W        W46301   5.207  17.314   0.465 -0.0464 -0.0474 -0.4555
30041W        W46302   5.693   6.341   2.486 -0.3146  0.0769  0.1360
30042W        W46303   8.755   9.622  12.336 -0.0792 -0.1534  0.2395
30043W        W46304   3.092   6.386  15.992 -0.1271 -0.2229  0.2335
30044W        W46305  11.190   7.564  14.332 -0.2630  0.0353 -0.2663
30045W        W46306  18.167   6.132   5.332 -0.1101 -0.1299 -0.0049
30046W        W46307   7.408  14.664   2.788  0.0174 -0.1329 -0.1331
30047W        W46308   3.396  12.012   6.701  0.1889  0.2097  0.0059
30048W        W46309   3.122  14.474  12.711 -0.0515 -0.1062  0.2975
30049W        W46310   0.256   8.205   4.890 -0.1339  0.1841 -0.0469
30050W        W46311   1.557  10.790   3.480  0.1579  0.1120 -0.0979
30051W        W46312   9.588   0.209   2.787 -0.2308  0.3119 -0.1850
30052W        W46313   5.593  11.624   4.776  0.2704 -0.0601 -0.0326
30053W        W46314   8.536   3.805   1.812 -0.0161  0.0554  0.0634
30054W        W46315   4.875  16.976   0.598  0.2894 -0.0540 -0.1074
30055W        W46316  17.510  16.849   1.692 -0.2647 -0.0480 -0.2302
30056W        W46317   2.205   6.377   1.583 -0.1619 -0.1898  0.1163
30057W        W46318   3.699   7.427  16.107 -0.5111 -0.3748 -0.0805
30058W        W46319   1.778   6.955   3.192 -0.2057  0.2884 -0.1077
30059W        W46320  16.120   6.888  12.770 -0.0181  0.2280  0.0021
30060W        W46321   8.381   0.335  13.542 -0.0641 -0.0122  0.3493
30061W        W46322   7.048   9.239   2.726  0.1672 -0.1405  0.1168
30062W        W46323   5.866   6.668  13.320  0.1418 -0.0056  0.1609
30063W        W46324  11.563  10.508   3.593 -0.0124  0.0823  0.3279
30064W        W46325  16.722   8.659  13.625 -0.2808  0.2510 -0.1334
30065W        W46326  10.760   3.779  14.777 -0.0614 -0.0228  0.0628
30066W        W46327  10.783  17.056  14.013  0.1549  0.0063  0.3896
30067W        W46328   9.336  10.366  11.936  0.0178  0.2812  0.3325
30068W        W46329  15.677  13.072  12.164  0.1112 -0.1699  0.1215
30069W        W46330  13.543   1.648  12.567  0.3440 -0.3475  0.0162
30070W        W46331   6.495  13.361   1.355  0.1127  0.1709  0.0580
30071W        W46332   3.231  10.438  14.098 -0.5451 -0.1229  0.0492
30072W        W46333  13.058  13.541   2.042 -0.0266  0.3238  0.0880
30073W        W46334   0.809   4.912   2.830 -0.1528 -0.0174  0.0235
30074W        W46335   9.135  16.544  12.362 -0.1731 -0.2855  0.0825
30075W        W46336   2.768  16.344   3.419 -0.0576  0.2514  0.0425
30076W        W46337  17.787   4.721   1.539 -0.1421  0.1393  0.0824
30077W        W46338  16.260  15.331   1.527  0.2045 -0.1162  0.2254
30078W        W46339  12.542   1.754   2.048  0.0714 -0.0521  0.1210
30079W        W46340   8.951   1.777   1.180 -0.1918 -0.2277  0.0896
30080W        W46341   7.179   8.449   3.991  0.3494  0.0902  0.3835
30081W        W46342  12.810   0.385   3.519 -0.3469 -0.5060  0.1516
30082W        W46343  13.639  14.871  13.937  0.1234 -0.0131 -0.2139
30083W        W46344  17.555  13.458   2.846 -0.0534 -0.2645 -0.3394
30084W        W46345  14.703   7.923   3.803  0.2817 -0.0080 -0.0872
30085W        W46346   0.371  16.187   2.542  0.2738 -0.0605 -0.3310
30086W        W46347  18.159  13.485  14.419 -0.3792  0.1261  0.4001
30087W        W46348  13.179   0.174   4.351  0.1649 -0.0372  0.1208
30088W        W46349  12.858  15.996   5.540 -0.2953 -0.1855  0.0189
30089W        W46350  17.949   9.638  14.609  0.3030  0.2801 -0.2351
30090W        W46351  14.305   5.461   3.174  0.1032  0.2457 -0.2269
30091W        W46352   3.192  15.955   0.860  0.1783  0.4059  0.1534
30092W        W46353   4.103  10.229  15.025  0.0270 -0.0583  0.1329
30093W        W46354   3.079   1.642   0.516  0.0683 -0.0174 -0.1300
30094W        W46355  15.688   3.572   3.627 -0.0532 -0.0878  0.2882
30095W        W46356   9.744  15.984   2.759 -0.1172  0.2568  0.1604
30096W        W46357   0.719  16.171  13.150 -0.1058 -0.0447  0.0826
30097W        W46358   7.582   8.958   2.689 -0.1568  0.1742  0.1137
30098W        W46359   6.769   7.655   4.569 -0.2528 -0.3302  0.1731
30099W        W46360   3.375   5.354   5.501  0.1378  0.2040  0.0063
30100W        W46361   3.600   0.745   5.252 -0.0483  0.1240 -0.1760
30101W        W46362  12.426  13.991   1.043  0.2077  0.0683 -0.1849
30102W        W46363  11.167   1.192   0.742  0.0946  0.0912  0.0825
30103W        W46364  17.591  12.150   2.895  0.0371  0.0274  0.1039
30104W        W46365   8.840  10.775  13.106 -0.0968  0.0912 -0.3052
30105W        W46366   4.893   2.466  15.638 -0.0069  0.0732  0.2597
30106W        W46367  11.571   7.307  16.257 -0.2272  0.0229  0.0395
30107W        W46368  15.674  12.470   2.865 -0.0158  0.4532  0.0206
30108W        W46369  13.597  14.163   3.313 -0.1240  0.0780  0.3045
30109W        W46370   9.456  16.533  12.790  0.4074 -0.0144  0.2303
30110W        W46371   2.440   3.683   3.594  0.0815 -0.1225 -0.0504
30111W        W46372   7.284  11.884   2.464  0.2605  0.0399 -0.1788
30112W        W46373   8.401  11.085   1.695 -0.0893 -0.0829 -0.1777
30113W        W46374  17.874  16.057  15.877  0.3399 -0.1914 -0.1350
30114W        W46375   5.569   8.500  13.398 -0.2037  0.1317  0.3990
30115W        W46376   7.610   3.030   4.238 -0.2843 -0.0395 -0.3568
30116W        W46377   1.989  18.041   1.154  0.1679 -0.1805  0.1747
30117W        W46378  15.339   9.734  12.389  0.0377 -0.1896 -0.2613
30118W        W46379  16.202  14.940   5.217 -0.0723 -0.1181 -0.0442
30119W        W46380  16.516   4.429  11.989  0.0872 -0.4688  0.0571
30120W        W46381  15.297   1.992  14.092 -0.3464  0.1404 -0.0902
30121W        W46382   0.347  16.141   0.441  0.0195 -0.1415 -0.1631
30122W        W46383   1.690  17.729  14.078 -0.0357  0.5220 -0.3660
30123W        W46384   7.456   3.753   1.467  0.3827 -0.3207 -0.0327
30124W        W46385   5.795   9.372  13.451 -0.1418 -0.0385  0.0297
30125W        W46386  12.399   7.666   2.580  0.4746  0.0473  0.0002
30126W        W46387   0.469  17.217   1.748  0.1341  0.2064  0.0028
30127W        W46388   6.594   5.654   1.370 -0.1557 -0.2177  0.0371
30128W        W46389  16.781   2.531   5.759  0.1450 -0.2843  0.1822
30129W        W46390   5.718  17.026   5.768 -0.1660  0.0173  0.1460
30130W        W46391  15.540  17.690  15.435 -0.0230 -0.2786  0.0796
30131W        W46392   9.628  10.669   3.288 -0.2628  0.0652  0.1339
30132W        W46393  11.582  16.360   1.026 -0.2551  0.1105  0.1475
30133W        W46394   7.446  13.904  12.135 -0.1010 -0.3163 -0.2457
30134W        W46395  10.865  11.300   3.622 -0.0931 -0.0586  0.0741
30135W        W46396  13.344   1.137   2.066 -0.0440  0.3255 -0.1697
30136W        W46397  16.281   8.851  11.571  0.1057 -0.1113  0.1216
30137W        W46398  15.982  15.674   1.134 -0.0543  0.0931 -0.0893
30138W        W46399   5.368  16.800  13.360  0.1127 -0.1157  0.0489
30139W        W46400   5.422   5.314   3.805  0.2137 -0.1632  0.1690
30140W        W46401  13.103  11.461  11.350  0.1809  0.0981  0.0715
30141W        W46402   3.108   0.230  13.307  0.1682  0.3385  0.2223
30142W        W46403  15.593   1.669   1.763  0.1089  0.2860  0.0096
30143W        W46404   7.952   9.867   2.804 -0.1975  0.1711  0.0226
30144W        W46405  10.928  14.785  13.105 -0.1027  0.0649 -0.0721
30145W        W46406  13.076   2.540  11.904 -0.0624 -0.3635 -0.1042
30146W        W46407   7.472   5.405  15.571 -0.1894 -0.1607 -0.0913
30147W        W46408  17.751  10.273  13.827 -0.1281  0.1485 -0.0731
30148W        W46409  18.023   1.648  15.364 -0.1316  0.1707  0.1422
30149W        W46410   9.511   0.891  16.360  0.0074 -0.0268 -0.2869
30150W        W46411   0.557   8.865  15.472 -0.2912 -0.1029 -0.1660
30151W        W46412  13.481  12.845   0.832  0.0584 -0.1730  0.1109
30152W        W46413   7.733  12.911   0.289 -0.2417  0.1782 -0.1881
30153W        W46414  13.330   0.913   5.000 -0.0121 -0.2737 -0.2783
30154W        W46415  13.882  17.033   2.920 -0.1293  0.2155 -0.3629
30155W        W46416  16.237   8.182   0.627  0.2049  0.1393 -0.1373
30156W        W46417  12.509  15.543   1.461 -0.0391  0.1650 -0.0993
30157W        W46418   0.164  11.222  15.072  0.2455  0.0097 -0.0309
30158W        W46419   7.265   4.126  14.239  0.0742 -0.3353 -0.0555
30159W        W46420   5.298   4.077   1.669  0.1512 -0.4595 -0.0604
30160W        W46421   1.008   7.434   0.113 -0.0973  0.0780  0.0485
30161W        W46422  11.438  11.092  14.393  0.0142 -0.3000  0.1888
30162W        W46423  10.716   1.889   0.972 -0.0359 -0.0713  0.0078
30163W        W46424  15.619   5.695   1.853 -0.0700 -0.2301 -0.0113
30164W        W46425  10.194  12.519  13.287  0.1890  0.0749  0.0532
30165W        W46426  17.976  11.831  13.565  0.1224 -0.0971 -0.1518
30166W        W46427   7.364   8.530  14.963 -0.1723  0.1275 -0.1481
30167W        W46428  15.824  13.010   5.261  0.0539  0.2116 -0.1144
30168W        W46429   2.673   5.717   0.567  0.0132 -0.6301  0.0105
30169W        W46430  15.695   8.924  14.931  0.0901 -0.2241  0.2963
30170W        W46431   8.737   9.926   0.976 -0.0980  0.0359 -0.3055
30171W        W46432  10.872  11.691   2.414  0.0919  0.1583  0.1249
30172W        W46433  10.348   8.216  14.044 -0.1559  0.0003  0.1538
30173W        W46434  13.136  13.837   4.550  0.3299  0.1610 -0.0959
30174W        W46435  16.568   2.057  12.905 -0.0718  0.0733  0.0059
30175W        W46436  13.118   5.289  13.787  0.0833 -0.0344 -0.1374
30176W        W46437   6.935  13.004   4.962  0.1881 -0.0188 -0.0393
30177W        W46438   5.181  15.716   6.120 -0.0273  0.0473  0.1118
30178W        W46439  14.505   1.683  16.531 -0.0895 -0.0841 -0.1975
30179W        W46440   5.986   1.037  11.461  0.1541  0.1073  0.0801
30180W        W46441   5.630   6.045  10.432 -0.0195  0.1034 -0.1002
30181W        W46442   8.676  11.715  15.960  0.0044 -0.0798  0.0554
30182W        W46443   6.906  10.145   0.548  0.3448  0.3297 -0.1988
30183W        W46444   3.630   6.793  13.270 -0.0566 -0.0665 -0.1444
30184W        W46445  12.170  17.186  12.648 -0.2513 -0.0838 -0.1320
30185W        W46446  15.094  10.485   4.295 -0.3407  0.0711 -0.2723
30186W        W46447   9.747   4.227   2.439  0.0055 -0.1332  0.0375
30187W        W46448   3.539   0.638  12.912 -0.1122  0.0203 -0.0877
30188W        W46449  17.815  16.871   2.069 -0.2234 -0.2734 -0.2702
30189W        W46450   8.869   8.868  13.941  0.2222  0.0457 -0.2821
30190W        W46451   2.099   2.372  15.905 -0.2748 -0.0971  0.0106
30191W        W46452  10.277  17.947  16.588 -0.0604 -0.0263  0.3131
30192W        W46453   0.249   9.191   1.168  0.2866 -0.2312 -0.2358
30193W        W46454  17.785  10.202  14.544  0.2767  0.0741  0.2102
30194W        W46455  14.708  13.522  15.949 -0.2310 -0.1833  0.0606
30195W        W46456  14.248   0.684  14.760 -0.3360  0.3224 -0.2525
30196W        W46457  16.360   9.260  11.882  0.4319 -0.0914 -0.0692
30197W        W46458   2.006   5.247   5.485  0.1255 -0.1077 -0.3234
30198W        W46459  11.106   7.114  16.205 -0.0269  0.1536 -0.1791
30199W        W46460  14.663  10.061   3.169  0.0034 -0.0797  0.1100
30200W        W46461   1.899  16.716   1.877 -0.1664 -0.4051 -0.1331
30201W        W46462   2.540   4.303  15.641  0.2779  0.3524  0.1749
30202W        W46463  11.509  16.764  11.298 -0.2389 -0.1950  0.2745
30203W        W46464  15.264  16.613  11.604 -0.1097 -0.0461  0.2566
30204W        W46465  12.413  10.674  12.138 -0.1687  0.0433  0.3236
30205W        W46466  17.608   1.030  14.133  0.2693  0.1993 -0.1950
30206W        W46467  13.716   9.896  15.012 -0.0668 -0.0365 -0.0551
30207W        W46468   0.923   2.048  12.171  0.1967 -0.0232  0.2662
30208W        W46469  13.788  13.288   5.205 -0.1652 -0.2561 -0.0827
30209W        W46470  14.966   6.969  15.033 -0.2287  0.2051 -0.0031
30210W        W46471  16.760   6.578  16.613 -0.1175 -0.1121  0.1217
30211W        W46472  12.303  17.426  13.020  0.0037 -0.3206  0.0497
30212W        W46473  14.592  12.441  12.575  0.1060  0.1336  0.2752
30213W        W46474  14.223  12.897   0.693 -0.1919  0.1746 -0.0343
30214W        W46475  15.755   2.734   5.264 -0.0741 -0.0916  0.1218
30215W        W46476  16.373   1.635   0.471  0.4779 -0.1383 -0.2472
30216W        W46477   3.719  17.549   0.345 -0.0437  0.0889  0.1349
30217W        W46478   2.744  12.208  15.889  0.2920 -0.0735 -0.2669
30218W        W46479  14.982   8.506  11.246 -0.1032  0.0598 -0.0922
30219W        W46480   7.892  17.350  15.024  0.0705 -0.2698 -0.1735
30220W        W46481   8.552  13.023  15.709 -0.1313 -0.0920  0.0315
30221W        W46482   2.128   0.617   3.099 -0.0577 -0.0007  0.0790
30222W        W46483  12.207  13.175   5.281 -0.2205  0.0211 -0.0145
30223W        W46484   6.429   2.535  12.467 -0.4360  0.0096  0.1738
30224W        W46485   4.080   9.986   2.716 -0.1005 -0.0755 -0.0891
30225W        W46486  15.564   5.222   0.172 -0.0356  0.2620 -0.0900
30226W        W46487  18.030   8.873   5.253  0.1356 -0.1768 -0.2473
30227W        W46488   9.843   6.534  13.736  0.2101  0.0190 -0.0986
30228W        W46489  14.953   5.080  15.329 -0.1310 -0.0950  0.2535
30229W        W46490  15.609   5.224   1.855  0.3633 -0.0546 -0.1217
30230W        W46491  13.489  17.909   4.471 -0.0468  0.2294  0.2262
30231W        W46492  12.693  12.719   2.834 -0.1187 -0.1657  0.1212
30232W        W46493  16.076   5.022  14.298  0.0058 -0.1933  0.2884
30233W        W46494   4.257  10.477   4.762  0.2936  0.4002 -0.0352
30234W        W46495  14.389   5.866  14.946 -0.1430 -0.0267 -0.0362
30235W        W46496  17.480  13.084  15.341  0.3151 -0.1356 -0.1079
30236W        W46497   8.703  12.507  13.244  0.0268  0.1778  0.1004
30237W        W46498   6.896   5.066   1.997  0.3484  0.3149 -0.1873
30238W        W46499  15.009   6.235   0.659  0.3274  0.0569 -0.1012
30239W        W46500   8.377   6.532   1.636 -0.1435  0.0858 -0.0842
30240W        W46501   9.062  13.899  11.881 -0.0647  0.0070  0.0776
30241W        W46502   0.888  17.015  15.104 -0.2143  0.3090 -0.0287
30242W        W46503   8.796   7.620   1.093  0.0642  0.0699  0.1522
30243W        W46504  18.016   0.916  16.305  0.1238 -0.3677 -0.2407
30244W        W46505  14.130  11.279   1.294  0.2518  0.0638  0.0700
30245W        W46506   9.635  13.650   2.047  0.0527  0.3922  0.3079
30246W        W46507  10.184   7.076   1.092  0.0532 -0.0327  0.1787
30247W        W46508  10.353   3.649  11.242 -0.2759  0.0648 -0.3635
30248W        W46509  17.026   4.615   5.767 -0.0768  0.0201  0.1686
30249W        W46510   0.050  13.986  13.938 -0.1986  0.0497  0.1225
30250W        W46511   2.880  12.319  13.990 -0.1640 -0.0468  0.0295
30251W        W46512   1.008  11.549  15.260  0.0289 -0.0804  0.3791
30252W        W46513   8.857  14.471   1.556  0.0295  0.0045  0.1631
30253W        W46514   4.058  15.125   5.036 -0.2816  0.4186  0.1127
30254W        W46515  16.553  11.162  12.015  0.0852  0.2751 -0.0028
30255W        W46516  10.270   5.677  13.740  0.1774 -0.0240  0.0128
30256W        W46517   7.076  17.028   4.045  0.0760 -0.0991  0.2885
30257W        W46518  15.341   4.134  12.210  0.2230  0.0060 -0.1059
30258W        W46519   4.373  18.164   3.875 -0.2991 -0.2998  0.0504
30259W        W46520   7.256   1.937   4.458  0.3335  0.0674 -0.4166
30260W        W46521  14.668   0.452  11.309  0.1402 -0.1450 -0.2351
30261W        W46522  17.752  14.960   0.682  0.2086 -0.0519 -0.3125
30262W        W46523   7.247   0.330   4.140 -0.0010 -0.0854 -0.0150
30263W        W46524   6.230   6.114   0.233  0.1568  0.0291  0.0327
30264W        W46525   0.155   3.268   6.067 -0.0372 -0.2933 -0.2488
30265W        W46526   1.146  11.864   3.908 -0.2833  0.3356  0.3948
30266W        W46527   2.739  16.191   4.822 -0.1832 -0.0616 -0.0696
30267W        W46528   8.299  16.552  15.804  0.1244  0.0053  0.1032
30268W        W46529  10.658  15.632   4.065  0.0899  0.1843 -0.1450
30269W        W46530   1.037  12.811   5.474  0.0665  0.1890  0.0638
30270W        W46531   9.168   1.931  14.811  0.0015  0.3172  0.1095
30271W        W46532  16.204  16.558  11.684 -0.2352 -0.0569 -0.2156
30272W        W46533  17.225   1.495   4.593 -0.0803  0.1321  0.0238
30273W        W46534   3.399   5.209  15.262 -0.0890  0.1560  0.2222
30274W        W46535   9.885   2.055  11.683 -0.2509  0.1151  0.1094
30275W        W46536  14.878   3.032   1.783  0.1071 -0.2479  0.1200
30276W        W46537  12.401   8.020   4.045 -0.2000  0.1716  0.2501
30277W        W46538  11.750  16.124   3.333 -0.0928  0.4397 -0.2331
30278W        W46539   2.435  11.538   0.005  0.0415  0.0491  0.1949
30279W        W46540  17.343   4.004   2.350 -0.3129  0.3054 -0.1209
30280W        W46541   1.893   1.133   0.893  0.0197  0.2666 -0.3333
30281W        W46542   9.865   4.983   0.414  0.3132 -0.1103 -0.1031
30282W        W46543   5.781   4.992   4.013 -0.0745 -0.0858 -0.0982
30283W        W46544  15.855  11.781   1.042 -0.2427  0.1430  0.0583
30284W        W46545  13.726   6.398  15.155  0.2222  0.2222 -0.3681
30285W        W46546  13.182   0.281   3.173 -0.1462 -0.1018 -0.2463
30286W        W46547  11.942  10.561   3.886  0.3777  0.1409 -0.0249
30287W        W46548  15.218   5.971  16.117  0.0606  0.0504 -0.1010
30288W        W46549  14.639   8.858  16.347 -0.0850  0.1177  0.2549
30289W        W46550   1.515  14.754   3.344 -0.1155  0.3184  0.1020
30290W        W46551  17.010  12.120   0.354 -0.2576 -0.0523  0.1372
30291W        W46552  15.638   3.964  11.402  0.1331 -0.2908  0.4161
30292W        W46553  10.592  16.761   2.246 -0.0489  0.3272 -0.0599
30293W        W46554   1.639  11.250   4.122  0.2950  0.2167  0.1829
30294W        W46555  12.193  12.382   5.019 -0.0999 -0.0237 -0.0033
30295W        W46556   9.517  14.606   4.493  0.3481  0.0211 -0.1819
30296W        W46557   8.907  13.496   4.767 -0.2307  0.2653 -0.2347
30297W        W46558  13.739  13.792  14.758  0.0606 -0.4366 -0.2385
30298W        W46559  16.269   1.662   1.025 -0.1317 -0.0838  0.1900
30299W        W46560  18.179  12.246   2.163 -0.3081 -0.2513  0.2430
30300W        W46561   1.738  17.573   0.487  0.1569  0.2243  0.1648
30301W        W46562  17.530  16.262  15.605 -0.0895  0.0688 -0.0920
30302W        W46563   1.189   4.606   0.939 -0.1817 -0.0425  0.2447
30303W        W46564   2.768  11.509   0.862  0.3033 -0.1697  0.0783
30304W        W46565   8.173   0.715   1.470  0.3851 -0.2826  0.1991
30305W        W46566   5.658  14.481  15.754 -0.1956 -0.1929  0.3789
30306W        W46567   5.866   1.657   5.521  0.1771  0.0180  0.0760
30307W        W46568   1.395  10.245  14.671 -0.0718  0.1343  0.0854
30308W        W46569  16.385  11.269   5.254  0.2970  0.2323 -0.0058
30309W        W46570   3.563   6.586   5.385  0.2572  0.2132 -0.0415
30310W        W46571   1.112  14.489  16.276  0.1663  0.3267 -0.1293
30311W        W46572  17.768   0.428  15.209 -0.0237  0.4888  0.2512
30312W        W46573  10.227   0.838  13.322  0.0707 -0.0047  0.1365
30313W        W46574   0.991   5.669  16.410  0.0961 -0.2889 -0.2165
30314W        W46575   9.422   4.008  13.919  0.1760 -0.0727  0.2164
30315W        W46576  17.381  14.839  14.359 -0.0570  0.3396  0.1325
30316W        W46577  15.787   5.645   0.295  0.1021  0.1230 -0.3205
30317W        W46578  11.726   5.389   0.873 -0.3605 -0.1320  0.0185
30318W        W46579  14.045   7.177   5.168  0.1063  0.1343  0.1378
30319W        W46580   9.710  13.691  14.521 -0.2177  0.0295  0.1451
30320W        W46581  15.924  14.340  10.540 -0.1329 -0.0062  0.0488
30321W        W46582   9.546  14.022   3.497  0.2606 -0.1810  0.2277
30322W        W46583   1.184  13.241  14.677 -0.1869  0.1098 -0.3114
30323W        W46584   3.225  12.344   2.896 -0.4264 -0.1946 -0.0217
30324W        W46585  11.861   1.938  13.640  0.0743 -0.3416  0.2588
30325W        W46586  12.168   1.325  11.064 -0.1098  0.4303  0.2730
30326W        W46587  12.807   7.807  16.581  0.1103  0.2379  0.2292
30327W        W46588   1.536   2.955  16.385 -0.4865  0.0063 -0.0273
30328W        W46589  10.138  18.041  12.277  0.2985 -0.2001 -0.0432
30329W        W46590  13.352   5.753  12.386 -0.0976 -0.2238  0.0569
30330W        W46591   6.313   5.879  13.745  0.1502 -0.1056 -0.0446
30331W        W46592   9.628  14.875  13.411  0.4911  0.0339 -0.1479
30332W        W46593  16.005  12.186   3.751  0.0474  0.3414 -0.1726
30333W        W46594  12.924  13.019   5.613  0.1608  0.2143  0.2864
30334W        W46595   3.806  17.034  12.373  0.1998  0.1360  0.3597
30335W        W46596  12.964  16.361   2.054  0.2384 -0.0080  0.2319
30336W        W46597   7.531   7.740   0.026 -0.0618 -0.2422 -0.2970
30337W        W46598   0.543   0.650   4.718  0.0449 -0.0558  0.2150
30338W        W46599   7.095   7.354   1.795  0.1507 -0.1184  0.2143
30339W        W46600  16.295  10.262   5.104  0.2966  0.0138 -0.1023
30340W        W46601  15.893   1.989   0.891 -0.2238 -0.1441 -0.2083
30341W        W46602   1.023   9.807   4.093  0.1268 -0.0674  0.0255
30342W        W46603   0.612  14.767   4.300 -0.3526 -0.0463  0.1305
30343W        W46604  17.407  14.320   2.484 -0.0792  0.1166 -0.0612
30344W        W46605   1.008  15.093  15.549  0.1131  0.1121  0.0277
30345W        W46606   4.575  18.155  12.361 -0.5939 -0.0210  0.0740
30346W        W46607  16.523   0.640   3.773  0.0445  0.1452 -0.3723
30347W        W46608   5.110   2.858   1.233  0.1380  0.1934 -0.2619
30348W        W46609   8.198   8.262   0.621  0.0442  0.0894 -0.0735
30349W        W46610  11.999  13.206   4.860  0.0111 -0.0683  0.0992
30350W        W46611   5.101  13.581   5.518  0.0195 -0.2949 -0.0610
30351W        W46612   8.086   8.588  15.059 -0.0066  0.0139 -0.1841
30352W        W46613  11.932   0.326  12.294  0.0154 -0.0880  0.0434
30353W        W46614  10.239   0.673   3.194  0.3863  0.3592  0.2790
30354W        W46615   4.127  16.257  15.941  0.0714  0.0003  0.3562
30355W        W46616   2.648   8.680   2.293 -0.0867 -0.0504 -0.0232
30356W        W46617  12.316   8.827  15.676  0.1041  0.1399  0.4356
30357W        W46618   9.270   6.250   4.931 -0.0905 -0.2232 -0.1577
30358W        W46619  17.378   4.424  15.390 -0.2796  0.1064  0.1010
30359W        W46620  11.484   5.794   1.757  0.2162 -0.1422 -0.1101
30360W        W46621  12.832   1.912  11.139  0.2150 -0.1298  0.0416
30361W        W46622   1.394   3.651   4.594 -0.0119  0.0363  0.1153
30362W        W46623  14.528   4.509   4.478 -0.2030  0.0454  0.2174
30363W        W46624   1.049  13.561   1.092 -0.0735  0.2278 -0.2774
30364W        W46625  17.179  16.110   0.304  0.0181 -0.3007 -0.1967
30365W        W46626  10.655  11.404  13.068 -0.1240  0.0247 -0.0885
30366W        W46627   4.022  12.919  16.583 -0.0886 -0.2604 -0.4111
30367W        W46628   7.235   7.688  12.923  0.1070  0.0698 -0.2460
30368W        W46629   9.644  17.726   0.174 -0.0551 -0.1815 -0.1254
30369W        W46630   3.173  14.753   4.480  0.2282 -0.1331  0.5988
30370W        W46631   8.727  13.915   4.181 -0.3108 -0.1118  0.1253
30371W        W46632  10.453  17.169  14.439 -0.4203 -0.0843  0.2815
30372W        W46633  14.534   4.593  14.539 -0.0466 -0.1466  0.1186
30373W        W46634  10.778  14.897  14.912  0.3336  0.3202  0.0133
30374W        W46635  14.663   2.327   2.852 -0.0574 -0.0549  0.0004
30375W        W46636   3.839  16.484  15.648  0.2139  0.0938  0.1393
30376W        W46637   3.106  17.274  15.807 -0.1301  0.0161  0.2343
30377W        W46638   3.661   6.143   5.150  0.1873  0.1335 -0.0845
30378W        W46639  12.298  13.748   0.629  0.1874 -0.1857 -0.1842
30379W        W46640  13.227  10.227  14.707 -0.0007  0.0155 -0.2739
30380W        W46641   0.968   4.573  15.294 -0.1873  0.1805  0.0802
30381W        W46642   4.900   7.460  11.725 -0.2662 -0.0304 -0.2518
30382W        W46643   8.205   1.593  14.022 -0.1263  0.1820  0.1779
30383W        W46644   0.535   1.341   2.035 -0.0781 -0.2218  0.0854
30384W        W46645   3.942   4.504   3.736  0.3470  0.0479  0.0562
30385W        W46646  11.903  13.817  11.633  0.1569 -0.1700  0.0407
30386W        W46647   6.199   9.512   5.711 -0.1610  0.0644 -0.1511
30387W        W46648  15.898   6.571   5.070 -0.4642 -0.1744 -0.2497
30388W        W46649  15.621   6.078  16.448  0.2458 -0.3688  0.5730
30389W        W46650  17.134   7.260  11.580 -0.0374 -0.1860  0.0280
30390W        W46651   5.413  18.129  15.250  0.1254 -0.0144 -0.0293
30391W        W46652   0.937   6.757  13.381  0.2145 -0.1605  0.4029
30392W        W46653  13.787   3.388   3.305 -0.0550 -0.2154 -0.0498
30393W        W46654   9.190  10.913  13.565  0.2410  0.4616 -0.1691
30394W        W46655  11.281  12.067   4.160 -0.2726  0.0624 -0.3824
30395W        W46656  15.095   6.357   4.193  0.2182 -0.0441 -0.1692
30396W        W46657  12.669  17.620   1.864 -0.0220 -0.0016 -0.0743
30397W        W46658  17.049   3.046   3.381 -0.1692 -0.0901  0.2170
30398W        W46659   7.432  10.036  16.305 -0.0309  0.0345 -0.1970
30399W        W46660  12.583   8.970  10.350 -0.1777 -0.2420 -0.2254
30400W        W46661  17.951  10.630  13.113 -0.0593 -0.0681  0.1726
30401W        W46662   2.969  14.933  14.626 -0.2460 -0.2783 -0.0111
30402W        W46663  10.144   1.940   2.744 -0.3684 -0.3177  0.0399
30403W        W46664   2.970  11.601   5.133 -0.0765  0.1561 -0.2588
30404W        W46665   0.362  15.774  16.639 -0.3412 -0.1316 -0.1746
30405W        W46666   8.959  15.110   5.027 -0.2721  0.2761  0.1328
30406W        W46667  11.680  13.047   1.941  0.0571 -0.0581 -0.0155
30407W        W46668   4.326  12.289   0.575  0.2438 -0.0414 -0.0894
30408W        W46669  13.449   8.713  14.563  0.0563 -0.0842  0.1815
30409W        W46670   4.262  13.639   4.163 -0.0635 -0.0373  0.1563
30410W        W46671   8.713   1.844   0.664 -0.1005  0.1895  0.2183
30411W        W46672  16.422   3.161  11.779 -0.1543 -0.2220 -0.1004
30412W        W46673   4.859  14.874   1.316 -0.0739 -0.0401  0.0534
30413W        W46674   6.545  17.237   1.466  0.0815  0.1670  0.0381
30414W        W46675  13.673   4.346  16.462 -0.0325 -0.1825 -0.0996
30415W        W46676  16.868   8.347  12.677  0.0289 -0.1502  0.0425
30416W        W46677   7.912  12.851   1.289 -0.2492  0.1115 -0.0624
30417W        W46678  14.469  15.969  14.800  0.0129  0.1164 -0.0049
30418W        W46679  11.096   0.522  16.275  0.0940  0.1312  0.1956
30419W        W46680   2.323   5.381   0.592 -0.0571  0.0889  0.4271
30420W        W46681  14.196   3.475   5.045 -0.0632  0.0056 -0.1219
30421W        W46682  16.569   9.132   4.332 -0.1203  0.2196  0.1705
30422W        W46683   3.672   7.626   2.826  0.0253 -0.4359 -0.4625
30423W        W46684  13.608   2.124  13.239  0.1064  0.0108  0.2411
30424W        W46685  17.047   3.167  11.544  0.2201  0.4051 -0.1803
30425W        W46686   9.391  13.470   5.538  0.6206 -0.1935  0.0675
30426W        W46687   3.572   8.116  13.426  0.0669 -0.1566  0.4337
30427W        W46688   5.909  16.370   2.622 -0.2233  0.0592  0.2244
30428W        W46689   7.279  15.266  15.385 -0.0936 -0.2467  0.0104
30429W        W46690   4.711   2.320  12.833  0.0832 -0.1056  0.0638
30430W        W46691   5.314   1.946   3.761 -0.1126  0.0051  0.0660
30431W        W46692   1.748   7.068   4.147  0.1315  0.1788 -0.2914
30432W        W46693   2.169  17.135  13.775 -0.1905 -0.1651 -0.1594
30433W        W46694  17.756  13.867   2.331  0.0387 -0.1495 -0.0190
30434W        W46695   1.603  17.893   3.446  0.0224  0.0459  0.1496
30435W        W46696   9.078  13.086   5.020  0.2049  0.0441  0.0270
30436W        W46697   0.549  16.909  12.873 -0.1625 -0.1110  0.3355
30437W        W46698   3.896  18.022  12.327  0.1145  0.0615 -0.0291
30438W        W46699   5.239  17.502  16.588 -0.0861 -0.0801  0.1025
30439W        W46700  16.332  16.621   3.512  0.0531 -0.0990 -0.2543
30440W        W46701   8.697  10.057   5.465  0.0836 -0.3300  0.3406
30441W        W46702  13.779   4.130  11.691 -0.1887 -0.0651  0.2754
30442W        W46703   7.720  10.110   0.180 -0.0738  0.0021 -0.2036
30443W        W46704   2.744   4.718  16.611  0.3055  0.1033  0.0351
30444W        W46705  16.901   7.057  11.199 -0.0315 -0.3066  0.0754
30445W        W46706  15.276  17.878  16.282  0.0239 -0.1581  0.0923
30446W        W46707   2.514  15.470  16.550  0.0922 -0.0371  0.1096
30447W        W46708   7.479  10.900  13.166  0.1188 -0.3431 -0.1240
30448W        W46709  14.228  14.480   3.299 -0.1760 -0.2121  0.3990
30449W        W46710   3.395  11.759  16.354  0.0249 -0.4030 -0.0643
30450W        W46711   6.435   8.925  11.281 -0.1416  0.0578  0.3554
30451W        W46712  16.830   5.938   0.060  0.0114 -0.2449  0.0127
30452W        W46713  12.570  17.714  13.347 -0.1384  0.0745  0.4316
30453W        W46714   3.284  15.461   4.403 -0.1307 -0.0239 -0.0175
30454W        W46715   5.057   6.176  10.545 -0.0502  0.0607  0.2386
30455W        W46716   9.270  14.600   6.321  0.1626  0.0268  0.0098
30456W        W46717   4.457   7.472  12.723 -0.0516  0.2727  0.1420
30457W        W46718   0.835   9.668  13.917 -0.0382  0.1296 -0.2559
30458W        W46719  16.157   3.973   5.824  0.1007 -0.1395 -0.4454
30459W        W46720   4.571   7.479   0.739  0.1348 -0.1385  0.0583
30460W        W46721   7.911   5.669   5.240  0.0652  0.2449 -0.1281
30461W        W46722  10.705   1.154  11.005 -0.0715  0.3709 -0.3892
30462W        W46723   1.773   6.055   6.184 -0.1602  0.1593 -0.2958
30463W        W46724   1.028  13.269   2.174 -0.1320  0.0969 -0.1955
30464W        W46725  13.449  12.376   0.699  0.0500 -0.1507 -0.0603
30465W        W46726   6.288  15.519  16.174  0.1005  0.3328  0.2311
30466W        W46727  14.578  10.999  16.323  0.1602  0.0906 -0.0971
30467W        W46728  14.055  12.435  12.587  0.1556 -0.1730 -0.2086
30468W        W46729  10.546   7.717   0.776 -0.1469  0.2392 -0.1829
30469W        W46730  11.783  10.816  13.228 -0.0095  0.0720 -0.0474
30470W        W46731   2.121   7.877   1.435  0.3206 -0.2729 -0.3625
30471W        W46732   2.334  17.025  15.184  0.0230  0.2738  0.1348
30472W        W46733  14.265  17.429  15.654 -0.2355 -0.2997  0.2690
30473W        W46734   0.585  13.901  13.886  0.2309  0.3329 -0.0071
30474W        W46735   5.663   4.581   4.332 -0.1830  0.0346 -0.0199
30475W        W46736  16.804  12.305  12.165  0.1875  0.1379  0.1722
30476W        W46737  15.448  11.059   1.668  0.4325 -0.1956  0.0600
30477W        W46738   7.195  15.056   4.702 -0.2280 -0.1599 -0.3374
30478W        W46739   6.681   1.473  14.014 -0.0379  0.2349 -0.1257
30479W        W46740   1.765   3.941  13.520 -0.2986  0.1538 -0.1754
30480W        W46741   3.570  18.076   1.431  0.0977 -0.1755 -0.2855
30481W        W46742   2.372  17.348   5.213 -0.1504  0.0844  0.1791
30482W        W46743   8.503   9.246  12.184  0.2039 -0.2081  0.1124
30483W        W46744   7.131   1.425  14.351  0.1030  0.0315  0.3654
30484W        W46745  11.922  10.486  15.048  0.0508 -0.0996 -0.3999
30485W        W46746  10.610   7.560   3.410 -0.1856 -0.0609  0.3777
30486W        W46747  10.703  16.525   3.642  0.3109 -0.3797  0.1100
30487W        W46748   6.056   7.433   3.323 -0.0912 -0.0214 -0.0150
30488W        W46749  11.366  15.364   3.555 -0.0852 -0.1690 -0.0367
30489W        W46750   8.819  14.546   2.502  0.3806  0.0840  0.4492
30490W        W46751  13.137  11.965   0.841 -0.2331 -0.1606  0.0766
30491W        W46752  10.697   4.224   3.387 -0.0981 -0.0154  0.0669
30492W        W46753   5.282   3.438  11.837 -0.0465 -0.2607  0.3241
30493W        W46754   7.179   6.818   1.455 -0.2494  0.1060 -0.3009
30494W        W46755  16.042  11.365  15.596  0.0829 -0.1366  0.0745
30495W        W46756   1.221   2.926   1.782  0.2417 -0.0109  0.1461
30496W        W46757   9.346  13.157   0.873 -0.0651  0.5192 -0.0398
30497W        W46758  11.000  16.910  13.029 -0.0886 -0.2307  0.1190
30498W        W46759   4.685   1.351  15.038  0.1033 -0.0366  0.1517
30499W        W46760   0.280   7.194   2.413 -0.0937 -0.1416  0.2412
30500W        W46761   3.919   8.626  14.983  0.0052 -0.0836 -0.1159
30501W        W46762   7.639  17.866   5.407  0.1490 -0.1592  0.1311
30502W        W46763  13.373  13.339   3.939 -0.0381 -0.1760 -0.2294
30503W        W46764  14.725   9.733   4.361  0.0746  0.2791  0.1652
30504W        W46765   8.376   4.078  11.783 -0.1862  0.3409  0.2084
30505W        W46766  16.739   8.107   2.110  0.0344  0.0739 -0.2909
30506W        W46767  12.177   2.372   0.842 -0.1249  0.1305 -0.0639
30507W        W46768  15.292  15.631   2.931  0.0519  0.3099 -0.2396
30508W        W46769   3.043   2.504   3.785  0.2663 -0.1098  0.2117
30509W        W46770  16.652  13.441  11.343  0.2303  0.3286 -0.1572
30510W        W46771   9.179   2.187   3.262 -0.3153  0.1058 -0.0422
30511W        W46772  15.752   9.003  12.357 -0.0723  0.3077 -0.0947
30512W        W46773   8.133   6.533  13.873  0.0566  0.0339 -0.3226
30513W        W46774   1.000  17.316   3.463  0.2001 -0.1992 -0.0525
30514W        W46775  12.397  17.728   0.535 -0.0647  0.1257 -0.1242
30515W        W46776   5.201   2.371  16.016 -0.0932 -0.1137 -0.1206
30516W        W46777   1.148  10.504  12.811 -0.0118 -0.0405 -0.2747
30517W        W46778   1.390   9.277  13.208  0.1772 -0.3888  0.0614
30518W        W46779   8.394   3.486   0.877  0.0414  0.0551 -0.2983
30519W        W46780  16.118   6.902   0.803  0.4071  0.3113  0.1396
30520W        W46781   4.868   9.570   4.368 -0.0072 -0.4274 -0.2871
30521W        W46782  14.646   4.824   1.139 -0.0116  0.1344 -0.1659
30522W        W46783   8.040   6.787  14.814  0.0390 -0.2339  0.2611
30523W        W46784   2.420   3.227   3.845  0.0989  0.0897  0.2582
30524W        W46785   5.481   5.514   1.622  0.1909  0.0101  0.0578
30525W        W46786   2.166  12.541  11.184 -0.1475  0.1656  0.1848
30526W        W46787   7.696   2.284   0.102  0.0714 -0.0391 -0.1489
30527W        W46788   8.287   7.251  13.299 -0.1397 -0.0269 -0.0552
30528W        W46789   1.981   8.610  12.724  0.3481 -0.0547 -0.1208
30529W        W46790   3.134   4.969   0.077  0.0708  0.4245 -0.1723
30530W        W46791   6.579   7.038   6.161 -0.1362  0.0583  0.0187
30531W        W46792  11.281  11.991  15.557  0.0326 -0.4213  0.0632
30532W        W46793   0.805   1.293  12.477 -0.2256 -0.0437  0.1201
30533W        W46794   7.810   0.670   1.096  0.0031  0.0935  0.0334
30534W        W46795  14.272   4.868   3.206 -0.0237  0.1281 -0.0280
30535W        W46796   0.152  15.800   2.178  0.2559 -0.0292 -0.1595
30536W        W46797   9.592   0.056   0.948  0.3333  0.0578 -0.0839
30537W        W46798  13.539   6.974   2.452  0.2537  0.2437  0.0918
30538W        W46799   0.615  16.386   4.848 -0.1550  0.0028 -0.2665
30539W        W46800  10.469   2.516  13.914 -0.0396  0.2262 -0.2429
30540W        W46801   9.202  15.033   5.434 -0.1790  0.0160  0.0744
30541W        W46802  12.039   2.288  14.527 -0.1731 -0.3919  0.1911
30542W        W46803  10.746  11.728  13.926 -0.1830 -0.0034 -0.0477
30543W        W46804   8.039   6.030   0.802 -0.2059 -0.2472 -0.0463
30544W        W46805   8.598  11.155   3.488 -0.1191 -0.0174  0.1122
30545W        W46806  12.095   3.501  11.812 -0.4132  0.1924 -0.0977
30546W        W46807   7.368  13.810   3.956  0.0923  0.0928 -0.0773
30547W        W46808   0.320   7.018   1.229  0.5245 -0.3411  0.3167
30548W        W46809   2.298  15.830   1.899 -0.0057 -0.3366 -0.0172
30549W        W46810   7.628  15.030   4.943 -0.0227  0.1315 -0.0424
30550W        W46811  18.025  12.541  12.884 -0.1635  0.0394 -0.1241
30551W        W46812  10.421   3.696   2.448 -0.0584 -0.3341  0.0803
30552W        W46813  10.286   1.265  16.435 -0.0430 -0.0664  0.0738
30553W        W46814  15.453   4.852   0.602  0.0030  0.2669 -0.2154
30554W        W46815   1.889   2.057  12.934 -0.1356  0.2322 -0.2360
30555W        W46816  10.253  12.092   5.095 -0.1635  0.0420 -0.3252
30556W        W46817   2.896   7.075   3.399 -0.1375 -0.1639  0.0071
30557W        W46818   1.483  16.695   5.319 -0.0308 -0.0371 -0.1249
30558W        W46819  13.583  12.966  11.799  0.2755 -0.0444 -0.3262
30559W        W46820  13.736  17.740   5.276  0.1864  0.0924  0.2141
30560W        W46821  17.341   0.658   3.315  0.1673 -0.1049  0.2613
30561W        W46822  13.801  10.429   1.772  0.0372 -0.1737  0.1638
30562W        W46823   8.809   9.218   4.338  0.1742 -0.0889 -0.3035
30563W        W46824  12.797   1.720   0.212  0.1778  0.1206 -0.0381
30564W        W46825   8.772   5.929  15.967  0.0076 -0.0742  0.3552
30565W        W46826  11.735   8.498   4.184 -0.3199 -0.2084  0.2830
30566W        W46827   1.510   2.114   1.491  0.0095  0.0879  0.0288
30567W        W46828   8.256  11.828   6.148  0.0703 -0.3063  0.3243
30568W        W46829  15.431  14.643  11.870 -0.2812 -0.5793 -0.1275
30569W        W46830   3.269   0.249  15.839 -0.1767  0.0803 -0.0310
30570W        W46831  13.468  17.551   4.926  0.2049 -0.0540 -0.1309
30571W        W46832  14.920   3.502  15.029 -0.2323  0.1298 -0.1903
30572W        W46833  12.275   8.077   2.958 -0.1170 -0.0425  0.0910
30573W        W46834   6.730   6.811  11.407 -0.2633  0.4868 -0.4162
30574W        W46835  16.005  17.496   0.390 -0.0240 -0.1461  0.3158
30575W        W46836  15.217   4.092  10.938  0.2490 -0.0801  0.2803
30576W        W46837   8.006   4.706  16.062 -0.0508 -0.0940  0.2377
30577W        W46838  17.643   3.221   2.668 -0.0967  0.0661  0.0888
30578W        W46839  14.326   8.741   0.116 -0.1881  0.1155 -0.1343
30579W        W46840  13.655   5.710   1.877  0.0600  0.2860  0.2155
30580W        W46841  15.202  13.184   1.758  0.1498  0.0755 -0.0292
30581W        W46842  13.967   2.875  10.400 -0.1186  0.0333  0.3220
30582W        W46843  13.713  10.186  12.090  0.0981 -0.2642  0.1968
30583W        W46844  14.725  10.202   4.173  0.0146 -0.0739  0.0830
30584W        W46845   1.194   0.853  12.438 -0.0518 -0.1017  0.1697
30585W        W46846  17.584  18.059   5.859  0.0158  0.2869  0.2982
30586W        W46847  16.340  11.848   0.748  0.2458  0.0360 -0.1607
30587W        W46848  13.856  16.688  14.546  0.1816 -0.0964  0.3685
30588W        W46849  12.284   5.675   2.848  0.1336  0.3888 -0.0598
30589W        W46850  18.041  16.193  11.723 -0.2829 -0.0827 -0.0564
30590W        W46851  17.243   8.616   5.560  0.1164 -0.2190  0.2618
30591W        W46852  16.573  10.479  15.268  0.0004 -0.0664  0.0758
30592W        W46853  16.847   3.928   4.338  0.0970 -0.0710  0.1873
30593W        W46854   3.610  15.829  14.882  0.1982  0.2739  0.0981
30594W        W46855   5.557   3.723   3.127  0.0514 -0.0773  0.1465
30595W        W46856   2.630  13.031  12.965  0.0452 -0.4362  0.0403
30596W        W46857   5.576   3.098   4.986 -0.0910 -0.0340 -0.3205
30597W        W46858  13.722  12.093   4.942  0.1384  0.0159  0.1143
30598W        W46859   2.115  13.958  14.803  0.1019 -0.1356 -0.1603
30599W        W46860   5.133  15.065   4.224  0.3307 -0.0518  0.0873
30600W        W46861   9.121  17.897   3.433  0.1042  0.3106  0.0289
30601W        W46862  17.775   6.644   0.490 -0.1343  0.1914  0.0523
30602W        W46863   7.660   9.304   4.055  0.1457 -0.1660 -0.3928
30603W        W46864  18.156   4.884  15.942 -0.0845  0.0277  0.1265
30604W        W46865   4.816   0.201  16.027 -0.3416 -0.0504  0.0550
30605W        W46866   6.519  14.274   5.543 -0.2194  0.0579  0.0118
30606W        W46867   1.489   5.955  16.252  0.2203  0.3346 -0.0265
30607W        W46868   4.376  13.307   3.576 -0.1938  0.0917 -0.2981
30608W        W46869  11.263  10.330   5.142 -0.3080  0.0269  0.2602
30609W        W46870  11.386   3.250   2.738  0.1468  0.1019  0.0759
30610W        W46871  11.654  16.326   1.518  0.1346 -0.0308  0.2383
30611W        W46872  16.125   7.987  13.912  0.0782  0.2526  0.1167
30612W        W46873   6.160  17.583   4.029 -0.1551  0.4552 -0.0746
30613W        W46874  17.352   6.600   3.588  0.1643 -0.2190 -0.0479
30614W        W46875   8.428   3.975  16.150 -0.1074  0.0399  0.0124
30615W        W46876  18.044  12.241  14.167  0.1725 -0.2268  0.2938
30616W        W46877   8.311   7.617   4.550 -0.0695 -0.0190  0.3573
30617W        W46878  17.531  16.692   4.741  0.0549 -0.0379  0.1817
30618W        W46879  10.461   1.910  15.552 -0.1312 -0.1114 -0.0747
30619W        W46880  15.128   6.070   2.936 -0.0884 -0.0483 -0.1119
30620W        W46881   5.861   1.896   4.024  0.3964 -0.0089 -0.0610
30621W        W46882   0.345   3.902  14.107  0.2296 -0.6522 -0.0109
30622W        W46883   8.113   7.944   2.438  0.1857 -0.1895  0.0648
30623W        W46884   8.089  15.825   1.629 -0.0778  0.0631  0.0667
30624W        W46885   2.659   7.490  12.667 -0.0077  0.1343  0.1664
30625W        W46886  16.495  12.643  16.346  0.0504 -0.1952  0.1774
30626W        W46887   5.893  14.432   2.075  0.2522  0.3753 -0.0514
30627W        W46888  10.735  13.287   2.050 -0.0799 -0.3173 -0.0195
30628W        W46889   2.682  11.000   6.010 -0.3796  0.0015  0.0968
30629W        W46890  12.051   0.486  16.545  0.0160 -0.0951  0.1117
30630W        W46891  13.171   5.490   1.944  0.1237  0.0465 -0.1930
30631W        W46892   5.649   4.068   4.441  0.1077 -0.0688 -0.0565
30632W        W46893  17.473   2.685   3.573 -0.2834 -0.0445  0.1967
30633W        W46894  10.610  16.233  11.262 -0.2027  0.1019  0.1516
30634W        W46895   2.969  13.045   5.876 -0.0638  0.0157 -0.0923
30635W        W46896   5.984   6.591  15.800 -0.0833 -0.3238  0.0441
30636W        W46897   5.108   9.896  14.556  0.1042  0.0790 -0.0848
30637W        W46898   0.780   3.739  13.479  0.0998  0.2015 -0.2038
30638W        W46899   3.764   3.270   4.295 -0.0368  0.1781 -0.1677
30639W        W46900   4.555   7.934   5.548 -0.3794  0.0793 -0.0159
30640W        W46901  12.766  11.484   2.408 -0.2299 -0.0054 -0.0277
30641W        W46902   1.797  15.474   2.892  0.0218  0.1483 -0.0841
30642W        W46903   6.434   8.277   0.864 -0.0963  0.2069 -0.3498
30643W        W46904  15.839  17.850  11.501 -0.1443  0.3841  0.4103
30644W        W46905   6.714   0.339  12.202 -0.0875 -0.0680 -0.3490
30645W        W46906  16.036   2.735  15.495 -0.0120  0.0495 -0.0948
30646W        W46907  13.824   7.909   0.024 -0.0362  0.4917  0.1701
30647W        W46908   8.095   9.352  11.758  0.1751 -0.1738  0.4243
30648W        W46909  16.767   2.119  15.918  0.0428 -0.1674 -0.0495
30649W        W46910  18.108   5.467   2.190 -0.0319  0.0272  0.2091
30650W        W46911   2.125   8.369   3.480 -0.1648 -0.0250  0.2351
30651W        W46912  14.623   6.914  13.614 -0.1811 -0.1723  0.0085
30652W        W46913   5.339   0.545  14.413 -0.0215 -0.0519 -0.0841
30653W        W46914   0.988   5.506  12.210 -0.0413 -0.0682  0.0412
30654W        W46915   7.159  15.661  12.821  0.0473  0.1203  0.1448
30655W        W46916  15.829   8.558  14.658 -0.0511 -0.2546  0.2993
30656W        W46917   4.165   3.125  15.564  0.1649 -0.0332  0.0200
30657W        W46918  13.791   1.153   3.360  0.0232  0.0106  0.1312
30658W        W46919   3.040  11.781  11.539 -0.3230  0.0383 -0.0566
30659W        W46920  14.695   3.731   5.976  0.1854  0.0684  0.1585
30660W        W46921  10.975  11.068   4.059  0.1138  0.0994 -0.2042
30661W        W46922  16.749  10.690  16.396 -0.1620  0.0259  0.0370
30662W        W46923  15.594   3.655   2.339 -0.0183  0.2566  0.0035
30663W        W46924   2.623   4.205  14.883  0.2875  0.3082 -0.0683
30664W        W46925  15.556   6.386  13.885  0.2581  0.0781 -0.1133
30665W        W46926   9.066  15.459  16.474  0.1992  0.2420  0.2669
30666W        W46927  17.180  14.769   1.738  0.1680 -0.0242  0.3170
30667W        W46928  15.346  15.557  16.535  0.0765  0.1577  0.1031
30668W        W46929   2.791   1.022   5.743  0.2197 -0.1085 -0.3270
30669W        W46930  13.652   1.497  13.748  0.2972 -0.2456 -0.2837
30670W        W46931  11.383  12.178   3.151 -0.2137 -0.1625  0.0754
30671W        W46932   8.813  16.586  15.960 -0.0583  0.1844 -0.1661
30672W        W46933   6.177  14.374   4.201  0.1701 -0.0845  0.4185
30673W        W46934   6.147   3.263   3.079  0.2546  0.1852 -0.0690
30674W        W46935  11.992   2.352  12.677  0.1584  0.2705 -0.4471
30675W        W46936   1.852  12.092  14.269 -0.2399  0.0724 -0.0298
30676W        W46937  11.211   7.527   2.125  0.2585  0.0045 -0.2683
30677W        W46938  14.672  16.238   0.716 -0.1536 -0.0831  0.3998
30678W        W46939  12.969   6.496  16.180  0.0237 -0.0233 -0.1711
30679W        W46940   2.912   9.567  14.183 -0.0457 -0.1121 -0.0575
30680W        W46941  10.506   2.935  16.016 -0.0782 -0.3488 -0.2049
30681W        W46942  10.535   6.892   2.083  0.0979 -0.1113  0.0153
30682W        W46943   2.834  10.383  12.846  0.0180 -0.0734 -0.1485
30683W        W46944   0.206   9.081   2.774 -0.0569  0.0874  0.0180
30684W        W46945  11.062  13.299  11.587  0.1410 -0.1431 -0.1123
30685W        W46946  17.723  14.222  13.921 -0.1462  0.2550 -0.0380
30686W        W46947   1.297  11.881  15.172 -0.0325 -0.0955  0.0918
30687W        W46948   0.511   3.327   0.209  0.0641 -0.1641 -0.1053
30688W        W46949  12.013  16.711   1.095  0.2850  0.0312 -0.1193
30689W        W46950  13.076   3.770  12.466 -0.4907  0.0438  0.0205
30690W        W46951   4.197  14.037  13.267  0.0338  0.5766  0.0317
30691W        W46952   9.286   9.264   3.597 -0.0582  0.1151  0.2758
30692W        W46953  13.074   9.696  13.720 -0.1330 -0.0584 -0.0664
30693W        W46954   2.171   2.655   5.805  0.1219 -0.0338  0.2135
30694W        W46955  10.172  17.593  15.294 -0.0372  0.1944  0.0455
30695W        W46956   1.083   2.305  12.534 -0.0820 -0.2297  0.0480
30696W        W46957  16.382  12.982  11.204  0.2166  0.1549 -0.2972
30697W        W46958  14.368   2.568  13.658 -0.3231 -0.0301 -0.1405
30698W        W46959  11.520   0.855  11.986  0.0235 -0.3176  0.1559
30699W        W46960   6.868   9.305   3.685 -0.0676 -0.0421 -0.1149
30700W        W46961   7.432   5.030   2.002  0.2446  0.0720  0.1549
30701W        W46962   7.280   6.343  11.421  0.2297 -0.1314 -0.0933
30702W        W46963  12.191  12.658   1.577  0.0144  0.0512 -0.0824
30703W        W46964  11.487   4.124   4.662  0.2136 -0.0827 -0.2399
30704W        W46965   4.349  10.335  12.435  0.0065  0.1293 -0.0198
30705W        W46966  14.434  17.053  13.417 -0.0837 -0.0601  0.0919
30706W        W46967   0.726  13.496   0.558 -0.0993  0.1598 -0.2489
30707W        W46968  17.769   4.053  16.647  0.0403 -0.0390  0.1801
30708W        W46969  13.771   4.285  13.846 -0.0943  0.2640  0.0145
30709W        W46970  16.679   3.661   2.119 -0.2098  0.2610  0.3394
30710W        W46971   0.698   5.138   4.854 -0.1660 -0.0315 -0.0014
30711W        W46972   6.466   3.021   5.453  0.1413  0.0835 -0.0565
30712W        W46973  16.089   9.680  15.510 -0.2963  0.0590  0.0585
30713W        W46974  14.068   6.327  11.722 -0.0206 -0.1508  0.0930
30714W        W46975   8.604  14.866  14.912 -0.0748  0.3436 -0.2807
30715W        W46976   0.754  16.008   2.838  0.0075  0.0094  0.0543
30716W        W46977  13.612   0.700  11.666 -0.2672  0.0131 -0.2698
30717W        W46978   3.036  15.864   2.569  0.0864  0.2353 -0.0126
30718W        W46979   7.767   0.834   6.118  0.1120 -0.0524  0.0012
30719W        W46980  14.699  12.786  11.853  0.2079 -0.4660 -0.0852
30720W        W46981   4.231   1.231   1.327 -0.0019  0.3491  0.0755
30721W        W46982   5.696  16.202   4.404 -0.3394 -0.1550 -0.1888
30722W        W46983  15.952   9.890   2.239  0.2752 -0.3324  0.0695
30723W        W46984  13.696   6.052   2.649  0.2675 -0.1566 -0.0694
30724W        W46985  15.204   3.632   4.900  0.2720 -0.1393  0.0874
30725W        W46986   1.212   9.500   3.746  0.0295  0.1378 -0.2575
30726W        W46987   1.745  15.301  13.070 -0.0529  0.2011  0.0916
30727W        W46988   6.472  12.160   2.662 -0.0132 -0.5489 -0.1138
30728W        W46989   0.941  10.139  11.317 -0.1689 -0.1959 -0.2996
30729W        W46990   2.424   0.048   0.943  0.1890 -0.0740 -0.2854
30730W        W46991   9.033  12.344   4.086  0.2843  0.1838  0.1273
30731W        W46992   8.496  10.628  11.385  0.2588  0.0417 -0.0024
30732W        W46993  14.177   5.112   0.140 -0.3280  0.1892 -0.1088
30733W        W46994  12.509  15.705   0.147 -0.1714  0.0882  0.0381
30734W        W46995   4.394   3.651  14.846  0.3484  0.1559  0.0097
30735W        W46996   0.117  14.768   4.369  0.2606 -0.2257  0.3419
30736W        W46997   2.046  17.735  14.841  0.1102 -0.2449  0.2133
30737W        W46998   2.007  17.437  15.313 -0.3268 -0.1103 -0.2839
30738W        W46999  15.553   0.215  13.339 -0.1344 -0.1481  0.1558
30739W        W47000  11.690  11.771  13.558 -0.2232 -0.0614 -0.3041
30740W        W47001   5.658   9.462  15.066  0.3491 -0.0592  0.0818
30741W        W47002   2.906   8.648   3.301 -0.2550 -0.1625  0.0043
30742W        W47003   2.457   9.108  12.282  0.4652 -0.0482 -0.0744
30743W        W47004   8.490   2.653  12.076  0.1202  0.0140 -0.3287
30744W        W47005   1.738   2.788   2.091  0.2663  0.1188 -0.1637
30745W        W47006  16.908   6.752   3.452 -0.3390 -0.2085 -0.2904
30746W        W47007  12.789   6.003   4.140  0.0529 -0.0229 -0.0550
30747W        W47008   0.476  15.271   0.911 -0.0056 -0.1634 -0.1969
30748W        W47009  11.200   4.609   5.128 -0.0285  0.1868 -0.0843
30749W        W47010  14.424   1.266  11.574 -0.0561  0.0877  0.2497
30750W        W47011  10.515   4.555  12.781  0.0033  0.0021 -0.3371
30751W        W47012   9.219   8.983  14.446 -0.1524  0.2464 -0.0286
30752W        W47013  11.265   7.648  13.368 -0.0382 -0.2519  0.1216
30753W        W47014   3.099  15.713   6.646  0.1667 -0.1023  0.0124
30754W        W47015  16.650  15.879   5.608 -0.1511  0.0091  0.2643
30755W        W47016   0.877   4.296   5.722 -0.1437 -0.0690  0.0456
30756W        W47017  10.119  13.250   4.243  0.0923  0.3742 -0.1571
30757W        W47018  10.966  17.219  10.893 -0.0255 -0.1283 -0.0281
30758W        W47019   7.013  14.580  15.145 -0.2150  0.2292 -0.0317
30759W        W47020   0.420  16.151  16.280 -0.0219 -0.0550  0.0549
30760W        W47021   1.897  13.353   4.723 -0.0050 -0.0577 -0.1638
30761W        W47022   8.175   1.600   4.528  0.1568  0.2247 -0.1424
30762W        W47023   9.370   5.869   6.374  0.0173  0.1028  0.0159
30763W        W47024  16.892   3.889  13.822  0.1039  0.0001  0.4218
30764W        W47025  12.481   3.610  13.383 -0.0081  0.3815 -0.3269
30765W        W47026   6.496  16.567   2.329  0.1076  0.1185  0.1848
30766W        W47027   7.779   4.174   3.990  0.2488 -0.0147 -0.4776
30767W        W47028   9.543   0.630  12.804 -0.0573  0.3266 -0.3302
30768W        W47029  10.809   4.491   1.766  0.0818 -0.0880 -0.1749
30769W        W47030  18.157   1.828   4.935  0.0012 -0.0512 -0.0315
30770W        W47031  17.311   3.541  13.770 -0.2367  0.2303 -0.1114
30771W        W47032  10.856   4.280  12.556  0.1531  0.1220  0.0433
30772W        W47033  10.302   1.619   1.149 -0.3075  0.3777 -0.2294
30773W        W47034   1.484   4.946  16.103 -0.1408 -0.0336  0.1256
30774W        W47035   8.509   5.524  11.721 -0.2222 -0.2324 -0.0062
30775W        W47036  14.749   4.166   2.154  0.2976  0.0922  0.1497
30776W        W47037   8.884  14.042   3.696  0.0849 -0.0069  0.3745
30777W        W47038   8.785  17.373  14.682  0.0139 -0.0326 -0.0711
30778W        W47039   7.627   0.975   5.222  0.0940 -0.0922  0.1377
30779W        W47040  16.242   5.622   1.146  0.0681  0.1878  0.0370
30780W        W47041   1.998   4.340   1.261  0.3125  0.0928 -0.0710
30781W        W47042   9.635   5.465   4.323 -0.1821 -0.0578  0.1878
30782W        W47043  11.270   1.405  15.722  0.2966 -0.0039  0.0687
30783W        W47044  14.253   6.444   0.350 -0.0165  0.1316  0.0644
30784W        W47045   1.939   9.549  12.590 -0.2219 -0.0814  0.3289
30785W        W47046   2.533   5.569  12.179 -0.0521  0.2914  0.0084
30786W        W47047   6.738   6.275  13.762 -0.1089  0.2296  0.1136
30787W        W47048  16.759   4.333   1.595 -0.0509 -0.0951  0.1599
30788W        W47049  11.323   8.070  14.387  0.2682  0.1224 -0.0186
30789W        W47050   0.211  16.618   0.592  0.2479  0.0050 -0.0352
30790W        W47051   5.185  11.963   4.649  0.1408  0.2110  0.1282
30791W        W47052  14.064   5.368  12.395 -0.2183  0.0824  0.1466
30792W        W47053  10.565   6.553  15.567 -0.2593 -0.0573  0.1203
30793W        W47054   0.317   6.789   5.719 -0.0199 -0.0140 -0.0156
30794W        W47055  15.322  14.906   5.507 -0.1102 -0.0473 -0.3610
30795W        W47056  13.847  12.420  13.035  0.2273  0.0711 -0.4028
30796W        W47057   5.250   1.075  14.408  0.0837  0.1343 -0.0939
30797W        W47058   8.427   6.496   0.739 -0.1626 -0.0274  0.2379
30798W        W47059   0.429   5.275  15.921 -0.3027 -0.0780 -0.0817
30799W        W47060  13.420  12.003   1.274  0.0195 -0.0870 -0.1452
30800W        W47061  13.601   5.521  15.071 -0.0122  0.2721  0.4703
30801W        W47062   9.315  16.396  13.548 -0.1883 -0.0686  0.1306
30802W        W47063  12.593  10.110  15.451 -0.1222 -0.0893 -0.1275
30803W        W47064   4.776   7.632   2.974 -0.1021  0.1371  0.1357
30804W        W47065  11.740   5.587  15.784  0.1622  0.0976  0.2996
30805W        W47066   2.853   4.409  13.944  0.1446 -0.1006 -0.1924
30806W        W47067  17.833  10.634  12.116 -0.0123 -0.2599 -0.0049
30807W        W47068   6.224  15.827  11.817  0.0134 -0.1079  0.0875
30808W        W47069   8.555  16.449  16.412  0.3399 -0.4452  0.0313
30809W        W47070  11.184  12.569  13.710 -0.3406 -0.1285  0.1157
30810W        W47071   5.626   3.531  14.398  0.1501 -0.1787  0.1596
30811W        W47072  10.328  15.430  12.993  0.0436 -0.0357 -0.0461
30812W        W47073   6.023  16.341   3.375 -0.1441 -0.0926  0.1965
30813W        W47074   7.163  12.351   0.796  0.0659  0.0462 -0.2948
30814W        W47075  13.908   8.674  12.640  0.0513  0.0759 -0.1239
30815W        W47076   4.921   9.962   1.212  0.1529 -0.0755  0.1093
30816W        W47077   1.618   1.255  12.560  0.0565  0.2791 -0.0740
30817W        W47078   5.794  13.560   1.631 -0.3388  0.1483  0.0034
30818W        W47079  15.606  15.203   4.364 -0.3144 -0.2857 -0.2902
30819W        W47080  13.763   6.606   0.532  0.0046  0.2953 -0.1069
30820W        W47081  14.719   8.880  11.601  0.1578 -0.1350 -0.0566
30821W        W47082  10.085   3.450  14.946  0.2854  0.0450 -0.1166
30822W        W47083   1.977   3.643   3.474 -0.0059 -0.1926 -0.0461
30823W        W47084   5.237  12.634  15.625  0.0904  0.0095 -0.2169
30824W        W47085  10.842   9.924  13.579  0.3886  0.3242  0.0980
30825W        W47086   3.072   8.907   5.048 -0.0620 -0.1060 -0.0305
30826W        W47087   5.089  10.125   3.792  0.0371 -0.1252 -0.0650
30827W        W47088  15.276   3.924  11.727  0.0832 -0.0414  0.1848
30828W        W47089   1.887   6.226   5.729 -0.0574  0.0477  0.2786
30829W        W47090   5.696   2.449   2.856 -0.0083  0.0425  0.1134
30830W        W47091   2.306   9.709  14.934  0.0253 -0.1704  0.0624
30831W        W47092  14.511   3.355  16.231  0.1261 -0.1492  0.0890
30832W        W47093   1.912  17.731   5.941  0.0164 -0.1085  0.0242
30833W        W47094   2.265  10.231  13.617 -0.0442  0.0203  0.2321
30834W        W47095  12.678  13.821   0.322 -0.0268  0.4453 -0.1474
30835W        W47096  12.684  13.481  12.077  0.2851 -0.3516 -0.3700
30836W        W47097   6.352  10.822   3.119 -0.0498  0.2775  0.3029
30837W        W47098   1.178  11.975  16.425  0.0637  0.0597  0.2082
30838W        W47099   7.301  10.615   0.230 -0.0291 -0.1606  0.1802
30839W        W47100  10.197   1.962   3.756  0.0239  0.2717 -0.2339
30840W        W47101   0.393  13.689  14.346 -0.2116 -0.0041 -0.3108
30841W        W47102  14.192  17.258   3.362  0.0966  0.0789  0.2010
30842W        W47103   3.513  14.158   1.409 -0.0224  0.2582  0.1433
30843W        W47104   2.564  12.985   3.076 -0.0355  0.1770  0.1288
30844W        W47105   8.467   1.245   1.461  0.1517  0.0094 -0.3253
30845W        W47106   9.519  14.024   5.733 -0.2690 -0.0155  0.1694
30846W        W47107  15.327   6.887  13.089 -0.3036  0.2929  0.0274
30847W        W47108  13.997  11.302  14.661 -0.2555  0.2847 -0.1724
30848W        W47109   8.836   0.669   2.596  0.0104 -0.1670 -0.1724
30849W        W47110   2.870   7.380  13.142 -0.0483 -0.0452  0.1499
30850W        W47111   1.507   6.939  14.162  0.0310  0.2330  0.2405
30851W        W47112  15.706  14.483  12.530  0.1010 -0.0637  0.3724
30852W        W47113  12.173   5.271  16.234 -0.0624 -0.1996 -0.1464
30853W        W47114  14.102   4.663  14.179 -0.1676 -0.3181 -0.1144
30854W        W47115   7.822  15.905   6.166 -0.1858  0.0208 -0.0426
30855W        W47116   4.582   2.701   2.243  0.1199  0.0730 -0.0911
30856W        W47117   4.269   5.164   2.269 -0.3246 -0.0194  0.1427
30857W        W47118   6.528   3.010   4.067 -0.2592  0.1572 -0.0040
30858W        W47119  15.126   3.717  14.088  0.0283  0.0197 -0.2647
30859W        W47120  13.322   7.717   1.566 -0.1164  0.2219  0.4611
30860W        W47121   7.458   2.056   5.598 -0.0140  0.0089  0.0233
30861W        W47122   5.809   5.001   0.362  0.1289 -0.1055 -0.1276
30862W        W47123   2.791   4.362   5.291  0.0694 -0.0828  0.0856
30863W        W47124  17.979   7.312   3.469  0.2136 -0.1828  0.1038
30864W        W47125   4.141  17.388  13.398  0.2812 -0.3725  0.1585
30865W        W47126  13.020  14.098   3.233 -0.2119  0.2123 -0.3313
30866W        W47127  16.333   8.352  12.002 -0.2331 -0.2878  0.2287
30867W        W47128   2.737   1.126   2.544  0.0737  0.1177 -0.1529
30868W        W47129   5.271   0.815  14.008  0.0364  0.3493 -0.0231
30869W        W47130  15.239  14.343  12.257  0.0822  0.1622  0.2821
30870W        W47131   1.829   9.882  15.821 -0.2793 -0.0430  0.1188
30871W        W47132  15.713   2.426   3.915  0.2620 -0.2457  0.1817
30872W        W47133  12.035   1.968   0.529 -0.3678 -0.1589  0.1444
30873W        W47134   7.297  11.476   4.506  0.0300 -0.0317 -0.0390
30874W        W47135  17.833   6.070  13.770  0.1232  0.0918  0.0971
30875W        W47136   9.171   3.176   4.356 -0.3105 -0.0288 -0.0157
30876W        W47137   6.789  14.356   3.087  0.0547 -0.0682 -0.1912
30877W        W47138  13.141   1.399   4.877 -0.1172 -0.0687  0.1697
30878W        W47139  16.195   2.737  15.963 -0.3092 -0.1537 -0.0887
30879W        W47140  15.904   2.429   0.723  0.1983  0.4088 -0.0944
30880W        W47141  10.514   4.457  10.773 -0.2673  0.2899  0.1518
30881W        W47142   5.572   7.688   3.261  0.1555  0.2478 -0.1122
30882W        W47143  17.984   0.105  15.762 -0.0897  0.0088  0.1256
30883W        W47144  10.506  10.126   1.918 -0.2435 -0.1869  0.0115
30884W        W47145   8.682   1.066   0.119 -0.1331 -0.0676 -0.1055
30885W        W47146   4.870   8.583   4.446 -0.1362 -0.2205  0.1694
30886W        W47147  11.526   6.627  11.314 -0.0721 -0.2312  0.2274
30887W        W47148  18.189   1.405   2.140  0.1976  0.1221  0.3739
30888W        W47149   6.868   1.119  12.568 -0.0127 -0.0523  0.0968
30889W        W47150  10.116   1.032   4.155  0.2136  0.0893  0.3891
30890W        W47151  15.036  10.743   1.541 -0.2020 -0.0093  0.0599
30891W        W47152   4.161   8.335  13.924 -0.0345  0.1087  0.2067
30892W        W47153   8.661  17.430  12.828  0.1986 -0.1921 -0.4007
30893W        W47154  12.356  14.868   0.188 -0.0021 -0.0405  0.0509
30894W        W47155  10.041   3.172  11.894  0.4276 -0.2693  0.3684
30895W        W47156   8.916   1.578  13.110 -0.2315  0.0804  0.1278
30896W        W47157   0.956  10.194   0.706  0.0156  0.1076  0.2555
30897W        W47158  12.305   4.342  16.308  0.0832 -0.1696 -0.0330
30898W        W47159   0.746  14.009   4.327 -0.5356  0.0741  0.1378
30899W        W47160   5.847   5.650   1.141  0.1681 -0.2986  0.1856
30900W        W47161  17.847  15.567   6.679 -0.3255  0.0836  0.1299
30901W        W47162  12.013  15.954   2.404  0.2599  0.3723  0.1365
30902W        W47163   0.683  12.722   3.774 -0.0056  0.1547 -0.0566
30903W        W47164   1.652  16.315  15.805  0.1109  0.0391 -0.0626
30904W        W47165   8.637   2.513   5.726 -0.0765 -0.0772 -0.1409
30905W        W47166   8.492  14.875   3.552  0.2332 -0.0663  0.0235
30906W        W47167   9.392  17.184  13.704  0.1096 -0.3105  0.0810
30907W        W47168   8.258   2.733  15.186  0.0949  0.1945 -0.0044
30908W        W47169   5.901  14.326  16.506 -0.0289  0.1736  0.0834
30909W        W47170   8.366  14.590   3.951  0.2366 -0.3350 -0.0322
30910W        W47171   0.671   0.074   2.574 -0.2399  0.0534  0.1249
30911W        W47172   0.699   1.057  13.566  0.1349 -0.2078 -0.1378
30912W        W47173   5.730   6.241  11.718 -0.3559 -0.1255  0.0355
30913W        W47174  13.847  10.700  12.341  0.2398  0.2998 -0.2796
30914W        W47175  13.962   5.665   0.354  0.6719  0.0081  0.2657
30915W        W47176  11.165  15.082   1.545  0.2083 -0.0699  0.1032
30916W        W47177  16.943  16.737   2.123  0.0157 -0.0712 -0.2651
30917W        W47178  17.434   8.646  16.130 -0.0091  0.2736 -0.1800
30918W        W47179  10.302  15.505   2.190  0.0147  0.1279  0.3804
30919W        W47180  12.413   2.444  14.880 -0.0353  0.1137  0.2054
30920W        W47181  12.998  14.922   2.146 -0.2512  0.2401 -0.1312
30921W        W47182   2.804   5.840   1.721 -0.0470  0.0038 -0.0378
30922W        W47183   8.719   1.586  11.696 -0.0678 -0.1615  0.1071
30923W        W47184  10.720  18.009  11.721  0.4671  0.1698  0.0632
30924W        W47185  17.764   6.420   1.450  0.2169  0.3125  0.0582
30925W        W47186   4.662  11.533  13.707 -0.0385  0.2565 -0.2270
30926W        W47187  15.371   1.544   5.236 -0.1990  0.1388 -0.0430
30927W        W47188  13.475   9.848  16.471  0.2204  0.2278  0.0299
30928W        W47189   9.759  13.545   3.018  0.1384 -0.2575  0.2105
30929W        W47190  13.082  11.602   3.472  0.2012 -0.0051 -0.0526
30930W        W47191  16.766  17.920   1.262 -0.1616  0.0848  0.2445
30931W        W47192   8.317  17.664  16.571 -0.2623 -0.0694  0.0785
30932W        W47193   1.176  16.527   0.698  0.2380  0.1988 -0.2551
30933W        W47194  13.143   9.633   0.117  0.0142 -0.5311 -0.0090
30934W        W47195  11.229  11.389   2.259  0.2699  0.0119 -0.1170
30935W        W47196   0.562  14.308   4.836 -0.2145  0.2245  0.0459
30936W        W47197   4.570   3.985  14.548 -0.4283 -0.0092  0.3063
30937W        W47198  14.819   1.597   0.266  0.3167 -0.2065 -0.0736
30938W        W47199  17.549  17.758   1.692 -0.1342 -0.1410 -0.1223
30939W        W47200   1.306   7.065   5.848  0.0429 -0.1963  0.1767
30940W        W47201   6.400  11.816   0.136 -0.2839 -0.2205  0.0334
30941W        W47202   3.462   2.296   3.455  0.3054 -0.1593  0.1768
30942W        W47203   6.969   6.609  13.450  0.0731  0.0412 -0.0022
30943W        W47204   7.481  13.841  13.240 -0.1077 -0.0649 -0.1060
30944W        W47205   6.581  17.707  13.475 -0.0294 -0.1324  0.1090
30945W        W47206  15.816  15.748   2.798 -0.0178  0.0435  0.0029
30946W        W47207   7.158   6.729   0.837  0.1076  0.0255 -0.4538
30947W        W47208  13.870   3.160   2.838 -0.0318  0.2470  0.1031
30948W        W47209  12.543   8.666   3.476 -0.0402 -0.1182 -0.0119
30949W        W47210  16.212   8.774   1.238  0.0551 -0.0356 -0.0733
30950W        W47211   9.506   1.704  13.758 -0.2645 -0.0222  0.1095
30951W        W47212   5.514   4.902   1.347 -0.0400  0.0861 -0.1912
30952W        W47213   8.549   5.618  13.952 -0.0248 -0.0333 -0.1583
30953W        W47214   2.779   9.690   3.481  0.0788 -0.0422 -0.0435
30954W        W47215  11.600  10.456  14.678 -0.0463  0.2079  0.1323
30955W        W47216  10.892  10.431  12.696 -0.2086  0.0467  0.1344
30956W        W47217   3.387   0.815   1.503 -0.1384  0.1329  0.2565
30957W        W47218  17.904  13.039  14.571  0.3189 -0.0913  0.0963
30958W        W47219  17.601  16.618  11.931 -0.3852 -0.2384 -0.0480
30959W        W47220  13.546   6.055  13.283 -0.0003 -0.0234 -0.2451
30960W        W47221   9.528  15.397  16.182  0.1262  0.1170 -0.0034
30961W        W47222   9.948   1.351   0.901  0.1051  0.3257 -0.0974
30962W        W47223   9.588   3.422  11.708 -0.3425 -0.2121  0.1619
30963W        W47224  11.768  13.206   1.095  0.1451  0.0208  0.1244
30964W        W47225  13.800   3.195   0.555  0.1142 -0.0526  0.0803
30965W        W47226  13.065   7.773   4.538 -0.3987 -0.0054 -0.0294
30966W        W47227  16.402   7.957  15.628 -0.1380  0.1467 -0.3416
30967W        W47228  17.920   4.936  15.461  0.0755 -0.1387 -0.3355
30968W        W47229  13.914   2.536   1.572  0.2461 -0.2279  0.1048
30969W        W47230   5.164  11.571   5.527  0.0835  0.0261  0.1143
30970W        W47231   2.539  17.675  15.394  0.1958  0.0841  0.1688
30971W        W47232  10.271   8.636  12.526 -0.1530  0.2074  0.1377
30972W        W47233  11.924   1.900   3.710  0.0747 -0.1470 -0.0690
30973W        W47234   2.896   2.561  15.629 -0.0449  0.0847  0.0629
30974W        W47235   9.930   5.953   0.197 -0.0779 -0.1669 -0.0854
30975W        W47236   1.412   3.074   5.607 -0.1151  0.1423 -0.3684
30976W        W47237  14.418  11.652  13.377 -0.0175 -0.0337 -0.1161
30977W        W47238   8.783  17.072   2.788 -0.2930  0.1227  0.0176
30978W        W47239   1.554   1.822   5.180 -0.2502  0.5021  0.2078
30979W        W47240   8.281   5.935   4.903  0.0736  0.1157  0.0538
30980W        W47241  16.267   1.809   4.923  0.3377  0.1428  0.0849
30981W        W47242   6.969  16.524   3.032  0.0131 -0.0533  0.0020
30982W        W47243   7.946  14.736   2.727  0.1949 -0.3501  0.0573
30983W        W47244   0.851   0.990  12.952  0.0015  0.0447 -0.1891
30984W        W47245  12.046  10.899   0.678 -0.2508  0.1290 -0.0847
30985W        W47246   7.265  17.975   0.964  0.1844 -0.3387  0.1163
30986W        W47247   8.352   9.730  15.872 -0.0910 -0.0871 -0.0031
30987W        W47248   7.323   5.834  15.704 -0.0132  0.1188  0.0577
30988W        W47249  14.007   6.730   6.033 -0.2083 -0.2886 -0.1401
30989W        W47250   4.175  12.469   2.400 -0.0759  0.0175  0.0679
30990W        W47251   9.456  17.188   5.220  0.1737  0.0331  0.2431
30991W        W47252  18.070   2.530   4.212  0.3302  0.1593 -0.1796
30992W        W47253   2.672   6.288  12.123  0.3894 -0.2114 -0.0967
30993W        W47254  17.757  15.394  13.308  0.2296 -0.1670  0.1068
30994W        W47255  11.393   6.883  12.293  0.0078  0.1980  0.0583
30995W        W47256   3.831  12.395   1.449 -0.3265 -0.0810  0.0263
30996W        W47257  13.074   8.357  14.447  0.0560  0.0108  0.1861
30997W        W47258  11.983   0.956   0.684  0.3859  0.4079 -0.3048
30998W        W47259   3.263   8.060   2.048 -0.0635 -0.2086 -0.1133
30999W        W47260  14.737   6.592  14.827  0.1340  0.1105  0.2298
31000W        W47261   2.050  14.937  13.139  0.0267 -0.3775 -0.0361
31001W        W47262  10.421  18.056   0.753 -0.2012  0.0603  0.1666
31002W        W47263   4.169   8.971  13.541  0.1535 -0.1474  0.1248
31003W        W47264  12.891   0.389  14.178 -0.0263  0.0191  0.0579
31004W        W47265  10.701  14.782  13.583 -0.0261 -0.2425 -0.0278
31005W        W47266  12.101   5.102  11.119 -0.0303 -0.0503  0.2522
31006W        W47267  11.998   0.863  12.291 -0.0870 -0.2234 -0.3052
31007W        W47268  11.170   0.253  10.337 -0.0284  0.1409  0.2213
31008W        W47269   5.051   7.277   3.841  0.0894  0.1274 -0.1818
31009W        W47270   5.796   1.826  12.210  0.3638 -0.1920 -0.3032
31010W        W47271   6.089   1.517  14.881  0.2067  0.1097 -0.2033
31011W        W47272   4.147   4.522   4.347  0.3801  0.0257  0.0211
31012W        W47273   5.484   3.379   2.237 -0.0104 -0.0556  0.0209
31013W        W47274   9.387  17.327  15.404  0.0281  0.0635  0.0547
31014W        W47275   0.983   7.044   2.000  0.1345 -0.3095 -0.4144
31015W        W47276  17.186  16.393  13.831  0.1069  0.0908  0.0307
31016W        W47277   4.968  16.173   3.482  0.1018  0.1629 -0.1643
31017W        W47278   6.120  12.050  15.511 -0.0795 -0.3597 -0.0660
31018W        W47279   6.457   6.980  12.736  0.1265  0.1362 -0.1992
31019W        W47280   1.116  17.542   1.224  0.2409  0.2987  0.3469
31020W        W47281  11.071   3.178  10.687 -0.0440  0.0017 -0.2805
31021W        W47282   9.019   5.562  13.806 -0.0281  0.3352  0.0584
31022W        W47283   2.794  10.161   3.270  0.1173 -0.1917 -0.0438
31023W        W47284  17.449   2.042   1.009  0.0414  0.0969 -0.3377
31024W        W47285  14.827  14.480  16.175  0.4168  0.2219 -0.2696
31025W        W47286   1.178  14.642  12.746 -0.1658  0.0042 -0.1473
31026W        W47287  16.737   6.232  16.178  0.0243 -0.1928 -0.3487
31027W        W47288   9.766   6.754   1.197  0.0252  0.0322 -0.0315
31028W        W47289  13.226  13.332   5.366  0.2066 -0.3114  0.0426
31029W        W47290  12.705  15.492   1.006  0.0522  0.0683  0.2339
31030W        W47291   5.131   5.345  15.987 -0.0288  0.0615  0.3536
31031W        W47292   7.520   5.347   3.172 -0.1293  0.0651 -0.0443
31032W        W47293   9.293  17.612  12.406  0.0326 -0.0046 -0.0225
31033W        W47294   7.769  15.918   1.958  0.0778  0.0301 -0.1121
31034W        W47295   2.145   5.731  15.344 -0.1336  0.0697 -0.1306
31035W        W47296   8.652  15.553  14.404 -0.0087  0.1220  0.2376
31036W        W47297  12.124   9.463  12.235 -0.0335 -0.0136  0.0810
31037W        W47298  10.827  12.363   4.434 -0.0524  0.1408  0.2585
31038W        W47299   9.096   2.459   2.829 -0.1212 -0.0245 -0.1304
31039W        W47300  16.900   9.875   3.315  0.2524 -0.0163 -0.1387
31040W        W47301  15.398  16.203   5.396 -0.1310  0.0344  0.2915
31041W        W47302   8.370  12.559   1.022 -0.1520 -0.0410  0.0693
31042W        W47303   5.094   5.561  11.584 -0.0686  0.1082 -0.1289
31043W        W47304  10.561   6.207  11.476 -0.1401  0.0372  0.3355
31044W        W47305   1.551   8.669   1.325  0.1438  0.0409 -0.2210
31045W        W47306   3.171   9.751  13.279 -0.2171 -0.2040 -0.2721
31046W        W47307  14.233   3.362   0.482  0.0062  0.4767  0.4148
31047W        W47308   1.453   8.926  15.912 -0.0316 -0.0040 -0.0878
31048W        W47309   1.668  16.506  15.288  0.1454  0.2688 -0.1184
31049W        W47310  16.999  10.254   4.742 -0.4897 -0.1834 -0.2610
31050W        W47311  14.891  16.385   4.546 -0.1738  0.3041  0.1977
31051W        W47312  17.051  10.186  12.306  0.2592  0.0495  0.2733
31052W        W47313   2.275   4.196   0.803  0.1157 -0.1377  0.3458
31053W        W47314  12.319  14.833   3.348  0.3170 -0.1640 -0.1438
31054W        W47315  12.771  17.112   5.588  0.1074 -0.1111 -0.1148
31055W        W47316  13.001  16.864   2.021 -0.1640 -0.0178 -0.1218
31056W        W47317   3.576  16.874   4.797  0.3531 -0.2542  0.2396
31057W        W47318   1.181   2.495   1.490 -0.0538  0.1031  0.1401
31058W        W47319  12.595  13.882  14.029  0.2378  0.0290  0.1924
31059W        W47320   6.614  11.903  15.407 -0.1902 -0.0467 -0.1014
31060W        W47321  17.029   4.613   1.964  0.1070  0.1316  0.3722
31061W        W47322   5.658   7.177   3.050  0.1070  0.2239  0.2513
31062W        W47323  14.675   3.133  10.895 -0.1154  0.2819 -0.0424
31063W        W47324   3.321   8.346   3.305  0.1113 -0.0574  0.0692
31064W        W47325  15.113  10.853   0.587 -0.2917 -0.1150 -0.0097
31065W        W47326   0.800  17.673   5.357 -0.2430  0.0212 -0.0079
31066W        W47327   8.774   3.794   2.814 -0.0707 -0.0308 -0.0043
31067W        W47328  11.522  13.555   0.352 -0.2509 -0.1303  0.2789
31068W        W47329  16.966   5.831   3.248  0.2012 -0.2647  0.1036
31069W        W47330   9.033   1.408   0.830 -0.1235  0.0508  0.0160
31070W        W47331  17.439  14.907  15.221 -0.0516  0.1095 -0.2209
31071W        W47332  11.892   7.885  11.291  0.1740  0.0647  0.0271
31072W        W47333   6.346  17.041   2.008 -0.0153  0.0841  0.2533
31073W        W47334  16.955   6.361   5.301 -0.3245  0.0104  0.2135
31074W        W47335  16.226   6.396  12.386  0.0748 -0.0912  0.1531
31075W        W47336  16.415   7.815   5.371 -0.1189 -0.1017  0.0892
31076W        W47337   4.264  14.537   2.107  0.2198 -0.2954 -0.0968
31077W        W47338   7.326  13.828   2.994 -0.2922  0.1855  0.0025
31078W        W47339   3.290   3.470  16.380  0.0251  0.0400  0.1748
31079W        W47340   3.107  14.238   3.850 -0.3409  0.0607  0.3537
31080W        W47341  10.541   2.717   1.561  0.1137 -0.1823 -0.0101
31081W        W47342   1.236  16.216   2.938  0.2929 -0.1256 -0.0006
31082W        W47343   1.802   5.026   1.132  0.2902 -0.0498  0.0332
31083W        W47344   8.341  11.202  16.540 -0.1885 -0.2457  0.3325
31084W        W47345   0.145  15.985   2.981 -0.0381  0.1362 -0.2047
31085W        W47346  17.743   0.630   0.676  0.1186 -0.0404  0.1006
31086W        W47347  16.808  11.867  14.160  0.0477 -0.1534  0.0103
31087W        W47348   5.252  16.634  15.504  0.0686 -0.1789  0.0286
31088W        W47349  10.515   6.616  13.469 -0.2951  0.1362 -0.3062
31089W        W47350  12.955  15.414   2.279  0.0439 -0.1654 -0.1417
31090W        W47351   7.134  12.684  12.476  0.0619 -0.1469 -0.3277
31091W        W47352  17.640  16.290  13.473  0.0666 -0.2295  0.0054
31092W        W47353   4.225   2.401   5.309 -0.0699  0.1379  0.3766
31093W        W47354   1.500   9.187   4.173  0.0311  0.1662  0.1281
31094W        W47355   8.758   1.271  12.605 -0.4036  0.0630 -0.0964
31095W        W47356  14.324  14.199   5.061  0.0180  0.0359  0.2582
31096W        W47357   4.622   3.824   3.487 -0.0490 -0.0097  0.2163
31097W        W47358   2.910   4.443   1.713  0.0621 -0.0216 -0.1113
31098W        W47359  10.071  13.455   2.651  0.0753 -0.1551 -0.1976
31099W        W47360  14.314   8.125   1.959 -0.1470 -0.4287 -0.0393
31100W        W47361   5.558   5.595   4.783 -0.2529  0.0460  0.1752
31101W        W47362   6.815   4.719  15.149 -0.3191 -0.2069  0.2446
31102W        W47363   2.653  17.335   4.825  0.2470 -0.3842  0.4234
31103W        W47364  12.266  17.668   5.412 -0.2311  0.0911  0.0238
31104W        W47365  10.294   4.101  13.592  0.0916 -0.2309  0.2658
31105W        W47366  13.168  11.918  13.164 -0.1145 -0.0417 -0.2326
31106W        W47367   4.970  15.902  12.990  0.2629 -0.1082 -0.1041
31107W        W47368   0.795   7.167   4.820  0.2121 -0.2471 -0.1569
31108W        W47369  16.093  10.882  12.389  0.2879 -0.1175 -0.1578
31109W        W47370   3.473   5.675  15.351  0.2393 -0.2064  0.2070
31110W        W47371   9.355  17.495   1.516  0.0920 -0.0737 -0.0921
31111W        W47372  17.714   9.009   1.736 -0.1669  0.3124  0.1057
31112W        W47373  13.646   2.046   2.727  0.1479  0.1644 -0.0449
31113W        W47374   1.317   2.775  12.495 -0.1241 -0.2614 -0.0431
31114W        W47375   6.526  15.692   0.470 -0.0602 -0.1130  0.2169
31115W        W47376  12.107   6.934  14.601  0.0573 -0.0338  0.0352
31116W        W47377  10.687   7.405  14.581  0.4493  0.0666  0.2307
31117W        W47378  10.666   8.247   0.927  0.1455  0.0482 -0.0446
31118W        W47379  17.329  17.053   5.063 -0.0592 -0.0393  0.0102
31119W        W47380  16.011   2.964  11.762  0.3588  0.1308 -0.2031
31120W        W47381   5.828  15.759  14.941  0.0861 -0.0492  0.0067
31121W        W47382   1.135   5.808  15.901  0.0725 -0.2356 -0.2470
31122W        W47383   8.827   0.922  15.900 -0.0954  0.2670  0.3277
31123W        W47384   2.974   2.916   4.331  0.1572 -0.0505  0.0481
31124W        W47385   3.879  13.143   5.349 -0.0369 -0.0217  0.0098
31125W        W47386   5.320  12.435  15.038  0.1325 -0.0188  0.2157
31126W        W47387  12.877   8.011  15.232 -0.1556  0.2765 -0.0543
31127W        W47388  16.204  17.015   0.593  0.1535 -0.2739  0.1739
31128W        W47389   1.587   8.209  12.003 -0.1468  0.0487 -0.2082
31129W        W47390   7.883   7.415  11.453  0.1388 -0.3302  0.1977
31130W        W47391   4.382   2.361  11.537 -0.1500  0.1905 -0.2136
31131W        W47392   2.483  13.472   4.023  0.0229 -0.2648  0.3014
31132W        W47393   5.034   7.330   4.455  0.1243 -0.1467  0.1285
31133W        W47394   9.836   7.342  11.409 -0.2105 -0.0444  0.0863
31134W        W47395  17.998   0.002   2.082 -0.0190  0.3097  0.1558
31135W        W47396   0.230   8.124  11.538  0.0416  0.2092  0.0347
31136W        W47397   6.919  11.391   3.637  0.2121 -0.1368 -0.1117
31137W        W47398   6.111   9.830   0.757 -0.0856  0.0611  0.0014
31138W        W47399   4.910  14.085   3.974 -0.0224 -0.3386  0.0024
31139W        W47400  15.814   0.061  11.816  0.2824  0.2591 -0.0039
31140W        W47401  15.155  15.775   5.072 -0.1796  0.0221  0.1195
31141W        W47402  16.013  13.272  12.664 -0.3806  0.0381  0.2243
31142W        W47403  13.561   4.436   4.728 -0.0248 -0.2106 -0.0587
31143W        W47404   0.293  11.839   4.261  0.2334 -0.5713 -0.2345
31144W        W47405   7.090  17.372   3.664 -0.2395 -0.3855  0.0638
31145W        W47406   9.437  16.151  14.070  0.0726 -0.3040  0.0016
31146W        W47407   1.076  15.906   3.329  0.1773 -0.1538  0.1325
31147W        W47408   8.919   5.118   3.765  0.1707  0.0480  0.1226
31148W        W47409   8.922   7.777   3.953 -0.2886  0.0332 -0.3452
31149W        W47410  15.319  15.607   1.791  0.0907 -0.0568  0.1288
31150W        W47411   1.559  11.075  14.740 -0.1051  0.1452  0.5042
31151W        W47412   0.112  14.433   2.722  0.1730  0.0815 -0.2310
31152W        W47413   7.855   7.604  14.131  0.2795 -0.0788 -0.1933
31153W        W47414  10.417  17.435   2.768 -0.0456 -0.3997  0.0316
31154W        W47415  11.315   6.785   3.276 -0.0182 -0.0032  0.1620
31155W        W47416   7.210   5.486  13.963 -0.0794 -0.1131 -0.2385
31156W        W47417   5.159  12.282   5.135 -0.0271  0.0202  0.1505
31157W        W47418  12.202   6.681   4.517  0.1412 -0.0865  0.0977
31158W        W47419  16.978  15.004  13.033  0.0981  0.0995 -0.0191
31159W        W47420  16.732  13.602   3.858  0.0784  0.0575 -0.3560
31160W        W47421  17.839  11.157   4.076  0.0101  0.0948 -0.0887
31161W        W47422  15.287   0.682   4.376 -0.2352 -0.0642 -0.0027
31162W        W47423   9.164   3.023  13.418  0.0516  0.3184  0.0562
31163W        W47424  12.624  13.843   5.397  0.0269 -0.0976  0.0904
31164W        W47425  14.283   3.301  15.802 -0.0067  0.1543  0.0636
31165W        W47426  16.581   3.128  13.210 -0.0844  0.2291  0.1803
31166W        W47427   3.728  10.046   1.579  0.1809 -0.0716 -0.0066
31167W        W47428   9.760   3.628   3.285 -0.1976  0.0603  0.1726
31168W        W47429   8.285  15.613   4.719  0.2305  0.0159  0.0674
31169W        W47430  11.961  14.855  12.367  0.0474 -0.1659 -0.1703
31170W        W47431   9.887   4.918   1.860  0.1745  0.0719 -0.2479
31171W        W47432   3.966  10.396   2.249  0.0247 -0.0273  0.0595
31172W        W47433  11.347  16.263   2.074  0.1407 -0.1464 -0.3658
31173W        W47434   6.113   9.448  15.396  0.3898 -0.0562  0.2833
31174W        W47435  14.806  14.115   2.504  0.0543  0.2925 -0.3453
31175W        W47436  13.761  18.016  12.113  0.0868 -0.1769 -0.0716
31176W        W47437   9.640   5.921  12.892 -0.2223  0.2988 -0.2736
31177W        W47438   4.581   9.628   3.889  0.3365  0.0839  0.1886
31178W        W47439   7.022  17.410  14.775  0.3074 -0.5373  0.0450
31179W        W47440  17.096   7.976   2.381 -0.1925 -0.0617  0.0757
31180W        W47441  10.691   9.598   1.822 -0.3613  0.0387  0.0544
31181W        W47442   8.740  16.639   4.178 -0.4691 -0.2957  0.0362
31182W        W47443   4.270  11.644   5.034  0.1402 -0.2844 -0.0926
31183W        W47444  13.323   4.529  14.221 -0.3095 -0.0557 -0.0634
31184W        W47445  17.241  14.099  13.688 -0.1284 -0.3451 -0.0819
31185W        W47446  15.667  15.829  14.181 -0.0489 -0.1618  0.4386
31186W        W47447   7.435  17.451   0.949  0.1945  0.1317  0.0692
31187W        W47448   6.280  14.568  14.519  0.1201  0.1139 -0.4273
31188W        W47449  10.734   4.497   0.621 -0.0971  0.1384  0.2168
31189W        W47450   2.576  17.594  11.721  0.1949 -0.0494  0.2562
31190W        W47451   3.199   1.945   4.563 -0.1761  0.0748  0.1363
31191W        W47452   0.702  14.737   2.301 -0.0146  0.2821 -0.1643
31192W        W47453   7.764  16.466   6.100  0.2713 -0.0648 -0.0492
31193W        W47454  14.487   6.448  11.982  0.0927 -0.1144 -0.2007
31194W        W47455  17.922   1.288   4.413  0.0164  0.0337  0.0348
31195W        W47456   8.098  17.967  15.390 -0.1783  0.1541  0.1217
31196W        W47457  15.483  16.042   1.412 -0.2937 -0.0701 -0.0749
31197W        W47458   2.068  16.494   0.758  0.3690  0.0444  0.1582
31198W        W47459  15.046  13.431  15.050  0.0909  0.1007  0.0068
31199W        W47460   0.787  14.922  12.895 -0.2879 -0.1142 -0.0856
31200W        W47461  13.794   8.866   3.402 -0.1363 -0.3272 -0.2552
31201W        W47462   2.136   8.794   4.874  0.1386 -0.0216 -0.0527
31202W        W47463   4.283  15.570  16.196  0.1863 -0.1217  0.1121
31203W        W47464  14.955  18.052  14.103  0.1233  0.0799 -0.2209
31204W        W47465   5.995   2.286  14.020  0.3247 -0.1669 -0.4787
31205W        W47466   2.669  14.223  13.395 -0.1725 -0.0124 -0.1597
31206W        W47467   9.725  11.346  12.948 -0.0007 -0.2564  0.4479
31207W        W47468   8.001   2.082   2.583  0.1340 -0.0603  0.0188
31208W        W47469   6.606   3.868   2.641  0.0445  0.1477 -0.1827
31209W        W47470   1.237   8.802  13.130  0.1545 -0.0351 -0.1946
31210W        W47471  14.974   8.418  11.758 -0.0053 -0.5022 -0.3432
31211W        W47472   7.001   3.287   3.250 -0.0553  0.0206  0.0245
31212W        W47473   5.690  11.350   2.981 -0.2322  0.2681  0.1126
31213W        W47474  14.804   0.405  16.197  0.3544 -0.2452 -0.0126
31214W        W47475   1.217   5.373  15.477  0.1647 -0.2890  0.1253
31215W        W47476   9.938   7.531   2.217  0.1238 -0.2613  0.0981
31216W        W47477  17.062   4.499  14.763  0.0018 -0.1991 -0.1204
31217W        W47478   8.635  13.743   5.950  0.2791  0.2954  0.1323
31218W        W47479   0.653   3.929  16.104 -0.3320  0.3008 -0.1047
31219W        W47480   4.694   7.916  11.641 -0.0483  0.1168  0.4679
31220W        W47481   9.803   2.918  15.028  0.0720  0.1672  0.0385
31221W        W47482  11.976  17.013  14.045 -0.1461  0.0220  0.2998
31222W        W47483   9.033  14.899  12.709  0.0973 -0.0367 -0.1141
31223W        W47484   3.711  14.079  14.152  0.1461  0.2855  0.0251
31224W        W47485   5.543  10.291   5.272 -0.3438 -0.1435  0.1426
31225W        W47486  17.794  15.524   2.296 -0.1197  0.0370 -0.6422
31226W        W47487  14.175  14.795   2.856 -0.3495 -0.1315 -0.2223
31227W        W47488   5.421   0.192  14.795  0.0925  0.3846 -0.0574
31228W        W47489   1.018   4.638  12.044 -0.1750 -0.3174  0.1499
31229W        W47490   6.457   3.885   4.589  0.2187  0.0278 -0.3743
31230W        W47491  17.852  12.836   3.317 -0.1968  0.2466  0.0569
31231W        W47492   3.220   8.618  15.761 -0.1399 -0.1989  0.1876
31232W        W47493   6.502   7.406   5.836 -0.0564  0.0874  0.0449
31233W        W47494   8.679  17.095   4.593 -0.2153 -0.0211 -0.0169
31234W        W47495   6.507   6.857  16.393  0.0205  0.1897  0.0388
31235W        W47496  14.649   5.449   2.448  0.0491 -0.2846 -0.0455
31236W        W47497   8.072   9.056  12.321  0.1172  0.0809 -0.0308
31237W        W47498   2.282  17.823   2.019 -0.2150 -0.1303 -0.0836
31238W        W47499   8.741  18.100   4.410  0.0096 -0.0100 -0.2288
31239W        W47500  13.285   4.828   4.615 -0.1193 -0.1321 -0.1150
31240W        W47501   9.896  10.699   4.158  0.1203  0.0403  0.2217
31241W        W47502   9.744   6.651   1.938 -0.0092  0.0103 -0.2313
31242W        W47503   6.748  10.647  15.673  0.1544 -0.1231 -0.2902
31243W        W47504   0.035  13.260   3.297  0.0694 -0.2424 -0.1851
31244W        W47505   3.372   7.806  16.235 -0.2869  0.2557 -0.1296
31245W        W47506  16.134  13.883  12.053  0.1608 -0.0440 -0.0188
31246W        W47507   6.961  16.803  12.178 -0.3581 -0.4222  0.1207
31247W        W47508   4.645  10.351   0.985 -0.0900 -0.2304 -0.1487
31248W        W47509  14.502  13.899   3.426 -0.0278  0.1455 -0.0786
31249W        W47510  14.916  15.105   4.115 -0.1640 -0.2724  0.0356
31250W        W47511   5.927  16.214  13.401 -0.0662 -0.0629  0.3288
31251W        W47512   3.773   7.926   5.316  0.0465 -0.1104 -0.2575
31252W        W47513   5.142  11.433   4.631  0.0851  0.3416 -0.1707
31253W        W47514   8.203  12.204   4.327 -0.1286 -0.2823  0.1753
31254W        W47515  14.075  12.823  12.141  0.2994 -0.1215 -0.1431
31255W        W47516   8.262   9.122  15.941  0.1375 -0.0451  0.0016
31256W        W47517   4.198  13.388   2.379  0.0237  0.0655  0.2580
31257W        W47518   5.266  14.960   3.368 -0.0072  0.1230 -0.0209
31258W        W47519  12.597   8.802  13.599  0.1370  0.0470 -0.0686
31259W        W47520  17.195  17.885  15.678 -0.1101  0.0944  0.2115
31260W        W47521   9.968  10.275  13.610 -0.0283 -0.0556  0.0593
31261W        W47522  12.730  16.769  14.026  0.0285 -0.1776  0.1737
31262W        W47523   4.051   0.324  12.912  0.0500 -0.0920 -0.1294
31263W        W47524  16.130   3.401  13.381  0.1734 -0.2284 -0.0456
31264W        W47525  17.950  18.190   3.014 -0.1669 -0.1897 -0.0731
31265W        W47526  15.862  13.541  13.510 -0.0140 -0.1582  0.1187
31266W        W47527   3.964   4.890   5.985  0.0383 -0.2795 -0.1190
31267W        W47528   1.604   0.239  13.528  0.1376 -0.1033  0.1580
31268W        W47529   2.538  14.722  13.243 -0.3527  0.1218 -0.1709
31269W        W47530  17.885  16.858   5.089 -0.1296 -0.0443 -0.1571
31270W        W47531  15.100  10.961  12.823 -0.1612 -0.3100 -0.3014
31271W        W47532  15.026  13.986   0.010  0.2516  0.2959 -0.0455
31272W        W47533   4.404   2.911   3.191 -0.1786 -0.0464 -0.0049
31273W        W47534   8.690   3.044   1.154  0.0728 -0.0683  0.0557
31274W        W47535   4.948   9.297   2.013  0.1636  0.0078 -0.0760
31275W        W47536  14.704   8.255   2.397 -0.1269 -0.0312  0.2248
31276W        W47537  11.996   7.123  15.266  0.3240  0.2550  0.1136
31277W        W47538   2.916  15.554  12.021  0.0547  0.0253  0.0782
31278W        W47539   0.351   7.690  13.465  0.0279 -0.1234  0.1272
31279W        W47540   9.502   3.339   2.513  0.1276  0.1737  0.3287
31280W        W47541  10.633   4.260  13.932  0.0449 -0.1497 -0.0054
31281W        W47542   5.729   0.148   0.836 -0.0836 -0.2698  0.0004
31282W        W47543  13.041   8.820   5.372 -0.0206  0.1677  0.4281
31283W        W47544   1.606  13.033  12.569  0.0333 -0.2445  0.1415
31284W        W47545   7.422  14.827  15.058 -0.0759 -0.1700 -0.0470
31285W        W47546   0.358   3.525  13.715 -0.0284  0.1183 -0.0763
31286W        W47547  11.314   4.500  14.693  0.1632 -0.1834  0.0197
31287W        W47548   6.843  16.062  16.444 -0.0193  0.1700 -0.0995
31288W        W47549  10.174   1.617  14.400  0.2697  0.0251  0.0576
31289W        W47550   4.526   9.118  13.851 -0.0298 -0.1529 -0.0163
31290W        W47551  13.118  14.638   4.456  0.2485  0.0388 -0.1530
31291W        W47552   1.299   8.192   3.543 -0.2098  0.1791  0.0223
31292W        W47553   6.456  11.682  16.299  0.0971 -0.0127  0.1458
31293W        W47554   5.052  16.179   5.581 -0.1797 -0.0205 -0.1758
31294W        W47555  15.025  16.979  12.023 -0.0748  0.2008  0.2708
31295W        W47556   6.048  12.005   4.572  0.2607  0.1013 -0.1720
31296W        W47557   9.730   1.229  14.460  0.1477  0.0057  0.0537
31297W        W47558  10.640   6.772   3.925 -0.2738 -0.0380 -0.2023
31298W        W47559   5.663   0.526   5.287 -0.1430 -0.0121  0.1853
31299W        W47560  16.143  10.167  11.890  0.2070  0.1574 -0.2625
31300W        W47561   3.994  14.979   2.836 -0.1080 -0.1954 -0.0261
31301W        W47562   8.294   3.500  13.686 -0.4018 -0.1214 -0.0242
31302W        W47563   6.978  11.988   3.434 -0.1983  0.2469 -0.2893
31303W        W47564   5.236   0.608  16.033 -0.2263 -0.0342  0.2838
31304W        W47565   0.609  12.156   1.816  0.0110 -0.1456  0.0289
31305W        W47566   9.166   4.607  16.407  0.0820  0.0018  0.1793
31306W        W47567  11.761   5.289  15.308  0.1907  0.0482  0.2137
31307W        W47568  14.820  11.136  14.163  0.1031  0.0830  0.2099
31308W        W47569   5.442   1.600   0.539 -0.2926 -0.0790 -0.1540
31309W        W47570   6.469   0.644   5.723 -0.2650 -0.0178 -0.1638
31310W        W47571   1.380   2.474  14.968  0.2024 -0.1541 -0.0564
31311W        W47572   3.460  16.099   5.734 -0.0936  0.0102  0.4379
31312W        W47573   1.255   8.624  14.619 -0.1488 -0.0246 -0.1326
31313W        W47574   1.927  13.533   4.158  0.1939  0.4205 -0.0682
31314W        W47575   1.720  15.464  14.146  0.3758  0.0819  0.1107
31315W        W47576  13.665  11.480   0.572  0.1370 -0.1291  0.1791
31316W        W47577  11.644   4.970   4.584 -0.1593 -0.1867  0.0173
31317W        W47578   6.067  14.631  13.299 -0.0145  0.2357  0.0654
31318W        W47579  17.265   9.512  13.609  0.2313  0.0133 -0.0620
31319W        W47580   6.892  18.132  15.771  0.0756  0.1193  0.1700
31320W        W47581  12.960  13.054  13.005  0.1315 -0.0118  0.0428
31321W        W47582   1.096   1.076   2.669  0.0015  0.1564 -0.0340
31322W        W47583   8.466  15.044   5.199 -0.4974 -0.1718 -0.0126
31323W        W47584  16.415  14.928   6.600 -0.0279  0.0666  0.0439
31324W        W47585   0.286   5.546  15.535 -0.2798  0.3267  0.2568
31325W        W47586  16.378   5.361   0.702  0.0248 -0.0033  0.1173
31326W        W47587   6.854   5.213   1.073  0.0455 -0.0428  0.1987
31327W        W47588  17.103   6.379   3.155  0.2107 -0.1448  0.2789
31328W        W47589   7.399  12.027   3.098 -0.1139 -0.0650  0.1151
31329W        W47590  13.936   0.591  11.279  0.1142  0.0127  0.0537
31330W        W47591  12.889   7.373  14.195  0.2524  0.3872  0.0890
31331W        W47592  15.470   9.802   2.311  0.0660  0.1597 -0.3883
31332W        W47593  11.538   0.917   2.500  0.0196  0.1124 -0.0234
31333W        W47594  11.400   6.233   3.878  0.0538 -0.2028  0.1331
31334W        W47595   6.663   7.929   5.786  0.2107 -0.0230 -0.1361
31335W        W47596   8.513  10.017   2.893  0.0954 -0.1320 -0.3847
31336W        W47597  13.176  13.343   6.075  0.1093 -0.0809  0.1257
31337W        W47598   5.334   2.982   2.048  0.4308  0.0946  0.1463
31338W        W47599   5.387  12.060  14.767  0.4627  0.4397 -0.0052
31339W        W47600  15.105  16.275   1.094  0.0117  0.4172 -0.0090
31340W        W47601  13.980   7.752   2.218  0.1641 -0.0434  0.2625
31341W        W47602  15.745   6.071  15.953  0.0619  0.1540  0.1297
31342W        W47603   1.574   8.881   0.854 -0.0911  0.2367 -0.1485
31343W        W47604   5.475   6.592   4.932  0.0278 -0.0974  0.0556
31344W        W47605  10.368  14.661  11.406 -0.0446 -0.0736 -0.2255
31345W        W47606  15.989   6.815  15.019  0.1962 -0.1791 -0.0974
31346W        W47607  10.802  13.945  13.905  0.2474 -0.0471  0.2677
31347W        W47608  14.356  16.946   4.344  0.3408 -0.1320 -0.2398
31348W        W47609   5.706   2.698   6.329 -0.2677  0.0136 -0.2329
31349W        W47610  16.620   2.113   6.066  0.0024 -0.2018  0.1240
31350W        W47611  15.503   8.056  14.611 -0.0043 -0.0406  0.1303
31351W        W47612  11.663   4.151  14.844 -0.0076 -0.0259  0.3269
31352W        W47613   7.768   3.746   3.190  0.3955 -0.0034 -0.0564
31353W        W47614  15.790  13.702  11.597 -0.0982  0.0633  0.0813
31354W        W47615   0.842   1.745   6.779  0.1232  0.1570  0.0088
31355W        W47616  16.990  15.854  16.576 -0.1077 -0.2028  0.0041
31356W        W47617   2.297   7.724   5.717 -0.0233  0.1879 -0.0442
31357W        W47618  14.237   3.218   3.198  0.1597 -0.1022  0.2046
31358W        W47619   9.655   0.074   3.645 -0.2419  0.0438 -0.1300
31359W        W47620  17.914  17.004  12.361 -0.1378  0.0172 -0.0921
31360W        W47621  10.517   7.476  13.331  0.2083  0.0544 -0.1238
31361W        W47622  17.753  16.347   1.868 -0.4393 -0.2705 -0.0776
31362W        W47623   0.917   2.964   4.975  0.2163  0.3158  0.2861
31363W        W47624  15.454   8.299   1.687  0.3575  0.0713 -0.1250
31364W        W47625  11.942   4.552  12.756  0.0912 -0.2260 -0.1089
31365W        W47626   9.548   9.777   2.028  0.1334  0.3727  0.1751
31366W        W47627  12.767   4.365   5.781  0.1986  0.0241  0.2246
31367W        W47628   7.407   5.554  14.756 -0.2603  0.0430  0.0724
31368W        W47629   1.932  17.362   1.082 -0.3562 -0.1230 -0.1070
31369W        W47630   1.106   0.188  14.297 -0.0751  0.1887 -0.0871
31370W        W47631  14.374   5.744  13.842  0.0778  0.0504 -0.0191
31371W        W47632   3.834  15.817  16.548  0.2594  0.0128 -0.3219
31372W        W47633  16.148   4.437   0.616 -0.0154 -0.1961 -0.2052
31373W        W47634  17.312  13.995   0.633  0.0766  0.3512  0.0644
31374W        W47635  11.841   5.650  16.538 -0.2026 -0.2478 -0.2905
31375W        W47636  14.614  14.418  12.719 -0.1338  0.0268  0.0380
31376W        W47637   8.889   8.681   0.928 -0.1537  0.1536 -0.2628
31377W        W47638  13.513  12.844   3.765  0.3306 -0.1979 -0.1204
31378W        W47639  14.315   4.121   5.978  0.0663  0.2093  0.0615
31379W        W47640   6.888  13.027   1.544 -0.1243 -0.0859  0.1928
31380W        W47641   8.070  10.668   4.153  0.0175  0.0224  0.2758
31381W        W47642  15.996  12.211  11.739 -0.5420  0.2026  0.2205
31382W        W47643   2.688  16.848  13.988 -0.0889 -0.3411  0.1487
31383W        W47644  12.564  12.001   4.956  0.0970 -0.1093  0.2781
31384W        W47645  10.353   9.648  14.098 -0.0130 -0.1749  0.2341
31385W        W47646   4.375   3.711   2.143  0.0357 -0.0857  0.1884
31386W        W47647   7.454  11.066   5.578 -0.1030 -0.0933 -0.0187
31387W        W47648  15.574  16.464   0.455  0.0212 -0.1415  0.0066
31388W        W47649  14.975   6.752  14.370  0.2510 -0.0727 -0.3316
31389W        W47650   1.969   2.083   0.087  0.0617 -0.2511  0.0898
31390W        W47651   1.014  12.375   4.980  0.3135  0.0910  0.0745
31391W        W47652   5.734   6.248  14.444  0.2783  0.0232 -0.3691
31392W        W47653   8.807   0.306   0.032  0.1333 -0.1624  0.1239
31393W        W47654   5.166   6.826  14.554  0.0184  0.0458  0.4223
31394W        W47655  14.001   9.521  11.189 -0.0507  0.0501 -0.3807
31395W        W47656   5.927  10.744  15.960 -0.0165  0.0783  0.0984
31396W        W47657   0.715   0.631   1.287  0.1381  0.2412 -0.0559
31397W        W47658  10.126  16.034  15.519 -0.1529  0.1291  0.4174
31398W        W47659   2.156   6.283  13.761 -0.3311 -0.0449 -0.3021
31399W        W47660  10.709   8.311   2.430  0.0806  0.1516  0.0867
31400W        W47661   5.674  10.239   0.146 -0.1419  0.0635 -0.2851
31401W        W47662   7.024   4.294  14.693 -0.0814  0.0094 -0.2535
31402W        W47663   5.526  15.164   4.540  0.1344  0.2218 -0.1112
31403W        W47664   6.245   2.737   4.315 -0.2342  0.1174 -0.0266
31404W        W47665  14.356   4.926   1.615  0.3938  0.1730  0.2087
31405W        W47666   1.576  17.972  14.912 -0.1205 -0.2930  0.0978
31406W        W47667   6.998   2.988  16.540  0.2081 -0.0663 -0.2404
31407W        W47668   7.483   9.460   0.144  0.0921 -0.0671 -0.1248
31408W        W47669  17.055  15.091   5.067  0.2331 -0.2588 -0.1546
31409W        W47670   1.668   9.382  15.768  0.0081  0.0771  0.0030
31410W        W47671   8.980  13.009  13.069  0.0092  0.1282 -0.0843
31411W        W47672   8.901  13.218   1.190 -0.3416 -0.0652 -0.0204
31412W        W47673  16.678   8.837  14.198  0.1475  0.0215 -0.3491
31413W        W47674   8.260   2.405  11.376 -0.1266 -0.3597  0.1921
31414W        W47675   4.753  12.074   4.940 -0.1311  0.0207  0.1813
31415W        W47676  13.797   4.861   0.856  0.1252 -0.1100  0.1880
31416W        W47677  13.956   1.630  12.183  0.1594  0.1212  0.1813
31417W        W47678   4.934  16.721  12.472  0.2026 -0.1459 -0.3824
31418W        W47679   9.518   7.647   4.094 -0.1133 -0.0582 -0.0396
31419W        W47680   9.704   2.773  15.790 -0.0103 -0.2997  0.1258
31420W        W47681   1.498  16.848   2.164  0.2730 -0.1177  0.0655
31421W        W47682  18.121   9.659  13.374 -0.0563  0.0391 -0.2224
31422W        W47683   0.169  17.945   2.885  0.1776  0.1868 -0.0725
31423W        W47684  17.292   3.066   3.990 -0.0986 -0.1258  0.0323
31424W        W47685   5.028  17.148  16.339  0.1197 -0.2732 -0.1178
31425W        W47686  11.979  12.737   0.269 -0.1602  0.0427  0.2273
31426W        W47687  12.407  10.844   3.651 -0.0352 -0.0797 -0.3723
31427W        W47688   0.977  15.481  15.932 -0.0818  0.1067  0.1781
31428W        W47689  16.478   1.299  13.456 -0.1298 -0.0536 -0.0914
31429W        W47690  17.972  14.728  13.074 -0.3106  0.0984 -0.1992
31430W        W47691   4.595   9.453  16.050 -0.1498  0.1491  0.1503
31431W        W47692  11.269  12.156   4.711  0.6192 -0.4672  0.1245
31432W        W47693  13.623   3.377   5.146 -0.0469 -0.2052 -0.0162
31433W        W47694   1.124  10.488   0.256  0.5771 -0.0127  0.2918
31434W        W47695   3.472   6.619  12.431 -0.0561  0.3122  0.0941
31435W        W47696   3.439   3.376   2.719  0.1034 -0.2048 -0.1933
31436W        W47697  14.730  13.140   1.553  0.1770 -0.4700 -0.2590
31437W        W47698   4.188  12.102   1.070  0.1330  0.1323  0.4309
31438W        W47699  14.042   1.223  11.056 -0.1431  0.2964  0.3795
31439W        W47700  17.740   2.580  12.018  0.0228  0.0279 -0.1667
31440W        W47701   7.729  15.727  16.065 -0.2157  0.3235 -0.0897
31441W        W47702   5.854  17.068  13.341 -0.2163  0.2238  0.0040
31442W        W47703  18.194  14.246  16.066 -0.0967  0.1757 -0.1454
31443W        W47704   0.685   6.176   3.516  0.1564 -0.0395  0.2033
31444W        W47705   5.339   6.964   0.950  0.1819 -0.1709  0.0728
31445W        W47706   8.097   5.197   3.045 -0.0925  0.1400 -0.0681
31446W        W47707  18.027  10.183  16.563  0.0122  0.1209  0.3431
31447W        W47708   5.253  13.124   5.126 -0.4589 -0.1199  0.2584
31448W        W47709  18.164   2.345  16.212 -0.1511  0.1707  0.1225
31449W        W47710   9.002   3.774  12.546 -0.0299 -0.1788 -0.3018
31450W        W47711   3.632  17.611   1.999  0.0045  0.0443  0.3452
31451W        W47712   8.451   6.111   0.419  0.3460 -0.0557 -0.1476
31452W        W47713   0.044  13.054  13.705  0.0983 -0.4413 -0.3578
31453W        W47714   9.446   3.471   0.355  0.2463 -0.0869 -0.2866
31454W        W47715   1.283  15.487  11.816  0.0108 -0.5962 -0.0081
31455W        W47716   6.209  11.971   5.145 -0.0157 -0.2012  0.1649
31456W        W47717   8.818   2.843   3.933  0.1764 -0.0001  0.0874
31457W        W47718  17.936   9.020   3.718 -0.0913  0.0228  0.4908
31458W        W47719   7.923  16.553   4.104 -0.3124  0.1337 -0.1311
31459W        W47720   5.493   5.868   5.515  0.0841  0.0017  0.0649
31460W        W47721   3.863   4.808   4.709  0.0048  0.2039  0.0777
31461W        W47722  10.465   9.045  15.076 -0.0060 -0.3337  0.0411
31462W        W47723  17.203   7.098   1.227  0.3371 -0.0680 -0.0737
31463W        W47724   2.028   8.179  16.016  0.1335 -0.1098 -0.0376
31464W        W47725  14.036   7.251   6.055 -0.1117  0.0820 -0.1481
31465W        W47726   9.203  10.522  12.425  0.0442 -0.0953 -0.1643
31466W        W47727  12.319   5.700   5.281 -0.1375 -0.1954  0.1641
31467W        W47728   1.899  18.156  16.146  0.0873 -0.1835  0.2062
31468W        W47729  15.860   1.942   5.174  0.3370 -0.2755 -0.1128
31469W        W47730  16.100   2.041   0.462 -0.0687  0.0367 -0.3394
31470W        W47731   3.678  17.345  13.178  0.2818  0.1318  0.0963
31471W        W47732  15.008   6.901  16.595  0.2987  0.2768 -0.0815
31472W        W47733   0.110   8.499   1.873 -0.0616  0.1783  0.1824
31473W        W47734  11.073  10.232   2.771  0.0534  0.1544 -0.0581
31474W        W47735   4.132   8.638   1.210 -0.1151  0.2892 -0.2245
31475W        W47736   2.413   0.319  16.140  0.0669  0.2461  0.0386
31476W        W47737   2.615   1.761   5.300  0.0308 -0.0219 -0.0092
31477W        W47738   6.645   1.970   1.046  0.1185 -0.3104 -0.1368
31478W        W47739   2.093   5.077  16.232 -0.1298 -0.1118  0.2885
31479W        W47740   2.922  14.555  11.012  0.0481  0.1690  0.2132
31480W        W47741  10.696  11.574   4.152 -0.2093  0.3088  0.1250
31481W        W47742  14.909   2.450  13.630 -0.0576 -0.1441 -0.1168
31482W        W47743  13.950   6.276  16.207 -0.0652  0.0160 -0.0954
31483W        W47744   0.531   7.173  16.235 -0.3176 -0.1478 -0.0016
31484W        W47745  17.754  14.164   3.306 -0.2234  0.4574  0.0590
31485W        W47746   3.871   9.837  13.794 -0.2854  0.1938  0.0316
31486W        W47747   1.382  15.592  13.346 -0.0761 -0.0294  0.2042
31487W        W47748  10.486   5.044  13.057  0.1014 -0.2002  0.1639
31488W        W47749   4.656   7.448   2.468  0.0144  0.1355 -0.1225
31489W        W47750  10.579   5.838   3.531  0.1031 -0.0234 -0.1616
31490W        W47751  15.644   6.910   0.172  0.1699  0.0150  0.0020
31491W        W47752  16.717   9.186   1.186  0.1633  0.1963  0.2035
31492W        W47753   4.528   0.555   0.250  0.2474  0.0089  0.0850
31493W        W47754   4.015  14.943  16.050 -0.0745  0.1476  0.1066
31494W        W47755   1.247   6.831   0.851 -0.0154 -0.3575  0.0894
31495W        W47756   8.051   4.880  16.588  0.1892  0.1474 -0.0223
31496W        W47757   6.291  13.113  15.904  0.0789 -0.2415  0.2388
31497W        W47758  16.039  18.122   1.846 -0.3546  0.2942 -0.0529
31498W        W47759  17.655   6.067   2.697  0.2382  0.1478 -0.1201
31499W        W47760  14.335  15.343   3.143  0.0230  0.1371 -0.3893
31500W        W47761   2.333   7.207   0.371  0.0070 -0.1307  0.0358
31501W        W47762  15.077   4.985   1.005  0.0887 -0.0851  0.3178
31502W        W47763   0.617  17.608  13.572  0.1319 -0.1154  0.1627
31503W        W47764  15.334   1.208   1.083 -0.2902  0.0964 -0.0040
31504W        W47765  10.327   7.005  13.212  0.0900  0.1121  0.0321
31505W        W47766  11.248  11.993   5.602  0.0413  0.4932  0.0554
31506W        W47767   8.346  12.092  15.878 -0.0106 -0.2967  0.1442
31507W        W47768  17.433   7.100   4.003 -0.0329 -0.1084  0.1623
31508W        W47769   0.114   0.555   3.345  0.0200  0.2318 -0.0066
31509W        W47770  10.013   2.323   5.113 -0.0520  0.3491  0.1871
31510W        W47771   1.145   8.160  14.469  0.2715  0.0241  0.3137
31511W        W47772  13.941   8.907  12.200 -0.1517 -0.4407  0.2331
31512W        W47773   6.039   0.176  15.473  0.1793 -0.1973 -0.3825
31513W        W47774  17.626   7.654  13.628 -0.2308 -0.0643  0.2482
31514W        W47775  15.317  11.461   4.059  0.2737  0.3934 -0.1110
31515W        W47776   2.588  15.307  14.616 -0.1707 -0.0126 -0.1817
31516W        W47777   6.421   4.324   6.228 -0.0301  0.0522 -0.2338
31517W        W47778   2.536   4.829   4.243  0.1361 -0.0718 -0.2138
31518W        W47779   4.851  16.065   1.736  0.0381  0.2090 -0.3976
31519W        W47780   1.059  13.784   3.096 -0.0619  0.2017 -0.1500
31520W        W47781  15.350  13.165  15.760 -0.0987 -0.0869 -0.1254
31521W        W47782  17.165   2.571  13.561 -0.1645 -0.0705 -0.0908
31522W        W47783   6.497   9.003   4.583 -0.1373  0.1395  0.0605
31523W        W47784  17.399  10.551  11.281 -0.0579 -0.1920 -0.0901
31524W        W47785  15.918   1.313   1.991 -0.0712 -0.0759  0.0559
31525W        W47786   5.821  15.706   1.625  0.1575  0.0591  0.0327
31526W        W47787   2.421  17.342   1.336  0.2180  0.0885 -0.4780
31527W        W47788   8.539   5.404  15.806 -0.0183 -0.0420  0.0097
31528W        W47789  18.067  11.404  15.472 -0.0312  0.1658  0.2363
31529W        W47790   1.619  14.675   0.652 -0.2340 -0.1625  0.1402
31530W        W47791   9.455  13.881  13.311  0.2457  0.2188  0.2273
31531W        W47792  10.670  17.512  11.799  0.0729 -0.1914 -0.0849
31532W        W47793  18.077   3.761  14.484  0.0871 -0.0764  0.3122
31533W        W47794  11.556  11.190  12.409 -0.0975 -0.2419 -0.1070
31534W        W47795  15.600   5.611  16.093  0.4738 -0.1993 -0.3133
31535W        W47796   4.250  11.197   2.345  0.1967 -0.2338 -0.2636
31536W        W47797  17.491   7.857  14.751 -0.1563  0.2071 -0.0551
31537W        W47798   6.802   4.110   0.911  0.4367 -0.1471  0.0241
31538W        W47799  17.341   4.704   3.667  0.3739  0.1272 -0.0384
31539W        W47800   3.407   0.439  15.035 -0.0803  0.0376 -0.2565
31540W        W47801   5.197  15.091  15.237  0.1077  0.0514 -0.1236
31541W        W47802   2.406  13.865   3.040  0.0041  0.0187  0.0823
31542W        W47803   2.984   9.164  13.093 -0.1658  0.0168 -0.3423
31543W        W47804  10.738   3.630  16.253 -0.0335  0.0650  0.0755
31544W        W47805  17.314  16.122  11.299 -0.0497  0.2035 -0.0483
31545W        W47806  14.873   0.160   1.958  0.2966  0.1738  0.0285
31546W        W47807  14.326   6.736   4.861  0.2478  0.2545  0.0532
31547W        W47808   1.859   0.624  11.905  0.0272  0.1330 -0.0424
31548W        W47809  16.088   3.727   2.042  0.2256 -0.2494 -0.2524
31549W        W47810   9.823  16.636  12.424 -0.4456  0.3034  0.0914
31550W        W47811   5.257  13.543   3.189  0.1316 -0.1494  0.0744
31551W        W47812  15.117   8.976  14.372 -0.1064 -0.1442  0.0069
31552W        W47813   8.867   5.126  14.752  0.1583  0.0559  0.4775
31553W        W47814  11.240  17.551   0.922  0.3229  0.0134  0.0935
31554W        W47815  11.978   9.031  16.594 -0.0975 -0.0096 -0.2481
31555W        W47816  16.127   5.180  13.205 -0.4227 -0.1120  0.1407
31556W        W47817  12.998   4.465   3.082  0.0274  0.1518 -0.2783
31557W        W47818  11.600   8.068  13.601 -0.3233  0.0333  0.1551
31558W        W47819   4.321   7.712  11.877 -0.2404 -0.1918 -0.1821
31559W        W47820   6.091   4.536  16.253  0.0665  0.1877  0.0583
31560W        W47821  17.114   2.022   6.395 -0.0545  0.0409  0.0078
31561W        W47822  13.661   2.966  13.398  0.0857  0.1238 -0.0059
31562W        W47823   8.626  13.135  13.970 -0.2433  0.2103 -0.0123
31563W        W47824   7.327  12.032   3.850  0.2085 -0.2826  0.0505
31564W        W47825  14.465   8.110  12.869 -0.4218  0.1813  0.0570
31565W        W47826  14.770   5.985   4.113 -0.2548  0.0159  0.0479
31566W        W47827   5.786   6.464  13.988 -0.1573 -0.3182  0.0180
31567W        W47828  17.331   3.342   5.089 -0.2922  0.2603 -0.2867
31568W        W47829  10.725   3.361   1.659 -0.2065  0.1371 -0.0191
31569W        W47830   6.057   6.952  14.512 -0.0962  0.2051  0.2764
31570W        W47831   4.688  16.868   5.582 -0.0140  0.2285  0.0811
31571W        W47832   8.451   4.784  12.063 -0.2153  0.0508  0.2526
31572W        W47833  16.819  13.703  16.562  0.0379  0.1656 -0.1722
31573W        W47834  11.655  17.103   3.498  0.0011 -0.1909 -0.0096
31574W        W47835   8.004   7.492   2.170 -0.3020  0.1221  0.0784
31575W        W47836   5.913   9.286  16.056  0.0256  0.1603 -0.1010
31576W        W47837   1.358  15.222   0.147  0.1437 -0.1329  0.1440
31577W        W47838  15.791   0.296   3.805  0.0552 -0.1655 -0.1929
31578W        W47839  13.156   4.442   1.891  0.2215 -0.0426 -0.1514
31579W        W47840   3.960   3.748   6.527  0.1174 -0.1969 -0.1461
31580W        W47841  10.312  15.778  16.015  0.2728  0.0010 -0.1421
31581W        W47842   0.442   6.708  14.726 -0.1661  0.1173 -0.0938
31582W        W47843   6.505   8.057  12.564  0.1368 -0.0035  0.1237
31583W        W47844  11.467  16.433   3.123 -0.1025  0.0514  0.0487
31584W        W47845  10.557  12.822  12.012 -0.0099 -0.1220  0.2230
31585W        W47846  15.301   4.334  11.373 -0.1035 -0.1176  0.0049
31586W        W47847  16.482  15.786   5.124 -0.0397 -0.1261  0.3489
31587W        W47848  14.821  12.840   1.968  0.1356 -0.1904 -0.1040
31588W        W47849   7.398   1.324   0.055  0.0078 -0.0043  0.2486
31589W        W47850   4.515   9.771   3.027 -0.0280 -0.3493 -0.0961
31590W        W47851  17.156   0.277   2.485  0.0252  0.2957  0.1241
31591W        W47852   9.738   3.814  11.893 -0.0736 -0.0878 -0.3379
31592W        W47853  10.167   6.263  12.492  0.0843 -0.0912 -0.1494
31593W        W47854   4.002  13.245   4.272  0.0637  0.0520  0.3978
31594W        W47855   2.090   1.354   6.134 -0.0110 -0.2641 -0.0179
31595W        W47856   3.527   0.522  16.209 -0.0587  0.1051  0.2141
31596W        W47857   5.924  14.654   3.055 -0.0838  0.2404  0.1913
31597W        W47858  14.857   5.566   4.451 -0.1483 -0.2909 -0.1358
31598W        W47859   4.136   5.598  12.357  0.2816  0.0192  0.0839
31599W        W47860  15.893   2.900   0.196  0.1472  0.0998 -0.1372
31600W        W47861   4.912  10.755  14.573 -0.3018  0.1771  0.3153
31601W        W47862  11.136  13.152   0.311 -0.5079  0.1182  0.0966
31602W        W47863  12.266  15.971  14.781 -0.2134 -0.1211 -0.0226
31603W        W47864  13.130  15.833   5.138  0.1569  0.1491 -0.0588
31604W        W47865   0.759  16.492   2.854 -0.1816 -0.3003 -0.0032
31605W        W47866  15.736   4.360   0.087  0.2297  0.2011  0.4936
31606W        W47867  10.715  17.462   5.671  0.0470 -0.2388  0.0844
31607W        W47868  15.203  15.234   5.144  0.1026 -0.2205  0.0100
31608W        W47869  12.094  16.378  11.685  0.1179  0.1599  0.2715
31609W        W47870   3.125   5.175   3.752 -0.2225  0.0877  0.1179
31610W        W47871   3.129  13.436  15.494  0.1328 -0.1034  0.0036
31611W        W47872   6.362   2.583   0.928  0.0198  0.0501  0.1902
31612W        W47873  15.785   3.923  14.792 -0.0281  0.0100  0.1090
31613W        W47874  17.685   7.336   3.012 -0.0973  0.3987 -0.0859
31614W        W47875  14.009   1.693   2.536 -0.2329 -0.2158 -0.0156
31615W        W47876  10.761  14.731  15.822 -0.1679 -0.1384 -0.0914
31616W        W47877  14.000  10.196  15.266 -0.4256 -0.0422 -0.2016
31617W        W47878   6.528   8.294   5.308 -0.0108 -0.3493 -0.2453
31618W        W47879   4.495   0.267  13.919  0.5825 -0.3087 -0.1121
31619W        W47880   9.274   0.233   1.975  0.0734 -0.0289 -0.1291
31620W        W47881  17.019  11.488   3.710  0.2359  0.0030 -0.0984
31621W        W47882   9.231   4.251   1.640  0.0061 -0.2258 -0.2065
31622W        W47883   2.465  18.055   5.006 -0.1212  0.2202 -0.2404
31623W        W47884   9.463   1.203   0.089  0.2742  0.0337 -0.0052
31624W        W47885   4.732   4.166   4.308 -0.2759  0.0682 -0.1155
31625W        W47886  14.899   1.646  14.032 -0.2794  0.1065  0.1103
31626W        W47887  10.092  14.801  13.620  0.1835  0.0622  0.3002
31627W        W47888   7.522  15.913   3.464  0.1913 -0.1626  0.0403
31628W        W47889   9.088   3.133   3.517  0.0408  0.3754 -0.0857
31629W        W47890   5.938   8.832  12.130  0.0802  0.5837  0.2179
31630W        W47891   5.062   1.352   1.187  0.2231  0.2108  0.1913
31631W        W47892   7.576   8.519   3.751 -0.1575  0.2150  0.1004
31632W        W47893   4.753  12.298   2.898  0.0399  0.0138  0.2120
31633W        W47894  12.139   9.461   1.203  0.2134 -0.1128  0.1137
31634W        W47895  16.813  12.226   3.973 -0.2641  0.2108  0.0133
31635W        W47896   5.159   4.078   5.211  0.1704 -0.0635  0.2522
31636W        W47897   4.813  15.130  13.072 -0.1508 -0.0276  0.0685
31637W        W47898   4.694   4.876   2.376  0.0976 -0.1158 -0.0665
31638W        W47899  17.414   2.351  14.952  0.0761  0.1076  0.1184
31639W        W47900  14.216  11.205  16.619  0.1561 -0.0996 -0.2806
31640W        W47901   7.033  12.766  11.208  0.2187  0.0203  0.1238
31641W        W47902   0.021   3.811   6.914 -0.1409  0.1544  0.1869
31642W        W47903  10.886  18.177  15.043  0.2485 -0.1535  0.0897
31643W        W47904   2.439   5.939   4.497 -0.0267  0.1014 -0.3541
31644W        W47905  15.680  14.214  12.942  0.0767 -0.0917 -0.0744
31645W        W47906   4.221   3.740  15.372  0.3382  0.0383  0.2818
31646W        W47907  12.205  15.863   3.802  0.2912 -0.0260 -0.0389
31647W        W47908   4.924  16.410  12.890  0.2164  0.1476  0.2122
31648W        W47909   5.672  16.415  12.354 -0.4723  0.2744 -0.0969
31649W        W47910   1.437  13.366  15.114 -0.1320  0.0565  0.1510
31650W        W47911   6.541  11.764   3.346  0.2688  0.2146 -0.0801
31651W        W47912   9.912   4.027  16.325 -0.0263 -0.0693 -0.0715
31652W        W47913   7.871   4.253  11.687 -0.0832  0.2041  0.0239
31653W        W47914   4.825  11.107   1.497  0.1832  0.0403  0.0619
31654W        W47915  14.756   9.663   3.465  0.0071 -0.3513  0.1072
31655W        W47916   4.554  10.199   5.204 -0.4913  0.1974 -0.0472
31656W        W47917   4.453  10.222   4.288 -0.0261 -0.0982  0.3385
31657W        W47918   9.113  13.754  15.829 -0.2682  0.2163  0.2835
31658W        W47919   4.333   0.173   1.112  0.2456 -0.0375 -0.2807
31659W        W47920  10.068  11.241   3.751 -0.0142  0.1860  0.1228
31660W        W47921   4.591  15.850   4.285  0.1735  0.0503 -0.1671
31661W        W47922   5.780   8.354   0.347 -0.1909 -0.2805  0.5235
31662W        W47923  14.776  16.843   4.618  0.1899  0.0512 -0.0999
31663W        W47924  11.902   1.163  11.796 -0.4171 -0.1465  0.0897
31664W        W47925   5.356   6.164   3.448  0.4889 -0.0617 -0.4280
31665W        W47926  10.912   1.684   4.600  0.0809  0.2302  0.2220
31666W        W47927   6.379   6.577  13.298 -0.0878  0.1671  0.1775
31667W        W47928  10.347   7.747  14.812 -0.0085  0.0987  0.2380
31668W        W47929   4.631  10.104   0.542  0.1827  0.0528 -0.2316
31669W        W47930  11.677   6.792  16.273  0.0660 -0.0342 -0.0833
31670W        W47931  11.808   0.501  11.424 -0.1086  0.0073 -0.3464
31671W        W47932   8.399   3.073  13.365  0.0804  0.2092  0.1129
31672W        W47933   9.333  10.601   1.191 -0.2310  0.1709 -0.0978
31673W        W47934   1.188   7.820  14.848  0.0633 -0.1423  0.0446
31674W        W47935  11.720  12.865   1.467  0.2083 -0.0023  0.0067
31675W        W47936   6.064   3.188  15.369  0.0642 -0.1658  0.1621
31676W        W47937  10.680   8.619   0.553  0.0753 -0.1523 -0.1219
31677W        W47938  11.300  13.345   4.054 -0.0161  0.1394 -0.3195
31678W        W47939  16.995  15.938  11.709  0.0328 -0.1014  0.1895
31679W        W47940  15.780  17.295   4.117 -0.0104  0.2695  0.0019
31680W        W47941   9.238  15.672   1.890  0.0201 -0.0175  0.0810
31681W        W47942   1.854  17.052   5.255  0.0477 -0.2324  0.2210
31682W        W47943  16.874   6.427   2.611  0.0643  0.2981 -0.0273
31683W        W47944   7.706   8.406   0.434 -0.2467  0.0922  0.0237
31684W        W47945  10.017   6.008   2.689 -0.2577  0.2389  0.1635
31685W        W47946  17.444   2.264  16.498 -0.0389  0.2485 -0.2809
31686W        W47947  10.514  15.749   2.546 -0.3072  0.3944 -0.0654
31687W        W47948  10.893  12.277   1.841 -0.2590 -0.0968 -0.3210
31688W        W47949   3.397   7.722  13.843 -0.0344 -0.0108 -0.0060
31689W        W47950   1.368  14.281  14.499 -0.1477 -0.2851  0.0685
31690W        W47951   6.276  13.625   0.507 -0.0877  0.0072  0.0017
31691W        W47952  18.103   9.308   3.166 -0.1521  0.1173  0.1205
31692W        W47953  18.029   9.374   5.245  0.0202 -0.2043  0.0539
31693W        W47954  14.958  14.149  14.522 -0.1848 -0.0617  0.0841
31694W        W47955   3.155  14.025   2.219 -0.0320 -0.1511 -0.1032
31695W        W47956   2.049   5.155   2.740 -0.1330  0.3176 -0.0728
31696W        W47957   5.417   9.166   1.193  0.1819 -0.1180 -0.0704
31697W        W47958  12.095   0.021   1.483 -0.4005  0.0118 -0.2665
31698W        W47959   5.586  17.795  13.035  0.1461  0.1003  0.0171
31699W        W47960   2.699   8.271   4.122  0.3284 -0.2724  0.2601
31700W        W47961  15.631   7.530   4.077  0.0251  0.0927  0.0273
31701W        W47962   4.556   4.552  15.293  0.3625  0.0803  0.0471
31702W        W47963  10.900  15.354   3.313 -0.3238 -0.2828 -0.0920
31703W        W47964   3.066   6.217  11.618 -0.1691  0.1140 -0.3908
31704W        W47965   5.154  13.921  11.932 -0.0246  0.2274  0.2767
31705W        W47966   2.969  11.026  16.021  0.1811  0.0927  0.0946
31706W        W47967   8.332   8.117  15.041 -0.3233 -0.0205  0.3977
31707W        W47968   9.147  12.216  13.913 -0.3531  0.2703  0.1434
31708W        W47969  11.664   9.996   3.450 -0.0682 -0.1699  0.0292
31709W        W47970   5.985   5.287   0.796 -0.2356 -0.1447  0.1352
31710W        W47971   2.146  14.102  13.117  0.1748 -0.1205  0.2575
31711W        W47972  15.113   2.580  12.179  0.0158  0.0241 -0.0403
31712W        W47973  13.473   3.022   1.973 -0.0076  0.1324 -0.1550
31713W        W47974  10.273  15.904   1.208 -0.3325 -0.1000  0.3377
31714W        W47975  12.864  17.128   3.930  0.5970  0.3117  0.0117
31715W        W47976  16.966   3.918   4.806 -0.1583 -0.1921  0.0751
31716W        W47977  10.501   9.469  16.544 -0.0161 -0.4477 -0.1295
31717W        W47978  14.943  14.753   5.149 -0.1267  0.1523 -0.0585
31718W        W47979  14.243   4.387   3.007 -0.3004 -0.0073 -0.1208
31719W        W47980  17.079   2.075   5.834  0.3404 -0.0917  0.6162
31720W        W47981  11.376   7.008   0.013 -0.1431  0.0077 -0.0594
31721W        W47982   2.787   6.223   0.417 -0.2145 -0.0835  0.0604
31722W        W47983  18.048   9.434   2.518 -0.1391  0.2374 -0.0226
31723W        W47984   9.704  15.715  14.318  0.0595 -0.0874 -0.1812
31724W        W47985  13.312  14.479   2.364 -0.0817  0.1637  0.0070
31725W        W47986   5.588   3.662  13.072 -0.1727 -0.0116  0.1998
31726W        W47987   4.688   3.729  15.262 -0.1599 -0.0464 -0.1712
31727W        W47988  12.737   4.541  10.886  0.2333  0.1958 -0.2056
31728W        W47989   8.713   7.492  11.670 -0.1554  0.1924 -0.2514
31729W        W47990  12.470   5.753   0.412 -0.0703  0.0269  0.0112
31730W        W47991   2.739   3.601   5.974  0.2565  0.2915  0.1927
31731W        W47992  16.744   7.216   3.319 -0.2356  0.1136  0.1671
31732W        W47993  16.744   2.731   1.569 -0.2959  0.2929 -0.1158
31733W        W47994   6.505   2.535  13.011  0.1792 -0.0904 -0.1668
31734W        W47995   3.002   6.644   3.617  0.0889  0.2027 -0.2429
31735W        W47996  12.887   2.445   0.840  0.1633  0.1288 -0.0448
31736W        W47997  15.327  10.377  15.401 -0.3156  0.1843 -0.1459
31737W        W47998  17.771   2.399   3.152  0.1963 -0.0917 -0.1557
31738W        W47999  14.586   3.092  15.325  0.2079 -0.1875 -0.1618
31739W        W48000  13.035  15.680   1.444  0.0205 -0.0402 -0.1773
31740W        W48001  15.259   2.644  12.847 -0.1383  0.2184 -0.2052
31741W        W48002  16.845   7.043  13.374  0.2281  0.0298  0.0903
31742W        W48003  10.855   4.942   0.923 -0.0451  0.1664  0.0076
31743W        W48004  16.162   8.905  16.082 -0.0023 -0.3673 -0.2073
31744W        W48005   2.324   0.826   0.192  0.2341  0.1192  0.0939
31745W        W48006  16.662  10.519   5.344  0.0897  0.2075  0.0032
31746W        W48007  11.265   0.960  16.061 -0.1297  0.0608  0.0115
31747W        W48008   7.380   3.111   1.135  0.1266  0.1688  0.1297
31748W        W48009  10.849  16.384   0.274  0.1715 -0.0924  0.0882
31749W        W48010  12.590   9.611  16.024 -0.1345 -0.0942 -0.1885
31750W        W48011  15.017  15.166  12.975 -0.1749  0.2184 -0.1728
31751W        W48012  14.127  15.699  12.006  0.1096  0.1981 -0.1257
31752W        W48013  17.532   3.976  14.918 -0.2461  0.2830  0.1801
31753W        W48014  16.458   7.023   3.668 -0.3003  0.0910 -0.0564
31754W        W48015  11.444   4.182  12.073  0.2189 -0.0073  0.1250
31755W        W48016  17.981  15.641  15.565  0.0025  0.4510 -0.3191
31756W        W48017  11.461   0.290   2.207  0.0961  0.2256 -0.2023
31757W        W48018   3.144   2.884   1.749 -0.0235 -0.0584 -0.1423
31758W        W48019   1.945   4.068   1.695 -0.0912  0.1111  0.2375
31759W        W48020  10.866  13.795   2.862  0.3565  0.0083  0.1940
31760W        W48021   0.395   8.344  13.998 -0.0828 -0.1426 -0.3563
31761W        W48022   2.684   3.694   0.368  0.1459 -0.2306 -0.1728
31762W        W48023  12.874   6.261  10.004  0.2562 -0.0610  0.1879
31763W        W48024  17.372   9.821   3.485 -0.2193  0.1520  0.3079
31764W        W48025   5.943   7.401   2.328  0.2959 -0.2901 -0.5014
31765W        W48026   2.803  10.915  15.191 -0.1601 -0.0123 -0.0975
31766W        W48027   4.142   4.587  14.970  0.2773 -0.1384 -0.0385
31767W        W48028  15.805  17.415  13.416  0.2344  0.0227 -0.1436
31768W        W48029  12.054   0.298   2.142  0.2686 -0.0103  0.1494
31769W        W48030  16.643   8.511  11.375 -0.1817  0.3186  0.0537
31770W        W48031  15.134  13.734  12.847 -0.2069  0.1103  0.1476
31771W        W48032  12.811   1.765   4.851  0.2089  0.1416 -0.1259
31772W        W48033   8.775   5.196   4.814  0.1227 -0.0763  0.1455
31773W        W48034  17.342   1.633  11.819  0.2233 -0.0594 -0.0837
31774W        W48035   3.764  11.568  16.028 -0.0794 -0.3142  0.2004
31775W        W48036  14.801   9.921  11.611 -0.1192 -0.1391 -0.1875
31776W        W48037  18.008   8.262   5.093 -0.1522  0.0766 -0.1832
31777W        W48038  14.756  11.015  15.625 -0.1848  0.1236  0.1821
31778W        W48039  12.672   5.242  16.482  0.1508  0.2016  0.1035
31779W        W48040   6.832  10.017  13.090  0.1217  0.1104 -0.0896
31780W        W48041  11.110   4.668  15.101  0.1028  0.2129  0.2840
31781W        W48042   0.565  11.460  12.648  0.1270 -0.3919  0.0653
31782W        W48043   0.448   1.522  14.169  0.0403 -0.2829  0.3318
31783W        W48044  13.541   9.705   4.134  0.3471  0.1408  0.0811
31784W        W48045   3.237  11.351  13.686  0.1088 -0.0226 -0.1936
31785W        W48046  13.061   4.773  15.244  0.1124 -0.2894 -0.0183
31786W        W48047   2.757  16.386  12.308 -0.4117  0.0220 -0.2553
31787W        W48048  11.201   8.631  16.133 -0.0970  0.3308  0.1365
31788W        W48049  12.635  10.673   2.018  0.0693  0.0412  0.0842
31789W        W48050   1.896   7.551  12.691 -0.0948 -0.0948  0.0855
31790W        W48051   5.656  15.184   1.457  0.1162 -0.3333  0.1023
31791W        W48052   4.082  15.715   5.203  0.3371 -0.2507  0.1434
31792W        W48053  11.028  11.389  15.614 -0.0348 -0.0556  0.2532
31793W        W48054   7.242   6.324   1.303  0.2046 -0.1643  0.2298
31794W        W48055   2.366   8.497  15.449 -0.0577  0.0617 -0.1916
31795W        W48056   1.726   8.898  13.364  0.1677  0.2364  0.1826
31796W        W48057   6.831   8.009   0.742 -0.0331 -0.1032 -0.1467
31797W        W48058  14.306   7.584   3.600 -0.6622 -0.0113 -0.1883
31798W        W48059  11.705  16.148   5.580 -0.2412 -0.1789  0.0505
31799W        W48060   6.241   7.607   2.849  0.2901 -0.2362  0.1650
31800W        W48061   1.533   9.787   4.089  0.0996 -0.1881 -0.2641
31801W        W48062   2.573   0.176   2.366  0.2367  0.1619 -0.0069
31802W        W48063  10.303  10.097  11.533  0.1637  0.0306 -0.2256
31803W        W48064   6.016   2.279   5.797 -0.3346  0.2233 -0.0830
31804W        W48065  11.464   5.541  13.798  0.1833 -0.4381 -0.1499
31805W        W48066   2.297   8.001   5.268 -0.3023  0.0027 -0.1700
31806W        W48067  13.574   7.205   5.336 -0.0027 -0.1889 -0.1999
31807W        W48068  12.041  17.072   4.543 -0.1393 -0.4570 -0.1189
31808W        W48069   4.414   1.404  12.279 -0.0666 -0.2061  0.0477
31809W        W48070   8.368  12.637  16.033 -0.0887  0.1187 -0.3719
31810W        W48071  14.965   0.886  16.101  0.0089  0.1590 -0.0123
31811W        W48072  18.119   0.605  15.483  0.2658  0.1524  0.0233
31812W        W48073   7.259   9.093  13.323  0.1576 -0.0731 -0.1098
31813W        W48074   1.508   0.177  15.351 -0.2185 -0.2643  0.0751
31814W        W48075   5.133   3.135   3.653  0.2428 -0.1540  0.0528
31815W        W48076  12.064  16.043  13.689  0.1743 -0.1743 -0.2216
31816W        W48077   6.565   1.524   4.700  0.0681  0.0080 -0.3135
31817W        W48078  12.367   5.184   2.801 -0.0195  0.1970 -0.0926
31818W        W48079   3.171   9.394  12.581  0.2282 -0.0887 -0.0859
31819W        W48080   3.927   2.854   4.015  0.1797 -0.0114  0.0263
31820W        W48081  14.422   6.908  14.935 -0.0404 -0.1327 -0.0267
31821W        W48082  15.063   2.207   0.147  0.1317 -0.0383  0.1332
31822W        W48083  11.827   5.801   3.121  0.0425  0.0979  0.2131
31823W        W48084  17.824   8.768  13.573  0.2659  0.1302  0.3982
31824W        W48085  16.810   2.816  11.792  0.1425 -0.3292 -0.2129
31825W        W48086  16.222  12.926   1.772 -0.2447  0.1670 -0.1547
31826W        W48087   2.759  14.140  14.920  0.1786 -0.1440 -0.3197
31827W        W48088  10.067   9.681  14.499  0.0300 -0.0109 -0.0063
31828W        W48089   5.152  14.253  13.008  0.1167  0.1786 -0.1148
31829W        W48090   5.887   1.059  12.527 -0.0928 -0.0580  0.0509
31830W        W48091  14.008  10.546  15.883  0.2037 -0.1807 -0.0706
31831W        W48092  13.647  16.122   3.448 -0.0511 -0.0749 -0.0607
31832W        W48093  10.245   7.355  14.295 -0.0877 -0.2864 -0.1383
31833W        W48094  12.334   1.209  12.647  0.0785  0.1189 -0.0890
31834W        W48095  10.726  15.461   0.279  0.1460  0.0702 -0.0556
31835W        W48096   3.602  17.306  13.666  0.1918 -0.3916 -0.1680
31836W        W48097  17.256   9.110  14.839  0.1516  0.1756  0.2443
31837W        W48098  17.004   2.099   0.840 -0.2001  0.2118 -0.3531
31838W        W48099   6.855  16.774  13.637 -0.2246 -0.2225  0.2076
31839W        W48100  18.052   9.891   6.197  0.1155  0.0287 -0.0910
31840W        W48101  13.971   6.284   4.251  0.4984 -0.1025 -0.1208
31841W        W48102  16.972  13.369   2.042  0.3311  0.1029 -0.0816
31842W        W48103  13.290  17.337  11.256 -0.2378  0.1966 -0.0536
31843W        W48104  13.779  15.866  13.452  0.1862 -0.0172 -0.0685
31844W        W48105  16.586   3.871  11.665 -0.2706  0.1006  0.2410
31845W        W48106  11.353  14.602  15.075 -0.0606  0.0387  0.0441
31846W        W48107  11.638  12.228  14.404 -0.0168 -0.2456  0.1279
31847W        W48108   7.353   7.720  14.213  0.0182  0.0976 -0.0364
31848W        W48109  14.001   7.574  11.773 -0.3987 -0.0088 -0.0733
31849W        W48110   6.262   3.993  16.213  0.0621 -0.1412 -0.2165
31850W        W48111  17.414  10.913   0.307 -0.2760  0.2050  0.3488
31851W        W48112   4.134  17.304   1.954 -0.0402  0.0846 -0.1382
31852W        W48113   2.292   6.594   1.031 -0.0049  0.2834  0.0715
31853W        W48114   2.731   5.414  12.633  0.1010  0.2430 -0.0025
31854W        W48115  16.887   7.204   0.780 -0.0151  0.1044  0.0790
31855W        W48116   4.233  16.689   5.178 -0.3042 -0.1094 -0.0196
31856W        W48117  18.169  15.225  12.134 -0.0149 -0.0639 -0.3777
31857W        W48118   8.217   1.207   2.900 -0.0973 -0.2805  0.0132
31858W        W48119  15.670  11.393  14.641 -0.2489 -0.0325  0.1360
31859W        W48120  14.881   5.097   5.485  0.0987 -0.2714  0.1957
31860W        W48121   4.602   1.968   3.037 -0.3422  0.1205  0.0020
31861W        W48122  11.041  15.324  12.290 -0.0501  0.2392  0.1441
31862W        W48123   1.239  16.229   3.831 -0.4064  0.0524  0.0314
31863W        W48124   5.619  16.795   4.025  0.2373  0.1347 -0.1953
31864W        W48125   5.187   4.528  12.010  0.0834 -0.1728 -0.1000
31865W        W48126  15.779  14.230  14.276  0.1189 -0.1343  0.2329
31866W        W48127   4.238  10.779  15.643  0.3159  0.1736  0.0573
31867W        W48128   9.596  13.541  12.889 -0.3212 -0.0898 -0.4200
31868W        W48129   2.086   5.752   5.999  0.1995 -0.3265 -0.0434
31869W        W48130  15.865  10.531   4.857 -0.2399 -0.3536 -0.1383
31870W        W48131  17.334   7.417  12.023  0.2589  0.0306  0.0423
31871W        W48132  11.937  17.546  14.828 -0.0799 -0.0721  0.1396
31872W        W48133   3.574   0.143  13.106 -0.1003 -0.0744  0.2322
31873W        W48134  12.623  15.360  13.703  0.1800 -0.1384 -0.0772
31874W        W48135   7.510   8.303   2.888 -0.1796 -0.1359  0.0991
31875W        W48136  17.296   6.924  15.257 -0.0425 -0.1039  0.1142
31876W        W48137   3.293  13.068  12.207 -0.0642 -0.0156 -0.1584
31877W        W48138  17.909  11.846   2.441 -0.2996 -0.1153 -0.2564
31878W        W48139  12.753   7.072   1.818 -0.0661  0.0074  0.1840
31879W        W48140  11.046   1.376  14.465  0.0034  0.1476 -0.1502
31880W        W48141   0.345   0.928   0.644  0.0863  0.3161 -0.3065
31881W        W48142  14.398  11.553   4.866 -0.0940 -0.0742  0.1444
31882W        W48143  18.090   8.389   0.060 -0.1870 -0.3123  0.0713
31883W        W48144  10.891  13.799   2.064  0.1030 -0.0969  0.1119
31884W        W48145   9.015   6.836   0.687  0.0428 -0.0692  0.0859
31885W        W48146  12.233   5.262  15.699 -0.2020  0.2262 -0.0114
31886W        W48147   9.813  16.067   4.114  0.0711  0.1734  0.3659
31887W        W48148   3.158   0.012   0.171  0.0397 -0.1530 -0.1086
31888W        W48149  13.733   9.899   1.869  0.0657 -0.1789  0.0358
31889W        W48150  13.136   9.607  16.227  0.1638  0.0759  0.1701
31890W        W48151  11.312   5.153   5.424 -0.1799  0.1125  0.0624
31891W        W48152  16.928  18.027  13.257  0.0996  0.1673  0.1271
31892W        W48153   3.809  14.196  15.039 -0.1227  0.0076  0.2585
31893W        W48154   6.787  13.062  13.223  0.1462  0.0917  0.1156
31894W        W48155  13.519   1.054   1.137  0.1705  0.1722  0.3561
31895W        W48156   7.657   5.852   2.045  0.0126  0.1230  0.0471
31896W        W48157   0.911   0.587   0.326  0.1303 -0.3207 -0.4969
31897W        W48158  11.594   3.438  13.178  0.0652 -0.2857  0.1060
31898W        W48159   8.985   6.229   1.319 -0.0694 -0.0966 -0.2196
31899W        W48160   4.703  17.217  13.983 -0.2154  0.3044 -0.3513
31900W        W48161   8.825  12.521  14.477  0.2856  0.1138  0.0146
31901W        W48162  13.592   7.067   0.572 -0.2885 -0.0096 -0.0400
31902W        W48163  10.646  12.826   0.080  0.0089  0.2281 -0.2005
31903W        W48164   8.423  13.560  13.755  0.1340 -0.2925 -0.0481
31904W        W48165   5.384  13.317   1.444 -0.1491  0.0099  0.0529
31905W        W48166   1.911  12.510   4.088 -0.3584  0.1141 -0.1559
31906W        W48167   0.412   0.430   5.138  0.0729  0.3342  0.2016
31907W        W48168   7.446   9.590  13.339  0.1100  0.0716 -0.2005
31908W        W48169   6.928   0.226   1.102  0.1718 -0.2336 -0.0377
31909W        W48170   8.684  14.030  12.858  0.1809  0.2611  0.0683
31910W        W48171   6.104  17.324  12.393  0.1511  0.2519  0.0196
31911W        W48172   2.133   4.414   6.359 -0.0693 -0.1705  0.0898
31912W        W48173   7.011  10.005  13.560  0.0644 -0.2641 -0.3517
31913W        W48174   2.100   9.439   4.964  0.0815 -0.2001  0.1371
31914W        W48175  11.179  18.142   2.991  0.1435  0.0254  0.0406
31915W        W48176   9.273  16.329   5.323 -0.0597 -0.0288 -0.2063
31916W        W48177   9.414   4.173  16.276 -0.2986  0.1368  0.0885
31917W        W48178   5.242  12.587   2.292 -0.1565  0.2866 -0.3278
31918W        W48179   8.342  13.370   4.542 -0.0343 -0.0494 -0.0900
31919W        W48180   3.894   5.639  16.596 -0.1667 -0.0254  0.3322
31920W        W48181   7.057   6.801   4.049  0.0461  0.1157 -0.0625
31921W        W48182   3.653   9.332  15.797 -0.0459 -0.2066 -0.2185
31922W        W48183  14.702   2.949  16.513 -0.0918  0.1083 -0.1710
31923W        W48184   6.108   7.998   2.485 -0.4781 -0.1017  0.3660
31924W        W48185  18.056  13.694   2.747  0.1628  0.0176 -0.0081
31925W        W48186   4.411   1.018  16.374 -0.1724 -0.0685  0.0476
31926W        W48187  11.948  15.325  15.218 -0.1051 -0.0913  0.2260
31927W        W48188  15.479  13.433   2.242  0.0751 -0.1960  0.1300
31928W        W48189  12.751   4.757   4.586 -0.2190 -0.0362  0.2589
31929W        W48190  14.090   0.479  15.694 -0.0583 -0.5060  0.2363
31930W        W48191  15.384   5.112   3.141 -0.0408  0.2397  0.1632
31931W        W48192   8.090  12.337   3.799  0.1601  0.1007  0.0161
31932W        W48193  13.542  16.578   0.764  0.1060  0.1326 -0.2206
31933W        W48194  16.376  17.713  16.302 -0.2664  0.1724  0.0383
31934W        W48195   1.988   3.253   2.190  0.0123  0.1915 -0.1176
31935W        W48196  16.514   2.316   3.139  0.0599 -0.3349 -0.0239
31936W        W48197  11.999   7.696   3.896  0.1539  0.0765  0.2538
31937W        W48198   4.792  16.171   5.144 -0.1025  0.1178 -0.1345
31938W        W48199   0.313   7.336   4.980 -0.0623  0.0366 -0.0812
31939W        W48200   2.366  15.342  12.221 -0.1756  0.0768  0.1081
31940W        W48201   4.298   9.692   0.543  0.1720 -0.0913  0.1444
31941W        W48202  15.711  12.784  15.357  0.1254 -0.0297 -0.1147
31942W        W48203   9.298   2.404  15.590 -0.0232 -0.4175  0.0092
31943W        W48204   6.004  17.788   5.262 -0.1664  0.2441 -0.1785
31944W        W48205  14.353  12.115   4.130 -0.1662 -0.2928  0.0684
31945W        W48206   2.942   9.461  15.323 -0.1611 -0.0802 -0.1209
31946W        W48207   1.227  17.340  12.213 -0.0223  0.2027  0.1498
31947W        W48208   8.370   6.278  13.342 -0.0549 -0.0823  0.0396
31948W        W48209  12.244  10.637   2.482  0.3230  0.0706 -0.0134
31949W        W48210   1.374  12.161  14.312 -0.1460  0.1799  0.1514
31950W        W48211  13.141   7.175   4.213  0.0547  0.1115  0.0599
31951W        W48212   1.182   5.893  15.303 -0.0046  0.0282  0.0608
31952W        W48213   9.432   6.642   3.868  0.0640  0.1367  0.1033
31953W        W48214   6.901   4.969  12.815 -0.2573  0.3502  0.1217
31954W        W48215   0.025  13.646   3.650  0.1689  0.1125 -0.2941
31955W        W48216  10.275  17.333   4.255  0.0414  0.0417  0.1272
31956W        W48217   7.969   0.769  15.537 -0.2606  0.2216  0.3062
31957W        W48218   3.885  12.392   1.929 -0.0230  0.1815 -0.0669
31958W        W48219   5.311   0.480   1.994  0.1540  0.3402  0.1547
31959W        W48220  11.924  14.019  14.816 -0.0905  0.0886 -0.1377
31960W        W48221  14.943   5.918  15.164 -0.0653 -0.3532 -0.0137
31961W        W48222   2.514   0.993   1.567 -0.0310 -0.2915  0.3093
31962W        W48223  15.613  14.819   3.395  0.3502  0.0187 -0.2629
31963W        W48224   4.151  11.001   4.424 -0.0661  0.2187 -0.1635
31964W        W48225   9.681   6.637  11.995  0.5190  0.2194 -0.0810
31965W        W48226   8.098  17.294   1.672  0.0560 -0.2710  0.2693
31966W        W48227   9.666   7.583   4.618 -0.0775 -0.1307 -0.1592
31967W        W48228   5.189  11.052   0.877 -0.0778  0.1166  0.0094
31968W        W48229  17.831   2.001  13.657 -0.1477  0.0735 -0.2820
31969W        W48230   0.077  13.389  12.015 -0.1073 -0.0613  0.2212
31970W        W48231   3.907  17.887  15.233  0.1242 -0.0425  0.0818
31971W        W48232   1.283  11.592   3.444  0.0108  0.1067  0.0561
31972W        W48233  17.972  12.503   5.780  0.1722 -0.0476  0.1435
31973W        W48234  10.409  15.830   0.248  0.1567  0.0465  0.4820
31974W        W48235  12.102  15.972  13.182 -0.1901  0.3133 -0.0262
31975W        W48236   0.870  16.635   4.478 -0.0852  0.1192  0.5465
31976W        W48237   6.482  15.028   4.120  0.3311 -0.1102  0.2221
31977W        W48238   2.643   4.957  14.392  0.1617  0.1983  0.0544
31978W        W48239   1.896  11.279   6.355  0.0421 -0.0684 -0.0345
31979W        W48240   0.131  13.449  15.667 -0.2437 -0.0537  0.0836
31980W        W48241   1.511  12.960  12.027  0.0654  0.0251  0.0858
31981W        W48242   2.880  13.310   0.462 -0.1873  0.0702  0.2294
31982W        W48243   9.051  10.092  16.627 -0.4520  0.2804  0.2092
31983W        W48244   8.676   0.214   0.871 -0.3236  0.1895  0.1114
31984W        W48245  16.293   7.179   2.344  0.2824 -0.0769  0.3682
31985W        W48246   6.226  18.073   1.890  0.1646 -0.1039  0.1867
31986W        W48247  10.688   5.862  14.901  0.2152 -0.2379  0.1299
31987W        W48248   5.424  14.557   2.605 -0.0536  0.0396  0.0841
31988W        W48249  15.450   7.311   2.734 -0.1040  0.0254  0.0252
31989W        W48250   4.041   0.334   2.202  0.2305  0.1301  0.0683
31990W        W48251  10.154   6.684  12.188 -0.1438  0.0065 -0.0340
31991W        W48252  12.653  10.748  15.397 -0.0779  0.0864  0.2244
31992W        W48253   3.660   8.705  14.112  0.3788 -0.1038  0.0036
31993W        W48254   5.415   9.399  15.820 -0.1462  0.4776 -0.2001
31994W        W48255  12.754   8.775   4.129 -0.1064 -0.0246  0.0698
31995W        W48256   1.678  15.129  14.542 -0.0916 -0.4528  0.0196
31996W        W48257  10.640  16.514   5.278  0.0776  0.1565  0.1127
31997W        W48258   7.569  11.088   0.273  0.0809  0.0287 -0.0557
31998W        W48259   6.846   9.775  14.815 -0.2275 -0.1237 -0.3256
31999W        W48260  14.740   0.369   3.308  0.3592 -0.0258  0.0765
32000W        W48261   7.127  13.478  13.455 -0.1804 -0.1150  0.2078
32001W        W48262  13.690   1.243   3.830  0.0704  0.0907 -0.0142
32002W        W48263   1.651   6.289   0.345 -0.2235 -0.1232  0.2134
32003W        W48264   1.426   5.041   5.595 -0.2887  0.3479  0.3224
32004W        W48265   1.022  16.982  13.111 -0.1651  0.2257 -0.0346
32005W        W48266  11.259  17.701  14.260 -0.0856  0.2602  0.1906
32006W        W48267  14.660   5.903   0.933  0.1731 -0.0730  0.0505
32007W        W48268   8.659  11.526   1.476 -0.1145  0.2104  0.1135
32008W        W48269   2.866  15.123   0.258 -0.0754 -0.1021  0.0428
32009W        W48270  15.994   7.223  13.088 -0.2704  0.3459  0.0637
32010W        W48271   2.538  10.915   5.514 -0.0129 -0.2971  0.0351
32011W        W48272  12.568  14.004   3.432  0.1823 -0.2407 -0.0720
32012W        W48273  10.444  13.008   3.892  0.1029 -0.2676  0.2948
32013W        W48274  10.075  13.864  15.497  0.0709 -0.0775  0.2576
32014W        W48275  15.262  13.631   4.235 -0.1225 -0.3048 -0.0604
32015W        W48276   0.273   6.894   0.413  0.2579  0.1876 -0.1762
32016W        W48277   8.999   0.501  14.128  0.1128 -0.0645  0.1709
32017W        W48278   3.273   9.050   3.249 -0.1213 -0.0904  0.2935
32018W        W48279  17.107  16.621   0.740  0.2027 -0.0111  0.1742
32019W        W48280  13.032   5.127  11.864  0.3740  0.0682  0.0680
32020W        W48281  14.107   5.001   2.396 -0.1836  0.0825  0.0150
32021W        W48282   5.239  12.137   4.101  0.0960 -0.2109 -0.2443
32022W        W48283   2.372   0.399   0.635  0.2671  0.3587  0.2063
32023W        W48284   8.909   1.319  10.957 -0.0757  0.1982  0.2425
32024W        W48285  13.472   6.225   0.159  0.0568 -0.0736 -0.0243
32025W        W48286  16.919  13.489  14.986  0.2708  0.2618 -0.1890
32026W        W48287  13.418   9.230  14.511  0.0418 -0.0843  0.0272
32027W        W48288   4.124  17.471   6.221 -0.2444 -0.2441 -0.3422
32028W        W48289   4.021   1.136  12.692  0.3692  0.1066 -0.2584
32029W        W48290  17.948   4.563  11.872  0.0943  0.1522  0.0101
32030W        W48291   9.350   5.724  12.291  0.0126  0.2228 -0.4291
32031W        W48292   4.859   3.279  12.575 -0.2992 -0.0017  0.2717
32032W        W48293  12.365   7.823  11.333  0.0214  0.0004 -0.1374
32033W        W48294  17.217  17.950   0.687 -0.1388 -0.0026  0.0722
32034W        W48295  14.268  14.604   3.760  0.1693 -0.2756 -0.0826
32035W        W48296  14.523  11.372  15.930  0.1989  0.1181  0.1641
32036W        W48297   9.682   2.320  16.021  0.2741 -0.0998 -0.2789
32037W        W48298  13.123   1.503  11.678  0.0735 -0.2369  0.1388
32038W        W48299  16.913   5.948   4.922  0.2372 -0.0619 -0.2315
32039W        W48300  11.086   5.211   1.697  0.0048 -0.1174 -0.2880
32040W        W48301  12.157   9.157  15.221  0.3041  0.2238  0.0647
32041W        W48302  11.224  10.141   3.628  0.1107  0.1258 -0.0685
32042W        W48303  11.172   2.671   2.388  0.1987  0.4006 -0.2594
32043W        W48304   8.382   3.113  16.172 -0.1082 -0.1191 -0.1530
32044W        W48305   3.928  12.417  14.133 -0.0298  0.0678  0.1553
32045W        W48306   9.865  13.715  15.048  0.2410 -0.1086 -0.1586
32046W        W48307   6.877   7.441  14.244  0.0122  0.0092  0.0806
32047W        W48308   0.325  17.612  12.106 -0.0923 -0.1896 -0.0644
32048W        W48309   3.130   2.227  13.415  0.1941 -0.0226  0.2463
32049W        W48310  16.262   3.164   1.077 -0.0382 -0.1638 -0.0547
32050W        W48311   6.472   6.203   2.686 -0.1215 -0.3013  0.0547
32051W        W48312  12.853   1.896  15.964 -0.1208 -0.1715  0.3326
32052W        W48313   6.000   3.249   4.259 -0.0435 -0.2771 -0.0925
32053W        W48314  12.622   6.174  11.888 -0.0615 -0.1387 -0.0127
32054W        W48315  13.885   7.586   1.411  0.0734  0.0486 -0.0211
32055W        W48316   8.702   9.445  13.349 -0.2096 -0.0408 -0.0472
32056W        W48317  11.763   3.458   3.020  0.0982 -0.2972 -0.2723
32057W        W48318   5.223  10.522  12.006 -0.1795  0.2388 -0.3661
32058W        W48319  16.281   0.343   4.061  0.0878  0.0328  0.1111
32059W        W48320   5.452  12.579  16.066  0.2048 -0.2730  0.1588
32060W        W48321   7.085  11.525   1.339  0.2074 -0.0430  0.0071
32061W        W48322   7.589  12.148  14.112 -0.2408  0.1755  0.0221
32062W        W48323   4.639   8.183   4.108  0.0132  0.0812 -0.2146
32063W        W48324  16.802  11.303   1.541  0.2515  0.3986  0.0905
32064W        W48325  14.192  16.153   0.500 -0.0247  0.4180 -0.0126
32065W        W48326   9.498   7.268   3.215  0.0934  0.0756 -0.1900
32066W        W48327   9.950  17.047  11.957  0.1166  0.1356 -0.0040
32067W        W48328  15.222   5.609   3.170  0.3783  0.3877 -0.2678
32068W        W48329   9.705   2.662   0.935  0.1133 -0.1683 -0.2669
32069W        W48330   2.780   3.529  14.376  0.3568  0.1900  0.0061
32070W        W48331  16.698  14.373  13.731 -0.1413  0.1301 -0.1422
32071W        W48332   2.007   8.975   0.608 -0.0592 -0.1383  0.2315
32072W        W48333   3.485   4.227  11.018  0.1458 -0.0056  0.0662
32073W        W48334   5.594  14.039   2.325 -0.0477  0.0795  0.0412
32074W        W48335  10.872   4.767   2.180  0.2306  0.1398  0.1768
32075W        W48336  14.820   4.998   2.532 -0.2483  0.1942 -0.0131
32076W        W48337   3.961   2.533   5.729  0.3026  0.0105 -0.4965
32077W        W48338   4.279  14.213   0.774 -0.0933  0.1298 -0.1514
32078W        W48339  10.466  13.987   3.723  0.0112  0.3641  0.0565
32079W        W48340   2.290   1.797  13.012 -0.1833  0.0615  0.0073
32080W        W48341   3.163   1.267  14.210  0.3494  0.3200  0.3133
32081W        W48342   5.494  10.432   3.870  0.1085  0.0254  0.2181
32082W        W48343  12.814  10.673   3.358 -0.2089 -0.0694 -0.1349
32083W        W48344   2.790   1.564  15.192 -0.4853 -0.2033  0.0180
32084W        W48345  16.559   7.959  14.185 -0.0961 -0.4577 -0.2017
32085W        W48346   0.681  11.452   2.982 -0.0570  0.1648  0.1999
32086W        W48347  11.299  15.112  13.376  0.0211 -0.0859  0.3628
32087W        W48348  17.467  16.067  11.791 -0.2707  0.0216 -0.1860
32088W        W48349  13.851   5.740   3.036 -0.1250 -0.0351  0.0803
32089W        W48350  10.210   9.184  13.850  0.1240  0.1930  0.0268
32090W        W48351  12.168  17.459   3.833  0.2674 -0.1676 -0.2681
32091W        W48352   5.458  18.137   6.115  0.0625 -0.0707  0.1172
32092W        W48353  10.900   8.568   6.372  0.0003 -0.1209  0.0839
32093W        W48354  14.575   4.055  16.158 -0.2004  0.4449  0.1173
32094W        W48355  15.953  12.979   3.907  0.0964  0.1580  0.2873
32095W        W48356   2.469   5.673  16.329  0.1780  0.0745 -0.1345
32096W        W48357  12.786   1.170  12.349 -0.0288  0.1097 -0.0392
32097W        W48358   2.295   0.238  14.810 -0.1955 -0.0048 -0.0443
32098W        W48359   7.355   5.433  16.114 -0.2094 -0.1331 -0.1001
32099W        W48360  14.929   9.260  13.499  0.0720  0.0006  0.2236
32100W        W48361  12.818  13.675   3.014 -0.0074  0.1307 -0.1141
32101W        W48362   5.595   9.064   2.571  0.0503  0.2129 -0.0973
32102W        W48363   9.307  11.294  16.283 -0.1612  0.1375  0.2242
32103W        W48364   4.535  10.155   1.457 -0.0152  0.0411 -0.2186
32104W        W48365   2.782   3.084  15.908 -0.0398  0.0885  0.0613
32105W        W48366   8.858  12.383   2.779  0.0523  0.3412 -0.0924
32106W        W48367   0.057  10.291  15.756 -0.2634  0.0248  0.0432
32107W        W48368   1.842  13.167  13.733  0.3861  0.1262 -0.0375
32108W        W48369  14.211   4.228  14.610  0.2865 -0.0383 -0.3158
32109W        W48370   9.036  12.248   3.205 -0.0174 -0.3561  0.0501
32110W        W48371  17.837  12.499  11.988 -0.1655  0.0211  0.3564
32111W        W48372  14.786   6.791   3.658  0.0613  0.6438  0.1856
32112W        W48373   7.659  16.030   5.484 -0.0496 -0.1013  0.1436
32113W        W48374  16.649  12.640  13.650  0.0132  0.0066  0.2169
32114W        W48375  13.505   6.506  13.172  0.1716 -0.0919  0.1649
32115W        W48376  13.337   3.984   1.895 -0.1300  0.1084 -0.0756
32116W        W48377  10.816   1.238   4.375  0.2746  0.0384 -0.0698
32117W        W48378  17.337  12.048  15.960  0.0720 -0.4721  0.2459
32118W        W48379  10.457   6.120   0.324 -0.0015 -0.1700  0.0272
32119W        W48380   3.730   7.823   4.202 -0.1137 -0.0546  0.1047
32120W        W48381   5.421  17.496   3.096  0.0743 -0.0821  0.2043
32121W        W48382   3.338   2.049  12.527  0.0421  0.4156  0.0946
32122W        W48383  12.208   5.141   3.661 -0.1241 -0.0130 -0.0205
32123W        W48384   9.979  15.899   2.327 -0.0274  0.1377  0.0473
32124W        W48385   4.027   1.052  13.836  0.1096  0.1444  0.0336
32125W        W48386  16.996   4.364  13.036  0.1686  0.4572  0.1726
32126W        W48387   3.154  11.210   0.667  0.1181  0.4451  0.2769
32127W        W48388  11.097  13.358  14.853 -0.0487  0.0987 -0.1757
32128W        W48389   4.394   0.238   3.343  0.2342 -0.0696 -0.1640
32129W        W48390  14.054  10.556   5.188 -0.0941  0.0678 -0.2778
32130W        W48391   0.095   0.139  13.881  0.1316  0.0853  0.2870
32131W        W48392   3.983  17.037  12.835 -0.2182 -0.0964  0.1708
32132W        W48393  15.714  13.955   2.176 -0.0669  0.2447  0.0582
32133W        W48394  16.318  14.977   0.704  0.2146  0.0090  0.0742
32134W        W48395   7.881  14.534  13.162  0.0857 -0.1561 -0.4536
32135W        W48396  12.817   5.214  11.413  0.1204 -0.2314  0.2047
32136W        W48397   3.436  16.255  11.965 -0.1294 -0.0017 -0.2825
32137W        W48398  16.946  10.709   2.069 -0.2175  0.0754 -0.0290
32138W        W48399   2.843   8.945   1.110  0.1715 -0.1726  0.1811
32139W        W48400  10.729   4.123   4.011  0.3430 -0.5101 -0.0621
32140W        W48401   7.242   6.128  14.407 -0.2605 -0.0381  0.0046
32141W        W48402   4.319   1.813   4.513  0.2690  0.3081  0.0675
32142W        W48403   3.261  15.428  12.364 -0.0179 -0.3392 -0.1654
32143W        W48404   5.502   6.940  12.347  0.0644  0.1286 -0.0959
32144W        W48405  17.245   0.630  14.305  0.3049 -0.0532  0.0354
32145W        W48406  14.517  13.885  11.565  0.0124  0.2562 -0.2014
32146W        W48407  11.391   8.210   4.403 -0.2026  0.0336  0.2138
32147W        W48408  11.046   3.803  12.999  0.1652 -0.1437 -0.1360
32148W        W48409   2.211   6.402  12.051 -0.2040 -0.0852 -0.1044
32149W        W48410  12.651   6.097   2.284  0.2176 -0.0419  0.2124
32150W        W48411   5.575  13.949   3.371 -0.1998  0.0780  0.0046
32151W        W48412  10.739   9.014  13.614  0.2576 -0.1630  0.1456
32152W        W48413   7.706   9.690  11.422  0.2328 -0.4399  0.1405
32153W        W48414   8.296  13.453  14.283  0.0294  0.0458 -0.3039
32154W        W48415  12.703   2.701  15.473  0.0721  0.1266  0.0491
32155W        W48416  16.336   6.426   0.959  0.1089 -0.0653 -0.1956
32156W        W48417   4.609   8.588   3.414 -0.3095 -0.3750  0.3993
32157W        W48418   1.164   4.586   2.813  0.1834 -0.0475 -0.2195
32158W        W48419   6.689  13.879  16.143  0.1746 -0.0386  0.0732
32159W        W48420  18.083  10.512  16.165  0.0783  0.0933 -0.1340
32160W        W48421   2.180   1.971   3.578 -0.2859  0.3108 -0.0770
32161W        W48422   4.720   0.984   0.093  0.2715  0.1187 -0.2068
32162W        W48423  12.203  11.496   3.801  0.0979 -0.2169  0.2256
32163W        W48424   6.960   9.636   0.755  0.0317 -0.3240 -0.0769
32164W        W48425   6.522   3.025  16.630 -0.1824 -0.0208  0.0014
32165W        W48426   0.876   0.189  13.903 -0.0958 -0.1136  0.0070
32166W        W48427  18.037  13.926   5.421 -0.0505 -0.0477  0.0801
32167W        W48428  16.621   0.361   2.773 -0.1533 -0.0840  0.2214
32168W        W48429   6.085  14.085   4.754  0.1720  0.2269  0.1102
32169W        W48430  15.015   9.260  13.989 -0.0860  0.0094  0.1068
32170W        W48431   3.265  15.201   2.013 -0.1184 -0.2104 -0.2628
32171W        W48432   4.112   6.103   3.816 -0.1540  0.0094 -0.1462
32172W        W48433   0.990  11.031   4.781 -0.1803 -0.0978 -0.0146
32173W        W48434  15.504  16.338  14.242  0.0066 -0.0061  0.0517
32174W        W48435   7.113   6.546  14.582 -0.1142 -0.4552 -0.0008
32175W        W48436   6.481  14.029  13.097 -0.0084  0.1722 -0.0258
32176W        W48437   8.558   7.258   5.298 -0.2220  0.2897 -0.0230
32177W        W48438  16.194  13.492  15.729  0.1015 -0.0840 -0.2294
32178W        W48439  11.413  13.525   5.508 -0.0824 -0.3869  0.0038
32179W        W48440  17.935   9.664   4.889  0.1911  0.1908  0.1975
32180W        W48441  10.448   8.717   4.696  0.3268  0.1208 -0.3531
32181W        W48442   8.710   1.119  15.156 -0.2329 -0.2659  0.2888
32182W        W48443  16.810   5.996  12.042 -0.3364 -0.2911  0.0217
32183W        W48444  16.174   3.945  13.073  0.1626  0.1339  0.1289
32184W        W48445  16.368   9.752  13.942  0.1206  0.1636 -0.2249
32185W        W48446  11.149  10.300   5.682  0.2530 -0.0405  0.0290
32186W        W48447  11.296   1.593  14.060  0.2115  0.3012 -0.3626
32187W        W48448   6.329  13.676   2.216  0.0056 -0.0485  0.1303
32188W        W48449   9.073   2.681   4.336 -0.0568 -0.0567 -0.0804
32189W        W48450   9.964  10.209  13.041  0.0115 -0.0901 -0.0667
32190W        W48451  14.653   6.280  13.704 -0.0063 -0.3144 -0.1867
32191W        W48452   1.459   4.538  16.537  0.2726 -0.1605 -0.2286
32192W        W48453  12.173  14.602   1.187  0.2640 -0.1945 -0.2514
32193W        W48454  17.369  18.035   2.355  0.0145  0.0739  0.0596
32194W        W48455   1.419   0.981  13.950  0.1965 -0.0200  0.2770
32195W        W48456   5.452   8.718  14.301  0.0895  0.2336  0.1611
32196W        W48457   7.055   0.919  13.828 -0.0774 -0.0824 -0.0566
32197W        W48458   1.179   3.992   6.682 -0.2389  0.0495 -0.1715
32198W        W48459   2.143   5.337   1.830  0.2489  0.0667 -0.0859
32199W        W48460   3.732  14.644   3.912 -0.1650 -0.0004 -0.1575
32200W        W48461   9.997  12.878   1.802  0.2389  0.1650 -0.3406
32201W        W48462  14.651   0.951  12.267  0.0027 -0.0195 -0.1019
32202W        W48463  10.231  10.623  11.683  0.0370  0.5050  0.1573
32203W        W48464  12.171  11.705  15.422  0.2347  0.2218 -0.2306
32204W        W48465   5.656  15.752  13.561 -0.1467  0.4797  0.0784
32205W        W48466   0.842   3.016   3.699  0.2443 -0.4018 -0.1878
32206W        W48467  15.742  17.328  14.661 -0.3820 -0.0728 -0.2053
32207W        W48468  10.275   8.211  14.963  0.1456  0.1170  0.1468
32208W        W48469   8.627   9.600  13.854  0.0507  0.3813  0.1180
32209W        W48470   2.388  14.964   2.339  0.1346 -0.1022  0.0368
32210W        W48471   0.090   7.622   3.672  0.1341 -0.0003 -0.0197
32211W        W48472   0.973   9.510  15.167  0.0394  0.0965  0.1542
32212W        W48473   5.554  14.813  16.196  0.0068  0.0486 -0.0641
32213W        W48474   6.519   9.678  15.770 -0.2128  0.3582  0.1210
32214W        W48475  10.417   8.293   1.378 -0.3176  0.0057  0.0590
32215W        W48476  13.298   0.857  12.977 -0.0721 -0.0865 -0.0248
32216W        W48477   5.500   6.619  14.867 -0.0747  0.2439  0.1089
32217W        W48478  11.648   5.916  14.859 -0.0197 -0.1913 -0.2625
32218W        W48479  16.981  17.015  11.510 -0.0424  0.0608  0.0600
32219W        W48480   5.862  17.580  13.689  0.2090  0.4867 -0.0953
32220W        W48481  10.427  11.070  13.449  0.2531  0.0184  0.1359
32221W        W48482  17.148  16.222  13.351  0.1291 -0.1988 -0.2437
32222W        W48483   0.870   7.566   5.514  0.0409 -0.0972 -0.0099
32223W        W48484   3.333   6.173   0.303 -0.0624  0.3240 -0.2521
32224W        W48485   1.173  13.972  11.841 -0.0840  0.0927  0.0229
32225W        W48486  17.717  17.985   0.356  0.2072  0.1491  0.1340
32226W        W48487   3.692  17.900   0.665  0.0098  0.0755 -0.2064
32227W        W48488   0.062  14.054   4.650 -0.5745  0.1190 -0.1649
32228W        W48489  10.760  17.822   2.828  0.0779  0.2301 -0.0331
32229W        W48490  18.150   2.245  12.798 -0.0019 -0.0525  0.3957
32230W        W48491  11.657   7.190   3.966  0.0079 -0.2035 -0.0946
32231W        W48492  14.558   8.838   1.468  0.0676  0.0844 -0.1355
32232W        W48493  15.735   6.629  13.223 -0.0002 -0.2211 -0.1536
32233W        W48494   4.281   3.802   2.621 -0.1434  0.1959  0.0752
32234W        W48495   1.490   1.774   4.488  0.5499  0.1384 -0.0576
32235W        W48496   4.027  10.361  13.322 -0.0022  0.3620  0.1593
32236W        W48497   8.518  12.592   4.375 -0.3018 -0.0880  0.0250
32237W        W48498   1.376  10.356   3.292  0.2002  0.4073 -0.1685
32238W        W48499  17.076   6.169  12.767 -0.1057  0.0254 -0.1314
32239W        W48500   5.438   9.706   1.900  0.2750  0.1871  0.0241
32240W        W48501  11.294   5.027  12.716 -0.2314  0.0313  0.0954
32241W        W48502  15.269   5.282   5.173  0.2552  0.1355  0.1013
32242W        W48503   8.123   3.287   3.309  0.0894  0.0197 -0.1594
32243W        W48504  14.946  17.303  15.980 -0.2660 -0.0629  0.3546
32244W        W48505   8.183   6.958  12.132 -0.1891  0.3558 -0.0092
32245W        W48506  13.598  17.047  11.921  0.1131  0.3318 -0.2434
32246W        W48507  12.506  14.635  15.535  0.0434  0.3221 -0.0315
32247W        W48508  10.453   5.595   5.553  0.1411 -0.1511  0.1398
32248W        W48509   9.690   5.923   0.996 -0.4180  0.2093  0.1678
32249W        W48510  12.198   1.643   4.481  0.2006  0.0041  0.2767
32250W        W48511  14.068   9.333   5.020 -0.1206 -0.0659  0.0786
32251W        W48512  11.094  17.411  13.791 -0.0908  0.1259  0.0182
32252W        W48513   8.854  11.385  15.387 -0.2144  0.0316  0.2517
32253W        W48514   0.888  12.141  11.785  0.2594 -0.1705  0.1416
32254W        W48515  13.892   2.158  12.769 -0.0932  0.3183  0.3662
32255W        W48516  10.454  11.802   2.101 -0.0054 -0.0172 -0.0734
32256W        W48517   1.823   7.511   4.540 -0.0502 -0.0697  0.0833
32257W        W48518   3.197   4.460   0.172  0.3004  0.1263 -0.0941
32258W        W48519   8.087   8.758   5.770 -0.1899 -0.1085 -0.1313
32259W        W48520   0.700   8.459  14.581 -0.0723 -0.0005 -0.0276
32260W        W48521   8.268   2.246   4.346  0.0498  0.1855  0.1551
32261W        W48522   7.988  11.662  16.317 -0.1056 -0.1533  0.0420
32262W        W48523  14.547  11.435  15.366  0.2439 -0.1624 -0.3239
32263W        W48524   0.171  12.249   5.969  0.1239 -0.3421  0.1288
32264W        W48525  16.502   6.586   2.161  0.1648 -0.1005 -0.1586
32265W        W48526  17.195   0.005   5.473 -0.0115 -0.1374  0.0063
32266W        W48527  10.007   5.847  11.674 -0.1067  0.0207  0.5286
32267W        W48528  11.818   4.431  13.338 -0.3267  0.0907 -0.0466
32268W        W48529   4.399  14.173   2.942  0.1641  0.1863  0.0111
32269W        W48530  10.567   0.366   3.686  0.1144  0.2686 -0.3450
32270W        W48531   0.508   6.843   4.093 -0.5588 -0.2614 -0.0825
32271W        W48532   8.311   8.335   3.241 -0.1932  0.0881 -0.1143
32272W        W48533   1.349  13.792  14.233  0.0411 -0.1946 -0.1171
32273W        W48534   3.539   1.866  14.909  0.1958 -0.0107  0.2691
32274W        W48535   8.699   1.794  13.578 -0.1214 -0.2015  0.0516
32275W        W48536  17.873  16.544   1.458 -0.4061  0.4808 -0.0100
32276W        W48537  12.225   4.180   0.628  0.0056  0.0749 -0.0001
32277W        W48538   6.834  14.732   4.893  0.0402 -0.0425  0.2610
32278W        W48539  15.324   0.857   5.785  0.1779 -0.2059 -0.2933
32279W        W48540   0.017  18.084   0.088 -0.5634 -0.1873 -0.1728
32280W        W48541  14.650   2.185   0.587 -0.0566  0.1253 -0.1560
32281W        W48542   7.370   3.069  14.117  0.2784  0.1093 -0.2187
32282W        W48543   7.131  17.666   4.617 -0.0114  0.1520 -0.0073
32283W        W48544   9.780  10.943  14.235 -0.0768 -0.3250 -0.0079
32284W        W48545  11.383   0.227  13.147  0.2401 -0.1588  0.1321
32285W        W48546   4.233   0.409  15.358  0.0921 -0.2864 -0.0969
32286W        W48547  10.315  14.498  15.367 -0.2495  0.0262 -0.1769
32287W        W48548  10.123   7.341  16.466  0.1556  0.3416 -0.3636
32288W        W48549   7.552  18.027   4.515  0.0224  0.1017 -0.2953
32289W        W48550   3.113   3.007  15.469 -0.0900 -0.1145 -0.1094
32290W        W48551   8.981   0.402  15.062 -0.0772 -0.0819  0.1176
32291W        W48552   5.900   0.780   4.030 -0.0557  0.1283 -0.1817
32292W        W48553   1.553   7.884   4.577  0.0668  0.0366 -0.1455
32293W        W48554  15.497   2.681   4.346 -0.0520  0.0332  0.2742
32294W        W48555   8.556   3.395   1.469 -0.2036 -0.0873  0.0303
32295W        W48556   8.554  13.267   4.998  0.3079 -0.0436 -0.0241
32296W        W48557   0.830  15.477   2.563  0.0433  0.1109  0.0384
32297W        W48558  15.213   1.542   3.918 -0.1360  0.1933  0.2412
32298W        W48559  16.332  15.085   3.385  0.0833 -0.1466  0.0103
32299W        W48560  18.034   0.528  13.593 -0.0529  0.2373 -0.2147
32300W        W48561  12.390   4.914   2.398  0.1838  0.0300 -0.4087
32301W        W48562   3.307  12.520  12.183 -0.0125  0.2574  0.2654
32302W        W48563  11.056  13.326   3.017 -0.0233  0.2106  0.4968
32303W        W48564   0.937  14.156   3.498 -0.0760 -0.0002  0.1599
32304W        W48565  11.641  17.164  13.676 -0.2133  0.1160 -0.4031
32305W        W48566   9.125  17.058   0.582  0.0870 -0.0345 -0.0084
32306W        W48567  11.336   4.624  11.308 -0.2557  0.0641  0.0233
32307W        W48568   1.959  14.643   4.654 -0.2024 -0.2234 -0.0258
32308W        W48569   1.659   1.041   4.588 -0.1895  0.1011  0.2017
32309W        W48570  17.845   4.170  15.378  0.2434 -0.1187 -0.4489
32310W        W48571   0.320  14.337   2.131  0.2851 -0.2147 -0.0613
32311W        W48572  13.236  13.120  13.423 -0.1946 -0.0649 -0.0407
32312W        W48573   3.441   2.998  12.276 -0.1159  0.0256  0.0748
32313W        W48574  12.377   7.014   3.357  0.0906  0.2052  0.0760
32314W        W48575  10.566   2.768   5.734 -0.2909 -0.1162  0.0717
32315W        W48576   7.477   1.726   4.038  0.1681 -0.1935  0.4252
32316W        W48577  17.564   9.376   4.057  0.0240  0.1424 -0.1222
32317W        W48578  17.662   3.508  15.304 -0.1774 -0.1909 -0.0233
32318W        W48579  15.691  16.192   3.445  0.0151 -0.1806  0.0452
32319W        W48580   6.383  13.425  14.009 -0.2027  0.0911 -0.2400
32320W        W48581  11.283  14.101   1.265  0.0571 -0.3479  0.0650
32321W        W48582  12.606   6.923   4.290  0.0355 -0.1009  0.0032
32322W        W48583   7.487   1.797   2.533 -0.1715  0.3445  0.2814
32323W        W48584   8.371  12.157   2.883 -0.0479  0.0362 -0.1404
32324W        W48585  16.385   3.421   0.674  0.3344  0.1274  0.1429
32325W        W48586   9.796  12.580  11.768 -0.1484 -0.0091  0.2661
32326W        W48587  17.961   3.616   4.518 -0.0134  0.0916  0.0688
32327W        W48588  12.684   1.984   4.385 -0.0071 -0.0763  0.0132
32328W        W48589  12.155   3.607   3.367  0.1097  0.0705  0.2257
32329W        W48590  12.707   0.877   1.254 -0.0418 -0.2260 -0.1819
32330W        W48591  15.849  14.667   2.652 -0.0051 -0.0933  0.0511
32331W        W48592   9.382   5.677  15.190 -0.3036 -0.0009  0.4032
32332W        W48593  14.884  12.175   4.358 -0.0145 -0.2113 -0.2514
32333W        W48594  13.617   2.437  15.093  0.0946 -0.1599 -0.1745
32334W        W48595   9.441   1.639   0.970  0.2529  0.1137  0.0700
32335W        W48596   2.085  15.348   5.170 -0.0111  0.0401 -0.1089
32336W        W48597   3.847   4.775  12.330 -0.2266 -0.0337  0.0965
32337W        W48598  16.074  14.747  13.778 -0.0549  0.4157  0.0174
32338W        W48599  17.280  11.163  15.116 -0.0626  0.3414 -0.1735
32339W        W48600  17.313  10.922  14.567 -0.2223  0.1703 -0.0074
32340W        W48601   2.280   3.917   1.250 -0.2344 -0.0782 -0.1815
32341W        W48602   2.657   0.353   3.088 -0.4962  0.3417  0.4397
32342W        W48603  10.179  11.029  11.998 -0.2974  0.1263  0.2438
32343W        W48604   1.749   6.274  15.145  0.0936 -0.1101 -0.3183
32344W        W48605  17.213  14.032  16.350  0.0470  0.1410  0.0095
32345W        W48606  11.026   2.040  11.232  0.1588  0.0195 -0.0798
32346W        W48607  14.394   4.010  13.621 -0.1217 -0.1555 -0.1757
32347W        W48608   0.811  16.553  15.416  0.1106  0.2936 -0.1875
32348W        W48609   2.732   5.495  13.619 -0.0761 -0.0466  0.0492
32349W        W48610   4.377  14.640   5.804  0.1858  0.0099  0.0604
32350W        W48611  17.489  10.699  15.103 -0.1101 -0.3394 -0.0805
32351W        W48612   6.314  14.669   3.685 -0.1907 -0.0753  0.0089
32352W        W48613   8.686  12.565  15.009 -0.1543  0.0231  0.1281
32353W        W48614  13.296  13.955  14.321  0.1056  0.0688 -0.0947
32354W        W48615  14.300   2.074   0.224 -0.1520  0.1045 -0.0965
32355W        W48616  12.992   6.766   1.429 -0.3612  0.2048 -0.2179
32356W        W48617   4.893   0.307   2.064  0.1141 -0.0103 -0.0876
32357W        W48618  12.529  16.505   1.762  0.2643 -0.4295 -0.0579
32358W        W48619  17.946  13.040  14.100 -0.0458  0.2088  0.2736
32359W        W48620   1.846  12.304   3.106  0.1263  0.5005 -0.0871
32360W        W48621   8.998   4.337  15.973  0.0056  0.0129 -0.1664
32361W        W48622   3.941   0.664  13.281  0.1408 -0.0718 -0.0232
32362W        W48623  14.089  11.528  16.259 -0.0872 -0.2135  0.2440
32363W        W48624   1.477   9.561  14.447  0.0960  0.1535 -0.0128
32364W        W48625  17.546   9.996   6.149  0.4423 -0.2620  0.0132
32365W        W48626  11.059  17.630  15.127 -0.2429 -0.0308  0.0826
32366W        W48627  17.532   8.509  15.555  0.0379  0.0801 -0.3123
32367ION     NA48628   9.372  15.900  12.641 -0.2280  0.2274 -0.0743
32368ION     NA48629   0.972   6.944  10.781  0.0886 -0.1297 -0.1661
32369ION     NA48630   0.160  13.662   5.758  0.0737 -0.0502 -0.0466
32370ION     NA48631  12.776   9.136  15.884 -0.0245 -0.2991  0.2501
32371ION     NA48632  15.883  13.402  10.418 -0.2885  0.2815 -0.0006
32372ION     NA48633   2.378  14.660  11.032 -0.1455  0.2461 -0.0935
32373ION     NA48634   1.448  15.523  10.560 -0.2033  0.4091 -0.2873
32374ION     NA48635  15.655  10.434   1.019  0.0107 -0.0001  0.2220
32375ION     NA48636   2.669  15.922   6.405 -0.0302 -0.4787 -0.2297
32376ION     NA48637  13.263  15.691  12.294  0.2075  0.0259  0.2240
32377ION     NA48638  16.656   4.774  12.857  0.0646  0.0675 -0.0094
32378ION     NA48639  13.804  17.938   5.727 -0.2446 -0.1234 -0.0948
32379ION     NA48640   4.311  14.498  10.933  0.1467 -0.4999  0.0320
32380ION     NA48641   4.958   3.947  14.902 -0.3271 -0.0317 -0.2938
32381ION     NA48642   6.845  12.504  10.793  0.2184 -0.4509  0.0249
32382ION     NA48643   5.350  15.319   6.670 -0.1770 -0.0088 -0.2584
32383ION     NA48644  18.171   8.344  10.642  0.0054 -0.2082  0.2240
32384ION     NA48645  14.694   6.347   5.488 -0.2051 -0.0782  0.4243
32385ION     NA48646   4.938   6.699  10.566  0.3121  0.0819  0.5464
32386ION     NA48647  11.600   4.146  10.070 -0.0615  0.1392  0.0268
32387ION     NA48648   8.878   0.981  10.585  0.0839  0.1212  0.3404
32388ION     NA48649   2.570   6.340   4.842  0.0280 -0.0733 -0.0129
32389ION     NA48650  14.978   9.114  10.441 -0.0802  0.0334  0.0606
32390ION     NA48651  11.044   6.440   5.588 -0.2013  0.0273  0.2826
32391ION     NA48652   9.957  11.472   1.162 -0.0745  0.2526  0.0636
32392ION     NA48653   0.651  16.448  10.651  0.4245  0.1471 -0.3628
32393ION     NA48654   3.242   5.660  13.514  0.0381 -0.0601 -0.2046
32394ION     NA48655  14.092   8.676  10.397  0.0851  0.0173 -0.3333
32395ION     NA48656  11.416  10.759   3.989  0.0955 -0.3589  0.0210
32396ION     NA48657   4.251  11.241   5.989  0.2537 -0.0609 -0.0110
32397ION     NA48658   4.942   3.522  10.857  0.1670  0.1833 -0.2856
32398ION     NA48659   4.890  15.954   6.522  0.3789 -0.3594  0.1690
32399ION     NA48660   8.038  10.205   1.575 -0.2415  0.1250  0.1289
32400ION     NA48661   1.981   0.750  15.133  0.0748 -0.1068 -0.1557
32401ION     NA48662  11.525  11.527  11.105 -0.1203 -0.1967  0.1438
32402ION     NA48663  16.213  12.591  10.859  0.0434 -0.0727 -0.0924
32403ION     NA48664   8.140   4.119  16.628 -0.2309 -0.0743  0.0188
32404ION     NA48665   4.104  12.030  10.741  0.1174  0.2293 -0.3039
32405ION     NA48666  17.601   8.929   6.052  0.0436  0.0727 -0.0304
32406ION     NA48667   6.374  17.918  10.899  0.3281  0.1408 -0.1349
32407ION     NA48668  12.075  10.446  14.261 -0.0613 -0.3748 -0.0559
32408ION     NA48669  15.183  15.587  10.413  0.0755 -0.0792 -0.0240
32409ION     NA48670  15.699   4.197  10.959 -0.1010 -0.0327 -0.1576
32410ION     NA48671  15.073   2.091   5.642  0.2807 -0.0248 -0.1172
32411ION     NA48672   1.543   1.799  11.008 -0.1063  0.3194  0.0344
32412ION     NA48673   9.474  16.933  10.619  0.2139 -0.0536  0.1013
32413ION     NA48674   5.084  14.655  16.365 -0.1563 -0.2528  0.1270
32414ION     NA48675  17.061  17.887  10.455 -0.0862  0.2212  0.0146
32415ION     NA48676   9.415  13.183  12.224 -0.2514 -0.0124  0.2048
32416ION     NA48677  10.353   1.115   5.567  0.0806 -0.4599  0.0427
32417ION     NA48678   3.665   5.564  11.771 -0.0201 -0.1722  0.2893
32418ION     NA48679   8.813   7.365  10.593 -0.0917 -0.0988  0.3314
32419ION     NA48680   2.694   1.034  10.951 -0.0380 -0.0025 -0.2323
32420ION     NA48681   6.943  11.200   5.280 -0.0548  0.4600 -0.0942
32421ION     NA48682   2.475  13.908   5.650  0.1713 -0.0842 -0.0809
32422ION     NA48683   7.324  17.464   3.148 -0.0662 -0.3320 -0.0567
32423ION     NA48684   2.671  14.879  16.534  0.2364 -0.0023  0.0768
32424ION     NA48685   4.876   4.550   5.968 -0.1030  0.2996  0.1663
32425ION     NA48686   6.939  14.033  13.432 -0.1846 -0.0331 -0.1569
32426ION     NA48687  14.656  14.500   2.250 -0.1041 -0.0375  0.4142
32427ION     NA48688   6.064  13.438   3.003  0.0740  0.1381  0.3927
32428ION     NA48689   1.606   6.213  11.060 -0.2741 -0.0067 -0.1040
32429ION     NA48690   6.012  12.510  10.744  0.0550  0.2413 -0.0021
32430ION     NA48691   1.952   1.577  11.256  0.0213  0.2230  0.1012
32431ION     NA48692  13.775   3.389  10.281  0.0455 -0.0006 -0.1375
32432ION     NA48693  13.311  12.911   5.915  0.3753 -0.2578  0.0711
32433ION     NA48694  14.373  14.334  11.019  0.0073  0.1139  0.1735
32434ION     NA48695   3.879   0.203  10.924  0.2288 -0.1827 -0.1225
32435ION     NA48696   0.155  12.888  10.616  0.2627 -0.0481 -0.1148
32436ION     NA48697   5.516   7.450  10.244 -0.3202 -0.0741 -0.1417
32437ION     NA48698   0.252  10.446  10.717  0.1091  0.1760  0.0152
32438ION     NA48699   6.343  16.013  10.906  0.1596  0.0598 -0.1304
32439ION     NA48700   1.837  12.050   6.224 -0.1232 -0.3173  0.0553
32440ION     NA48701  10.282  16.637  10.491  0.2527 -0.3946  0.2021
32441ION     NA48702  17.049   4.324   6.240  0.2829 -0.0968 -0.2002
32442ION     NA48703  10.344   0.197  10.520 -0.0054  0.0459  0.1959
32443ION     NA48704  12.868  18.168  10.507 -0.0221  0.1977 -0.1767
32444ION     NA48705  12.226  14.324   3.255 -0.3450  0.2563 -0.2857
32445ION     NA48706   4.480   2.437  12.380 -0.0445  0.2225 -0.0343
32446ION     NA48707   6.786  14.131   2.317 -0.0642  0.0503  0.2776
32447ION     NA48708   8.366   9.755  14.602  0.1276  0.3556  0.3183
32448ION     NA48709  13.295  12.620  10.625  0.0308  0.1024  0.1108
32449ION     NA48710  15.551   3.459  16.010 -0.0858 -0.0474  0.1319
32450ION     NA48711  15.710   8.501  10.567  0.0405  0.0151  0.0724
32451ION     NA48712   8.206   7.572  13.711 -0.0972  0.1193  0.1495
32452ION     NA48713   9.838   4.890   5.890 -0.0902 -0.1342  0.1583
32453ION     NA48714  13.479   4.820  10.508 -0.0315  0.0094 -0.1813
32454ION     NA48715   8.055  16.771  10.755 -0.1223 -0.1543  0.4318
32455ION     NA48716   4.790  16.500   5.909  0.1621 -0.2046 -0.2841
32456ION     NA48717   3.378  17.691  10.768 -0.0193  0.0272 -0.0901
32457ION     NA48718   2.847   7.067  10.817  0.1919  0.0290 -0.1557
32458ION     NA48719  15.094  12.030  14.301 -0.0634 -0.2221  0.2216
32459ION     NA48720   1.277   4.754  10.914 -0.0259  0.1065 -0.1776
32460ION     NA48721  17.430   5.434  14.335  0.1281  0.0938 -0.1454
32461ION     NA48722   6.827  18.122  11.929 -0.1771  0.3035  0.1543
32462ION     NA48723  12.665  16.048  13.162  0.0041  0.0527  0.5083
32463ION     NA48724  10.352  13.096  10.822 -0.2866 -0.0746  0.1673
32464ION     NA48725  18.160   5.630  10.880  0.1050 -0.3257 -0.1247
32465ION     NA48726   2.299  11.324   5.856 -0.3658 -0.2609  0.0162
32466ION     NA48727   0.204  14.737  10.694 -0.2046  0.0054  0.0857
32467ION     NA48728  15.520   6.802   2.631  0.0759  0.3018  0.0963
32468ION     NA48729   0.046   3.902  11.108  0.1223  0.0549  0.0176
32469ION     NA48730   4.807   6.852   0.804 -0.1228  0.2441 -0.0323
32470ION     NA48731   9.183  12.304  10.559  0.2550  0.0284  0.2714
32471ION     NA48732  16.086  17.976   6.019  0.1014  0.1527 -0.1336
32472ION     NA48733   0.304   9.039   5.930  0.1243 -0.0839  0.0620
32473ION     NA48734  14.909  11.173  10.522  0.0132 -0.0025 -0.0773
32474ION     NA48735  10.460  15.678  10.780 -0.0727 -0.2335  0.0958
32475ION     NA48736  11.868   9.319  10.663  0.0870 -0.4829 -0.1437
32476ION     NA48737   6.615   6.245  10.652  0.1092  0.2923  0.3350
32477ION     NA48738  16.583   0.867   1.464  0.0716 -0.0448 -0.0634
32478ION     NA48739  10.355   9.856  10.721  0.2031 -0.0285  0.0486
32479ION     NA48740  12.749   7.567   5.566  0.1542 -0.1966  0.3411
32480ION     NA48741  14.952   6.907  10.521 -0.1860  0.0329 -0.3490
32481ION     NA48742   3.778   5.657   4.510  0.0728  0.1553 -0.3694
32482ION     NA48743   7.096  16.423  10.954  0.0063 -0.3676  0.0832
32483ION     NA48744   0.073   7.564  13.007  0.0489  0.0189  0.1726
32484ION     NA48745   6.944  10.002   6.125 -0.1618 -0.3537 -0.1551
32485ION     NA48746   0.991  16.547   6.015 -0.0158  0.2409 -0.2321
32486ION     NA48747   5.826  17.229  10.695  0.2159  0.3943 -0.2257
32487ION     NA48748  15.305   0.000   2.133 -0.1086 -0.0860 -0.0595
32488ION     NA48749   4.161   3.949  10.939  0.0248  0.1166 -0.0670
32489ION     NA48750  10.299   5.312  10.023 -0.3369  0.2802  0.2901
32490ION     NA48751   9.612   2.595   5.772 -0.0421 -0.4069 -0.4074
32491ION     NA48752  11.573  17.749  15.664 -0.1909 -0.0932  0.0538
32492ION     NA48753   3.550  12.686  10.780 -0.0638  0.0262 -0.0231
32493ION     NA48754   1.566  12.406   1.427  0.1211 -0.2725  0.2163
32494ION     NA48755   8.246   5.015  10.623  0.1471 -0.0420  0.0904
32495ION     NA48756   6.304  10.486  12.869 -0.4697 -0.0696 -0.1890
32496ION     NA48757  13.353  17.068   1.579  0.0846  0.1931 -0.2122
32497ION     NA48758   9.168  13.887  16.434  0.0165  0.1497  0.0249
32498ION     NA48759  17.678   1.223  10.944 -0.1161  0.1822  0.0766
32499ION     NA48760   8.734   1.766  11.067 -0.0072  0.1157 -0.0272
32500ION     NA48761  17.402   5.195  10.746  0.0635 -0.0527 -0.0430
32501ION     NA48762  12.371   1.997  10.296 -0.3681  0.1621 -0.2280
32502ION     NA48763   8.301   7.676   6.054  0.0557  0.0776  0.0662
32503ION     NA48764  10.119   1.861  10.240  0.0627  0.1037  0.0418
32504ION     NA48765  10.573   3.518   9.915  0.0217  0.2039  0.0057
32505ION     NA48766   2.156  15.085  11.056 -0.0268  0.3710 -0.1789
32506ION     NA48767   7.118  15.552  10.846  0.2559  0.0812 -0.0868
32507ION     NA48768  16.250  17.286   2.740  0.0871  0.2502 -0.1392
32508ION     NA48769   6.042   4.762  14.695  0.2083  0.0821 -0.2861
32509ION     NA48770   5.052  17.246  10.859 -0.1768 -0.2636 -0.2674
32510ION     NA48771   3.153   3.807  11.026 -0.0828  0.2147  0.1996
32511ION     NA48772   7.911  12.007  10.581  0.0234 -0.1702  0.0259
32512ION     NA48773   7.925  11.128  10.413  0.0033  0.3396 -0.0269
32513ION     NA48774  11.954  12.841  10.742  0.2634 -0.3514  0.1416
32514ION     NA48775   4.422  14.157   1.611  0.0478  0.0051 -0.2206
32515ION     NA48776   1.191  14.213   6.078  0.1385  0.1489 -0.0217
32516ION     NA48777   1.241  17.130  10.876  0.0716  0.2444 -0.1061
32517ION     NA48778  16.564   5.550   2.926 -0.0221 -0.0325 -0.2469
32518ION     NA48779   2.937  16.261   5.611 -0.1191  0.4389  0.0912
32519ION     NA48780   4.755   1.772  11.043 -0.2877 -0.2579  0.0305
32520ION     NA48781   7.192  17.228  13.835 -0.1320 -0.0566 -0.1922
32521ION     NA48782   7.491   1.818  10.925  0.0612 -0.0485  0.1280
32522ION     NA48783   1.108  14.365   5.047  0.2145  0.2914 -0.1430
32523ION     NA48784   5.754   8.883   5.551  0.1037  0.0261 -0.2351
32524ION     NA48785  10.995  13.764  10.727  0.0460  0.0872 -0.3251
32525ION     NA48786   4.377   6.837  10.575 -0.2808  0.1748  0.0220
32526ION     NA48787   9.374  10.032  12.913 -0.2944 -0.0665 -0.1119
32527ION     NA48788  16.151   5.585   4.134 -0.2956 -0.2375 -0.0800
32528ION     NA48789   3.434   5.666   2.220  0.1491  0.1412 -0.3884
32529ION     NA48790  15.208  10.764  10.374  0.0484 -0.0240  0.2736
32530ION     NA48791   5.830  13.063   1.630  0.0961 -0.2686 -0.1002
32531ION     NA48792  15.877   6.582   0.475 -0.1551 -0.0371 -0.0673
32532ION     NA48793   3.410  13.679  11.159 -0.2422  0.1723 -0.0166
32533ION     NA48794  12.411   4.146   4.572  0.2471  0.0652 -0.2812
32534ION     NA48795  17.989  12.294  10.490 -0.0171  0.3059  0.1593
32535ION     NA48796   9.865  14.037   3.968 -0.2079 -0.1623  0.1708
32536ION     NA48797   2.632  12.560  10.871  0.0310 -0.0872 -0.2424
32537ION     NA48798  14.707  12.018  10.585  0.0846  0.6384  0.2467
32538ION     NA48799   5.229  10.938  15.468  0.0236 -0.0020 -0.0371
32539ION     NA48800   7.923  15.898  10.726 -0.1625  0.2780 -0.0590
32540ION     NA48801   6.617  10.364  10.315  0.0772 -0.2264 -0.0772
32541ION     NA48802   1.029  11.612  15.905  0.0953 -0.2809 -0.0326
32542ION     NA48803   0.872   8.849  10.719  0.1125  0.0879 -0.1837
32543ION     NA48804   1.858   3.496   5.647  0.1083 -0.3998 -0.4746
32544ION     NA48805   9.605  11.815   0.414 -0.1365 -0.2792 -0.0988
32545ION     NA48806   9.576   9.376   2.774 -0.2047 -0.1085 -0.1948
32546ION     NA48807   2.927   5.814  11.146 -0.0359  0.2905 -0.0588
32547ION     NA48808  16.741  11.117   2.629  0.1244 -0.2229 -0.2067
32548ION     NA48809   4.843  13.140   5.461 -0.0934 -0.0350  0.2167
32549ION     NA48810   6.900  11.027   6.086  0.1973  0.2623 -0.3338
32550ION     NA48811   5.486   2.805  10.862  0.1017  0.0993  0.1078
32551ION     NA48812   6.351  15.166  11.162  0.4087  0.2743 -0.2207
32552ION     NA48813   7.536  10.686  10.400  0.1794  0.0856  0.2451
32553ION     NA48814  15.882   7.382   0.916 -0.0382 -0.2737 -0.1563
32554ION     NA48815   6.588   1.576  10.896  0.0899  0.0788 -0.1468
32555ION     NA48816   0.790   1.152  10.733 -0.0298 -0.2849  0.1086
32556ION     NA48817  14.443   6.088  10.429 -0.0765  0.0607 -0.0863
32557ION     NA48818   3.646   4.733  11.011 -0.3231 -0.0159 -0.2238
32558ION     NA48819   6.735  12.939   5.956  0.1022  0.0130  0.0402
32559ION     NA48820  15.721  15.797  10.442 -0.0171  0.0138  0.2509
32560ION     NA48821   7.050   2.894   4.251 -0.1753 -0.3142 -0.0086
32561ION     NA48822   9.655   3.370  10.316 -0.1210 -0.2023 -0.3970
32562ION     NA48823  11.884  13.701   4.727  0.1923  0.2681  0.0108
32563ION     NA48824  14.561   3.191  11.776 -0.0245 -0.0144  0.0823
32564ION     NA48825  15.495   6.907  15.213 -0.2351 -0.1852  0.3131
32565ION     NA48826   4.023   5.515  10.827  0.5531 -0.5066 -0.0491
32566ION     NA48827   2.732  12.866   5.095 -0.2412  0.1817  0.2951
32567ION     NA48828  17.733  17.773  10.744 -0.0772 -0.0832 -0.1907
32568ION     NA48829  17.100   8.335   6.238  0.1183 -0.0244  0.1209
32569ION     NA48830  17.150   9.452  10.664 -0.1820  0.2595 -0.3889
32570ION     NA48831  13.993  17.401   5.577 -0.2302 -0.1670  0.0598
32571ION     NA48832   3.924   8.191  10.642  0.0224 -0.2705  0.0877
32572ION     NA48833  12.170   8.317  10.542 -0.3149 -0.4757 -0.1185
32573ION     NA48834   2.535  17.106  13.018 -0.0758  0.3805 -0.0020
32574ION     NA48835  18.153   2.479  11.137 -0.1212  0.2574  0.1617
32575ION     NA48836   6.602   9.376  10.423 -0.1724  0.0601  0.0527
32576ION     NA48837  12.525  14.916  12.470 -0.3131 -0.0860 -0.1882
32577ION     NA48838  10.869   7.950   2.099  0.0987 -0.0948  0.0120
32578ION     NA48839  11.978  17.772  10.363 -0.0087 -0.0113 -0.1110
32579ION     NA48840   5.871   1.889   6.054  0.1356  0.2375 -0.1380
32580ION     NA48841  17.365   0.439  11.015 -0.1433 -0.3406 -0.1398
32581ION     NA48842   8.144  13.334  10.666  0.1013  0.4455 -0.2653
32582ION     NA48843  11.860  11.232  10.894 -0.2132  0.0613  0.2484
32583ION     NA48844   8.048   0.859  10.641 -0.1343 -0.0951 -0.1249
32584ION     NA48845   3.600   4.976  16.267 -0.1371 -0.0235 -0.3399
32585ION     NA48846   9.809   2.575   3.777 -0.0493  0.0133  0.1124
32586ION     NA48847   9.620  11.718   4.369 -0.0186  0.1096  0.2483
32587ION     NA48848  13.115   6.724  10.185 -0.2530  0.0541  0.0633
32588ION     NA48849  16.860   9.719  13.754  0.1151 -0.1837  0.1468
32589ION     NA48850  13.170  11.572  10.858 -0.1544  0.3678 -0.2123
32590ION     NA48851  15.271  10.999  11.366 -0.0542 -0.0195  0.0896
32591ION     NA48852   5.171   3.953   2.832  0.0610  0.2274 -0.3051
32592ION     NA48853  13.606   8.964  10.529 -0.0771 -0.0359  0.0306
32593ION     NA48854  16.166  14.186   3.708  0.1186  0.1297 -0.0526
32594ION     NA48855   5.940  12.025  10.644  0.1174  0.0516 -0.0548
32595ION     NA48856  11.167   7.096  10.226 -0.0596  0.3431  0.1155
32596ION     NA48857   9.823   7.851  11.614 -0.1901  0.2162 -0.0017
32597ION     NA48858  14.561  17.598  16.128  0.2125 -0.1942 -0.2958
32598ION     NA48859   0.903   8.211   1.661 -0.1963 -0.2040  0.0189
32599ION     NA48860   8.114  10.916  12.456 -0.0527 -0.1866 -0.3178
32600ION     NA48861   3.905   3.398  10.946 -0.4076  0.2448  0.0485
32601ION     NA48862  16.780   9.129  10.792  0.0822 -0.1090 -0.2179
32602ION     NA48863   6.680  17.102  10.805  0.2009 -0.1899  0.0794
32603ION     NA48864  11.342   0.426  11.303 -0.0593  0.4060  0.0914
32604ION     NA48865   0.346  16.844  11.696 -0.0726  0.0296 -0.0469
32605ION     NA48866  12.035   1.070   1.841 -0.1046  0.1973  0.1119
32606ION     NA48867  13.510   0.912  16.186  0.1899 -0.1363 -0.0138
32607ION     NA48868   3.429   8.580   5.816  0.5452 -0.2359  0.0659
32608ION     NA48869  14.546   0.707   5.801  0.3073  0.2191 -0.4048
32609ION     NA48870   2.658   0.134  10.917  0.1547 -0.3905 -0.0043
32610ION     NA48871   8.684   6.723  15.680 -0.0872 -0.1090  0.3284
32611ION     NA48872  11.353   9.496  12.822 -0.3024 -0.2187 -0.5210
32612ION     NA48873  12.661  11.110  12.099 -0.1676 -0.1362  0.0218
32613ION     NA48874   1.091   5.775   5.348 -0.2761 -0.1771  0.0953
32614ION     NA48875   2.967   8.190  10.651 -0.1154 -0.1011  0.2819
32615ION     NA48876  14.698   7.925   5.180 -0.0579  0.2156 -0.1328
32616ION     NA48877  13.656   6.074  12.673  0.3723 -0.1492  0.1310
32617ION     NA48878   2.712  11.710   4.610 -0.0177  0.2355 -0.2467
32618ION     NA48879  14.316  14.037  10.595 -0.1145  0.1486  0.2577
32619ION     NA48880  11.748   1.587  10.249 -0.2838  0.5402 -0.2108
32620ION     NA48881   4.659   1.523   6.422  0.1536 -0.1181 -0.3293
32621ION     NA48882  13.846  10.354  10.935 -0.6036  0.0298 -0.1064
32622ION     NA48883   8.964   5.016  10.417 -0.0574 -0.0616  0.3690
32623ION     NA48884   9.194   4.267  10.264  0.2964  0.1766 -0.1428
32624ION     NA48885  10.578   3.087   5.005 -0.1900 -0.0090 -0.1460
32625ION     NA48886   9.021   2.717  10.691 -0.1426  0.1235 -0.0773
32626ION     NA48887   1.731   4.201  11.019 -0.2392 -0.0999  0.4454
32627ION     NA48888  11.875  15.946  10.820  0.2706 -0.1576  0.1447
32628ION     NA48889  12.978   5.890  10.286  0.1101  0.1582  0.2705
32629ION     NA48890   2.540   9.134  10.808  0.4203  0.1396  0.3466
32630ION     NA48891   0.591   3.230  11.034  0.2368 -0.0446  0.0073
32631ION     NA48892   8.141  13.892  10.830  0.3270  0.0789 -0.3362
32632ION     NA48893   3.662  16.995  10.858  0.0217 -0.0728  0.1559
32633ION     NA48894  13.532   5.705  10.183 -0.1421  0.2723 -0.2968
32634ION     NA48895   6.889   0.943  10.999 -0.3300 -0.2921 -0.0117
32635ION     NA48896   5.474   4.368  10.676  0.1766 -0.0363 -0.2640
32636ION     NA48897   3.095  15.410  10.947  0.0108 -0.0422 -0.0707
32637ION     NA48898   9.625  11.619  10.717  0.1279  0.0589  0.3635
32638ION     NA48899   4.207  12.133  15.992 -0.0595 -0.2967 -0.0502
32639ION     NA48900  15.797   3.543  10.413 -0.2338  0.1204 -0.1985
32640ION     NA48901  15.196   7.571  10.365  0.1387  0.0915  0.1269
32641ION     NA48902   1.449   8.981   0.369  0.2015  0.1058  0.2722
32642ION     NA48903   1.843   7.786   5.527 -0.3772  0.1129  0.0202
32643ION     NA48904   4.066   9.124  10.663 -0.1240 -0.2352  0.2514
32644ION     NA48905  14.467   5.386  16.209 -0.0429 -0.2084  0.0576
32645ION     NA48906   0.504  13.887  10.537 -0.2698  0.0364  0.1282
32646ION     NA48907   6.388  11.268  10.563 -0.0441 -0.1249 -0.3087
32647ION     NA48908  16.192  10.727  10.501  0.0082 -0.2624  0.2087
32648ION     NA48909  14.914   8.535  10.311  0.0560  0.1380  0.1740
32649ION     NA48910   6.521   0.222  10.968  0.3275 -0.2981 -0.1287
32650ION     NA48911   0.168  11.629   1.209  0.3747 -0.2754  0.0504
32651ION     NA48912  12.574   5.358  14.831 -0.0207 -0.0127 -0.1028
32652ION     NA48913  11.325   5.366  10.133 -0.0685 -0.1969  0.0002
32653ION     NA48914  11.513   7.736  16.015 -0.0746  0.0073  0.0406
32654ION     NA48915   7.265   8.829  10.564 -0.0296  0.3631 -0.3378
32655ION     NA48916  11.529  10.455  11.024  0.0816  0.1485 -0.1754
32656ION     NA48917  15.939   7.997   2.932 -0.0439 -0.2232 -0.2447
32657ION     NA48918  12.109  18.165  10.670 -0.0030 -0.0130 -0.0164
32658ION     NA48919   5.527  17.706   2.214  0.1270 -0.0136 -0.1726
32659ION     NA48920  10.742   6.159  10.093  0.1801 -0.2499  0.2570
32660ION     NA48921  10.122   3.783   2.818  0.0792  0.0237 -0.0387
32661ION     NA48922  15.502  10.028  10.936 -0.0141  0.0871  0.0238
32662ION     NA48923   6.608   5.533   6.187  0.0420 -0.2622  0.1818
32663ION     NA48924  16.810  11.470  10.509 -0.2462 -0.0327  0.1501
32664ION     NA48925  12.798  12.919  10.948  0.0804  0.1123 -0.0811
32665ION     NA48926  17.399   4.320  10.857 -0.2489  0.1581  0.0707
32666ION     NA48927   1.144   7.750  11.021  0.0051 -0.1426 -0.2401
32667ION     NA48928   9.921  14.614  13.129  0.0240  0.0584  0.0924
32668ION     NA48929  16.536   3.653   5.998 -0.1385  0.2145  0.2102
32669ION     NA48930  17.242   7.010  10.717  0.0644 -0.2155 -0.0028
32670ION     NA48931   3.957  15.692  10.829  0.4057 -0.0990 -0.2138
32671ION     NA48932  14.196   3.506  13.622  0.2183  0.0813 -0.3344
32672ION     NA48933   3.859  15.361  13.049 -0.0027 -0.0914 -0.1501
32673ION     NA48934   4.617  15.290  11.116  0.0485 -0.0908 -0.0544
32674ION     NA48935   7.470  14.461  11.007  0.0237  0.0036 -0.0463
32675ION     NA48936   5.432   2.522   0.994  0.1690 -0.1321 -0.1235
32676ION     NA48937   7.255   0.005  10.689 -0.2821 -0.1383  0.0235
32677ION     NA48938  15.586   4.899  12.071  0.0854 -0.1833  0.5066
32678ION     NA48939  10.678   0.495  10.316  0.1081  0.1199  0.2671
32679ION     NA48940   8.833  16.249   1.116 -0.1417 -0.2284 -0.1522
32680ION     NA48941   5.983   6.940   1.809 -0.2230  0.1412  0.1247
32681ION     NA48942   4.685   7.799  10.612 -0.4240  0.0930 -0.2396
32682ION     NA48943   6.691   2.907   5.934  0.3711  0.3045 -0.2326
32683ION     NA48944   9.940   5.921   4.247 -0.1761 -0.2856  0.2221
32684ION     NA48945  15.958   6.598   5.532 -0.0973 -0.1085 -0.1862
32685ION     NA48946  14.037  18.107  14.899  0.3490  0.0162 -0.1021
32686ION     NA48947   0.876  18.053  10.884  0.0175  0.0425  0.0026
32687ION     NA48948   0.215   2.374   6.791 -0.0077 -0.0010 -0.0966
32688ION     NA48949  16.671   7.202   6.018  0.1454  0.4857  0.1070
32689ION     NA48950  11.732   9.203  11.503  0.0008  0.0242 -0.0311
32690ION     NA48951  16.496   4.229  10.673 -0.0976 -0.0945  0.3532
32691ION     NA48952   3.161  12.825  14.636  0.0264  0.1444  0.2962
32692ION     NA48953   7.136   2.775  10.872 -0.1283 -0.0458 -0.1969
32693ION     NA48954  13.086  13.746  11.794  0.1243 -0.0037  0.2901
32694ION     NA48955  12.730  10.800  10.734  0.0141 -0.1040 -0.0099
32695ION     NA48956  13.752   4.562   5.526  0.1077 -0.2474  0.0613
32696ION     NA48957  15.080  10.434  12.705 -0.2050 -0.4291 -0.3240
32697ION     NA48958   5.184   7.529  10.580  0.1238 -0.1817  0.0817
32698ION     NA48959   8.355   4.203  10.247 -0.0029  0.2211 -0.0738
32699ION     NA48960  12.685  15.585  10.762  0.2406  0.0259  0.1114
32700ION     NA48961  10.352  14.227   6.143 -0.2335  0.0623  0.1722
32701ION     NA48962  17.995  12.953   5.972  0.0430 -0.2978 -0.0025
32702ION     NA48963   8.730  14.726  10.967 -0.2074  0.1559 -0.0749
32703ION     NA48964  15.923   6.951  10.457  0.1625  0.0374 -0.3344
32704ION     NA48965   1.921   5.668   3.774  0.0751  0.1531 -0.1685
32705ION     NA48966   9.721   9.201  10.860  0.2186  0.1453 -0.1252
32706ION     NA48967  10.617  10.293  10.596  0.1224 -0.1494  0.1507
32707ION     NA48968  15.918   8.831   5.856  0.0716  0.0014 -0.1953
32708ION     NA48969   5.240  11.301   5.960 -0.0280  0.2876  0.0538
32709ION     NA48970   9.431   5.715   5.793  0.0690 -0.1225  0.0090
32710ION     NA48971  14.902   5.747  14.552 -0.0172  0.3585 -0.1955
32711ION     NA48972   8.587   3.868   4.150 -0.3139  0.0453  0.2936
32712ION     NA48973   3.025   2.318  11.064  0.1325 -0.0183 -0.0814
32713ION     NA48974  16.072  17.739  10.503  0.1841 -0.0755  0.0074
32714ION     NA48975   1.131  11.797   0.253 -0.1304  0.0526  0.0291
32715ION     NA48976   9.458   0.770  11.314 -0.5459  0.0419  0.1345
32716ION     NA48977  13.049   8.849  10.535 -0.4744 -0.3427  0.0300
32717ION     NA48978  14.230  13.089  10.700  0.2123 -0.2040 -0.2116
32718ION     NA48979   8.218  11.360  14.899 -0.0315  0.3124  0.1954
32719ION     NA48980   2.648  16.888   6.018 -0.4169  0.0433  0.0731
32720ION     NA48981   5.812   9.109  10.448 -0.4969 -0.2628 -0.0980
32721ION     NA48982   2.319   3.392  11.138  0.3503  0.1414 -0.2028
32722ION     NA48983   6.750   9.441  16.117 -0.0533 -0.0087  0.3068
32723ION     NA48984  16.085   0.857  11.845  0.0241  0.3205 -0.1585
32724ION     NA48985   9.555   5.924  10.221  0.2583  0.2001 -0.0945
32725ION     NA48986  11.700  14.218  10.940 -0.0223 -0.1202  0.1070
32726ION     NA48987  13.996   9.790   4.298  0.0707 -0.0148  0.1009
32727ION     NA48988  16.400   9.960  10.666 -0.1535  0.1407 -0.1673
32728ION     NA48989  17.697   8.613   0.243 -0.0346  0.1239 -0.2061
32729ION     NA48990  10.094   4.097  11.545 -0.2097 -0.4134  0.1643
32730ION     NA48991  12.604   4.500   9.904 -0.2741  0.0376  0.2065
32731ION     NA48992   8.516   1.953   5.432  0.3247 -0.0549  0.1138
32732ION     NA48993  14.434   9.044   5.556  0.0034  0.2053 -0.0799
32733ION     NA48994  11.568  13.074  10.587 -0.3250 -0.0158  0.0861
32734ION     NA48995   0.222   9.501   4.833  0.4939 -0.0263 -0.0157
32735ION     NA48996   1.371   0.643   4.744  0.1166 -0.1938 -0.2120
32736ION     NA48997   3.489  14.578  10.942  0.2343 -0.1772  0.0636
32737ION     NA48998   2.680   4.517  10.878 -0.2023  0.0243  0.1224
32738ION     NA48999   3.295  18.019   4.569  0.2857  0.1844 -0.0898
32739ION     NA49000   2.482  13.882  11.638 -0.0104 -0.1189  0.1304
32740ION     NA49001   5.267  15.762  11.078  0.1397  0.0938 -0.1695
32741ION     NA49002   8.150   4.958   4.013 -0.0860 -0.2255  0.0741
32742ION     NA49003   2.386  13.653  10.742 -0.1348  0.0228  0.0671
32743ION     NA49004  13.168   1.282  10.296 -0.2813  0.0861  0.0646
32744ION     NA49005  17.170  16.016  10.725 -0.2908  0.0313 -0.0584
32745ION     NA49006   4.414   5.905   3.402 -0.0960  0.1983  0.1144
32746ION     NA49007  15.515  12.297  12.830 -0.0914  0.0561 -0.1060
32747ION     NA49008  12.717   3.021   5.015  0.0900 -0.3234 -0.4669
32748ION     NA49009   4.203  10.011  10.909  0.3953 -0.1877 -0.1694
32749ION     NA49010  17.818   9.785  10.692 -0.0142 -0.0131  0.1311
32750ION     NA49011   9.127  15.418   4.649 -0.3166 -0.0750 -0.0408
32751ION     NA49012  10.083   4.074   0.168 -0.0984 -0.1029  0.1681
32752ION     NA49013  14.477   4.044   1.664  0.0959 -0.0842  0.1618
32753ION     NA49014   1.025   5.347   6.293 -0.1421 -0.1096 -0.3590
32754ION     NA49015  13.767  16.733  10.544 -0.0508  0.3066 -0.2040
32755ION     NA49016   6.886  13.687  11.019 -0.1723  0.1911  0.2870
32756ION     NA49017  16.102  13.560   5.765  0.1450 -0.0416  0.0162
32757ION     NA49018  14.419  17.257  10.476 -0.3839 -0.3688 -0.0646
32758ION     NA49019   5.097  11.162  14.334  0.1564 -0.1982 -0.2499
32759ION     NA49020  15.767  14.252   3.390 -0.0087  0.2425 -0.1934
32760ION     NA49021   1.299  14.543  11.958  0.0201 -0.2356  0.1108
32761ION     NA49022  17.318   6.088  10.700  0.2657 -0.0621  0.0791
32762ION     NA49023   7.080   0.314   6.375  0.0903  0.0873  0.3253
32763ION     NA49024   5.960   5.833   4.611 -0.0393  0.1792 -0.0177
32764ION     NA49025  13.526   9.090  12.712  0.0541 -0.2168 -0.4137
32765ION     NA49026  13.709  14.916  10.545 -0.0868  0.2114 -0.1465
32766ION     NA49027   4.810   5.904  10.805 -0.2573  0.2969  0.0572
32767ION     NA49028  11.697  14.714  13.955  0.1074 -0.0128 -0.2790
32768ION     NA49029   0.427   2.307  16.423 -0.0274  0.1416 -0.2083
32769ION     NA49030  13.012  16.300  10.532 -0.2502 -0.2067 -0.1154
32770ION     NA49031   6.882   6.721  10.583 -0.3130  0.2904 -0.1467
32771ION     NA49032  11.772  15.096  10.934  0.1133  0.0713  0.0879
32772ION     NA49033   2.308  15.983  10.971 -0.0402  0.0390 -0.1584
32773ION     NA49034  13.344  13.191  12.680 -0.0536 -0.0275  0.0259
32774ION     NA49035   8.732  11.561  10.448 -0.2003 -0.2683 -0.0423
32775ION     NA49036   8.881  10.672  10.482  0.0339  0.0391 -0.3122
32776ION     NA49037   3.351  10.582  10.823 -0.0389  0.2538  0.1063
32777ION     NA49038  17.087  15.510  10.805 -0.3049  0.3534 -0.0215
32778ION     NA49039  13.010  17.276  10.845 -0.1511 -0.0095 -0.1736
32779ION     NA49040   6.261   5.240   1.209 -0.2537  0.2127  0.1100
32780ION     NA49041  16.586   6.467  10.613  0.4803 -0.2636  0.0269
32781ION     NA49042   0.512  16.082   5.207 -0.0596 -0.0846  0.2191
32782ION     NA49043   5.959   3.472  10.576 -0.0242 -0.1686 -0.0836
32783ION     NA49044   0.121  16.101   6.262 -0.0455 -0.0399  0.0337
32784ION     NA49045   2.103   2.474  11.295 -0.2272  0.1100 -0.1493
32785ION     NA49046  15.021  14.685  10.567  0.1843  0.2769 -0.0375
32786ION     NA49047   8.445  16.231   4.434 -0.0975 -0.2751  0.1679
32787ION     NA49048  10.730  14.641  10.933  0.0500 -0.1827  0.4978
32788ION     NA49049  13.712  13.412  10.578  0.0252  0.1245 -0.0736
32789ION     NA49050   4.193   0.313   6.179 -0.1815  0.0638  0.0665
32790ION     NA49051  13.247  10.185   2.473 -0.3519  0.0027 -0.0003
32791ION     NA49052  11.546  12.149  10.718  0.0595  0.0897  0.0200
32792ION     NA49053   7.503   7.262   5.955 -0.1200 -0.2091 -0.1076
32793ION     NA49054  10.023   8.974   5.751  0.0138 -0.3169  0.1249
32794ION     NA49055  16.034  13.905  13.142  0.0323  0.1075  0.5186
32795ION     NA49056  13.780  12.259  10.800  0.0764  0.4023  0.1644
32796ION     NA49057  15.782  11.849   0.018 -0.0311 -0.0276  0.2724
32797ION     NA49058  12.887  15.102  10.775 -0.1189 -0.1591 -0.1047
32798ION     NA49059   1.273  15.287   4.209 -0.2872 -0.4922  0.0172
32799ION     NA49060   8.789   2.273   4.262 -0.0442  0.1221  0.0382
32800ION     NA49061   1.222  12.647  10.606 -0.4122  0.0939 -0.1925
32801ION     NA49062  11.251  17.232  13.293 -0.2446  0.1893  0.1173
32802ION     NA49063  10.510  17.131  11.170  0.2775  0.0013 -0.1730
32803ION     NA49064   3.363   0.972   1.021 -0.1004 -0.2028 -0.1309
32804ION     NA49065   8.684  12.584  10.806 -0.2671 -0.0728 -0.0575
32805ION     NA49066   0.003   4.694  10.736 -0.4882  0.0886 -0.0663
32806ION     NA49067   1.406   3.323  11.062 -0.3461  0.0865  0.3200
32807ION     NA49068   0.518   0.155  14.299  0.2951  0.2445 -0.2419
32808ION     NA49069   7.143   4.344   1.266  0.0551  0.1794 -0.2435
32809ION     NA49070  13.626  11.626  15.411 -0.0737 -0.1729  0.3420
32810ION     NA49071   1.450  13.508  10.737 -0.1530 -0.1104  0.1422
32811ION     NA49072   5.587   1.729  11.069  0.1714  0.0256 -0.1102
32812ION     NA49073   0.030  11.326  10.508  0.2707  0.3501  0.1000
32813ION     NA49074  14.482   2.147  16.279  0.0382  0.1186 -0.0441
32814ION     NA49075   1.386  15.262   6.207  0.0443  0.3801  0.0576
32815ION     NA49076  17.133   2.572  10.836  0.3262 -0.1028 -0.2332
32816ION     NA49077   5.846   6.723  10.588  0.0852  0.1219 -0.1199
32817ION     NA49078   4.318  14.508  11.597  0.0842  0.0676 -0.1984
32818ION     NA49079   5.958  10.027  10.472 -0.2278  0.3749 -0.2950
32819ION     NA49080  13.579   0.326  10.485  0.1098  0.0456 -0.2528
32820ION     NA49081  14.461   0.980   4.469  0.1120 -0.0685  0.1433
32821ION     NA49082   3.860   3.622   2.988  0.0381  0.1033 -0.0144
32822ION     NA49083  17.009   5.376   5.022  0.0364  0.0837 -0.2374
32823ION     NA49084  16.701  10.915  10.650  0.2159  0.0193 -0.0612
32824ION     NA49085   0.615   1.831  10.969  0.0946 -0.0685 -0.0221
32825ION     NA49086  14.433   4.664  10.316 -0.0585 -0.2621  0.1407
32826ION     NA49087  16.476   7.646  10.684  0.0528  0.0827  0.0132
32827ION     NA49088   9.683   2.172   5.443 -0.0772 -0.2325  0.0678
32828ION     NA49089  17.787   6.098  10.889  0.1797  0.0469 -0.1472
32829ION     NA49090   2.212   8.747  10.682  0.1296 -0.1424  0.1115
32830ION     NA49091  10.043   4.277  14.722 -0.0329  0.1235 -0.1686
32831ION     NA49092  14.238  16.488   5.267  0.2548  0.1714 -0.1021
32832ION     NA49093  14.061   9.639  10.454  0.1373 -0.1133 -0.2116
32833ION     NA49094   2.098   6.955  11.060 -0.0768  0.0485 -0.1240
32834ION     NA49095  11.502   7.721  10.508  0.0098 -0.1109  0.2271
32835ION     NA49096  15.648   7.100  12.740  0.0541 -0.0010 -0.1054
32836ION     NA49097   8.301   2.334  16.056  0.3639 -0.2525  0.1050
32837ION     NA49098   5.178   0.889  10.976 -0.1703  0.0437  0.2530
32838ION     NA49099  16.427   3.269  10.893  0.1841  0.0258  0.3475
32839ION     NA49100   7.559   9.444  11.036  0.1897  0.4029  0.0273
32840ION     NA49101  13.543   7.905  10.381  0.3564  0.0226  0.1078
32841ION     NA49102  16.036   1.255  12.689 -0.1309 -0.2675  0.0890
32842ION     NA49103   2.449  10.177  10.820 -0.1466 -0.2485  0.2113
32843ION     NA49104   9.440   0.108  10.547 -0.0944  0.1950  0.0545
32844ION     NA49105   1.316  12.104   6.021 -0.2779 -0.1813  0.3300
32845ION     NA49106  17.406   0.363   5.122 -0.2616 -0.1079 -0.1100
32846ION     NA49107   5.870   0.858  10.972  0.1375  0.2811 -0.1114
32847ION     NA49108   1.919  10.898  10.729  0.1755  0.1592 -0.0445
32848ION     NA49109   1.875   3.017   1.130 -0.0521 -0.2098  0.0516
32849ION     NA49110   8.631   5.889  10.607  0.1667 -0.2293  0.2117
32850ION     NA49111   9.206   8.282  10.502  0.2251 -0.1503 -0.1809
32851ION     NA49112   4.427  17.453  10.873  0.2535  0.0190  0.1132
32852ION     NA49113  10.629   7.116  10.362  0.0915 -0.0059 -0.0509
32853ION     NA49114  10.937   1.254  10.169  0.0353 -0.0371  0.0314
32854ION     NA49115   8.956   4.863   5.584  0.0248  0.1704  0.2330
32855ION     NA49116  12.544   1.573   5.768 -0.1529 -0.1625  0.0665
32856ION     NA49117  12.431  12.155  10.702 -0.0735 -0.3329  0.0939
32857ION     NA49118   6.387  17.526   2.016 -0.0330 -0.2017 -0.1332
32858ION     NA49119   9.715   9.564   4.899  0.0028 -0.1208  0.2504
32859ION     NA49120   4.978  10.008   3.076  0.2016 -0.2004 -0.2743
32860ION     NA49121   6.232   4.908  10.988 -0.2495  0.0979  0.1081
32861ION     NA49122  10.995  14.606  11.302 -0.6624 -0.0703 -0.2280
32862ION     NA49123  15.438   1.279  15.199  0.1367  0.4249  0.0242
32863ION     NA49124  10.146   7.779  10.675  0.1818 -0.0346  0.0920
32864ION     NA49125   9.414  11.320  10.362 -0.0212  0.0999  0.1899
32865ION     NA49126   1.667  11.729  10.850  0.0305  0.1966  0.0889
32866ION     NA49127  12.774   1.623  12.046 -0.0831 -0.0743 -0.2865
32867ION     NA49128   9.741   1.027  10.511  0.0645  0.0490 -0.1535
32868ION     NA49129   5.556  11.253  10.837  0.0115 -0.0006  0.4105
32869ION     NA49130  16.656  17.007  10.589 -0.0365 -0.3073  0.0091
32870ION     NA49131  10.151  17.849   6.197  0.0079  0.2221 -0.0025
32871ION     NA49132  10.050  16.726  12.958 -0.2425 -0.1490 -0.1177
32872ION     NA49133   0.612   5.267  11.404  0.0726  0.1009  0.0026
32873ION     NA49134  17.197   2.821  12.083 -0.1002 -0.3425 -0.1496
32874ION     NA49135   9.874   9.219  11.867 -0.1034 -0.2441  0.0384
32875ION     NA49136   4.395   8.207  15.243  0.0048  0.2412 -0.0174
32876ION     NA49137   6.119   7.549  10.390 -0.2133 -0.0858  0.1594
32877ION     NA49138   6.919   3.778   3.026 -0.2265 -0.0094 -0.0714
32878ION     NA49139  11.844  10.125   5.937 -0.0971 -0.3448 -0.0441
32879ION     NA49140  11.490   0.660  10.404  0.0540  0.0472  0.0576
32880ION     NA49141  14.585   3.625  10.089 -0.3940 -0.0195  0.0045
32881ION     NA49142   5.113  12.011  10.678  0.0987  0.0328  0.4065
32882ION     NA49143  17.359  17.478   0.554  0.1258 -0.1900 -0.1038
32883ION     NA49144  15.588   1.167   1.511  0.0106 -0.2314 -0.3487
32884ION     NA49145   9.616   6.830  10.633  0.1011 -0.0172 -0.1114
32885ION     NA49146  15.339   6.698   3.852 -0.0417 -0.0258  0.0067
32886ION     NA49147  11.131  18.035  10.546  0.0449  0.1044  0.0265
32887ION     NA49148   5.573  15.403  10.886  0.2964  0.0254 -0.2279
32888ION     NA49149   4.561   2.644  11.039  0.0221 -0.1768  0.2319
32889ION     NA49150  14.266  10.530   5.633  0.0681  0.2765 -0.1049
32890ION     NA49151  17.603   7.751   3.323  0.0690 -0.1311 -0.0994
32891ION     NA49152   7.661  10.204  10.358 -0.2948 -0.2362 -0.2732
32892ION     NA49153   5.026   5.184   1.511  0.6026 -0.5259 -0.2681
32893ION     NA49154  12.782  16.648  16.148 -0.0204  0.1239  0.3537
32894ION     NA49155   2.290  17.441   6.312 -0.2896 -0.0893  0.3368
32895ION     NA49156  16.739   1.727   2.586  0.0705  0.1254  0.1270
32896ION     NA49157   7.978  15.203   3.006 -0.0481  0.1028 -0.0106
32897ION     NA49158   8.101   1.591  10.548 -0.4103 -0.0265  0.0042
32898ION     NA49159   9.044   2.006   0.079 -0.1660 -0.0527 -0.1488
32899ION     NA49160  14.114  11.306  10.806  0.0582 -0.2294 -0.0051
32900ION     NA49161   5.477  16.172   2.834 -0.2251 -0.1476 -0.2489
32901ION     NA49162   6.096  17.688  14.743 -0.0295  0.3134 -0.0289
32902ION     NA49163  10.499  13.933  12.189  0.1201 -0.1099 -0.0627
32903ION     NA49164  14.563   3.631  10.629 -0.2743 -0.0650  0.3954
32904ION     NA49165  11.634   7.718  12.097  0.0698 -0.0015  0.1998
32905ION     NA49166   5.049   4.529  13.108 -0.0446  0.1646 -0.0210
32906ION     NA49167   9.030  15.534  10.835  0.2595 -0.1958 -0.3898
32907ION     NA49168   1.547  14.357  10.838  0.0556  0.1397  0.3309
32908ION     NA49169   4.714   5.003  10.948  0.1971 -0.1718 -0.1447
32909ION     NA49170  10.563  17.593  15.589  0.1046 -0.0475 -0.0503
32910ION     NA49171  16.318  16.256  10.736  0.1061  0.0171 -0.1189
32911ION     NA49172  11.733   4.715  10.013 -0.1121 -0.0887  0.0753
32912ION     NA49173   3.079   5.198  10.974 -0.3887  0.0896  0.1214
32913ION     NA49174  17.495   4.474   5.931 -0.1312  0.3427  0.0264
32914ION     NA49175   0.205   6.557   5.281 -0.1843  0.1273  0.1895
32915ION     NA49176   2.223  12.356   5.965  0.1516 -0.3240 -0.1774
32916ION     NA49177  13.393  10.479  10.651 -0.2703  0.2300  0.0472
32917ION     NA49178  11.779   6.246  10.148 -0.0927  0.2480 -0.2557
32918ION     NA49179  17.612  12.797  14.910  0.3539  0.0365  0.4816
32919ION     NA49180   5.479  16.956   6.259 -0.2164  0.0978  0.1048
32920ION     NA49181   6.107  14.542  16.096 -0.1337 -0.3010  0.1938
32921ION     NA49182   0.623  11.979  10.539  0.0423  0.1851  0.3569
32922ION     NA49183   7.419   9.111  11.439  0.1261  0.0368 -0.2815
32923ION     NA49184   6.521   8.377  10.482  0.1182 -0.1917 -0.2246
32924ION     NA49185   8.124  18.165  10.744  0.0797  0.1398  0.0523
32925ION     NA49186  11.001  15.248   3.833  0.0037  0.0097  0.0701
32926ION     NA49187  12.945  13.570  14.190  0.0749 -0.4179  0.0447
32927ION     NA49188   5.259   2.762   6.152 -0.2752  0.1635  0.0315
32928ION     NA49189   6.303   6.417   5.762 -0.0103  0.1550  0.1427
32929ION     NA49190   3.777  13.859   6.489 -0.4255 -0.1975 -0.0573
32930ION     NA49191   9.026   9.177  10.603 -0.1807  0.0009 -0.1007
32931ION     NA49192  12.659  17.192  13.313 -0.0056 -0.0723 -0.2965
32932ION     NA49193   6.460  16.762  12.033 -0.0146 -0.0709  0.0306
32933ION     NA49194   8.095  15.439  10.874 -0.1601  0.0929 -0.1347
32934ION     NA49195   9.128   6.610  10.455  0.0125 -0.2970 -0.0752
32935ION     NA49196   6.823   5.758  13.661  0.0677 -0.0404  0.1240
32936ION     NA49197  17.608  16.905  10.568 -0.2135 -0.1697 -0.2502
32937ION     NA49198   1.090  11.145  10.529  0.2979  0.1667 -0.0115
32938ION     NA49199  10.072   5.032  14.124 -0.0914  0.2104 -0.1554
32939ION     NA49200  13.096   4.031  10.098 -0.0361 -0.0358 -0.2950
32940ION     NA49201  12.537  15.943   6.031  0.0214 -0.1850  0.1279
32941ION     NA49202   1.736   0.405  10.944 -0.0671  0.2208  0.0204
32942ION     NA49203   3.428   8.521  10.724  0.1868 -0.1563 -0.0604
32943ION     NA49204   1.346   6.846   4.349 -0.0838 -0.2914 -0.0407
32944ION     NA49205  15.946   2.764  14.517 -0.6509 -0.1398  0.0003
32945ION     NA49206   0.853   7.320  12.453  0.1164 -0.0631 -0.0572
32946ION     NA49207  13.326  14.262  10.631 -0.2624  0.2062  0.2603
32947ION     NA49208  15.171   8.787  12.276 -0.1761 -0.2813  0.1449
32948ION     NA49209  16.360  17.506   4.316  0.2637 -0.1068 -0.2039
32949ION     NA49210   6.054   2.391   4.047 -0.0482 -0.1323  0.1913
32950ION     NA49211   1.390  10.298  16.097 -0.2785 -0.0093  0.0395
32951ION     NA49212  10.182  17.676  10.531  0.5302 -0.2061  0.1017
32952ION     NA49213  17.713   3.819   4.099 -0.3069  0.2608  0.0156
32953ION     NA49214  12.698   7.840   2.163  0.0676  0.2065 -0.0686
32954ION     NA49215   6.799   3.946  10.602  0.0915 -0.3028  0.0524
32955ION     NA49216  18.158   7.106  11.113 -0.3452  0.2622 -0.6093
32956ION     NA49217   5.390  14.908  10.895 -0.3292 -0.0696  0.0189
32957ION     NA49218  16.685  14.811  10.671  0.2190  0.1426 -0.0435
32958ION     NA49219  16.520  10.939   1.303  0.0179  0.1653  0.3064
32959ION     NA49220   9.731  12.835   1.074 -0.1625  0.0773  0.0135
32960ION     NA49221   5.131  14.030  11.032  0.0301 -0.1389 -0.0939
32961ION     NA49222   5.569   8.330  10.262 -0.2175 -0.0853  0.0749
32962ION     NA49223  12.357  14.480  10.715  0.1628  0.0312  0.0827
32963ION     NA49224  13.440   5.323   1.555  0.0602  0.3371 -0.1425
32964ION     NA49225   5.441  10.704  10.590  0.1015 -0.2987  0.0769
32965ION     NA49226  15.942  14.571   5.115 -0.0089 -0.0124  0.0534
32966ION     NA49227  15.265  18.193   5.978  0.0503 -0.3014  0.1112
32967ION     NA49228  12.115   2.900  10.264  0.0255  0.0755 -0.1840
32968ION     NA49229  13.944   6.940   5.601  0.0961 -0.0548 -0.2964
32969ION     NA49230  17.125  12.349  10.840 -0.1798  0.2816 -0.3096
32970ION     NA49231  15.083   1.867   1.928 -0.3272 -0.2531 -0.1513
32971ION     NA49232  11.196   2.683  10.501  0.0402 -0.0678  0.2478
32972ION     NA49233  13.662  15.742  10.648 -0.2620 -0.0664  0.3723
32973ION     NA49234   9.965   6.163  10.218 -0.1328  0.1345 -0.4871
32974ION     NA49235   0.699   5.273   4.370 -0.3176  0.2389 -0.3030
32975ION     NA49236  17.861  17.113   6.168  0.2131 -0.1460  0.2415
32976ION     NA49237   1.784  16.003  10.691 -0.2091  0.0203  0.2756
32977ION     NA49238   5.949  14.837  12.559 -0.0689 -0.0679 -0.1466
32978ION     NA49239   5.666  16.195  14.880 -0.2125  0.1312  0.2949
32979ION     NA49240  17.652  14.295   0.528  0.0229  0.0923  0.0756
32980ION     NA49241   5.161  12.691  10.656 -0.2791  0.4616  0.1038
32981ION     NA49242  15.346  12.764  10.598  0.1156 -0.1004 -0.0875
32982ION     NA49243  15.798  16.850  10.475  0.2134 -0.2669  0.3096
32983ION     NA49244  16.245   5.605  10.681 -0.1858  0.0229  0.2619
32984ION     NA49245   3.705   6.954  12.178 -0.1776  0.1593  0.1340
32985ION     NA49246   6.714  14.845  14.675 -0.2470 -0.1567  0.1193
32986ION     NA49247  16.068  12.435  10.428  0.0829 -0.1242 -0.1327
32987ION     NA49248  18.183  17.560  10.626  0.0563 -0.2100  0.1895
32988ION     NA49249  12.473  13.695  10.509 -0.0611 -0.1468 -0.3137
32989ION     NA49250   3.761   2.325  11.021 -0.1300 -0.3459  0.2084
32990ION     NA49251   1.802  13.188  15.566 -0.0816 -0.1339  0.1640
32991ION     NA49252   8.907   9.717  10.698 -0.2758 -0.0038 -0.0916
32992ION     NA49253  11.107  17.098  10.338 -0.1607 -0.0738 -0.0581
32993ION     NA49254   1.097   4.647  14.733  0.2663  0.1975 -0.0165
32994ION     NA49255   0.643  15.596  10.557  0.0585 -0.0868 -0.0029
32995ION     NA49256   0.892  12.383  12.567 -0.0892 -0.1255  0.0384
32996ION     NA49257   0.628   4.093  11.050 -0.1695  0.2597  0.0711
32997ION     NA49258   4.858   2.357   6.106  0.0443  0.2256 -0.1171
32998ION     NA49259  14.501  15.481  10.542  0.0878 -0.3497 -0.2387
32999ION     NA49260  13.297   2.112  10.248 -0.0899 -0.2816 -0.1125
33000ION     NA49261   7.988   2.577  11.809  0.0298  0.0109  0.1653
33001ION     NA49262   4.707   0.016  10.753 -0.1853  0.1649  0.0892
33002ION     NA49263  14.244   6.675   3.615 -0.0473  0.0284  0.2514
33003ION     NA49264  12.576   8.211   1.385  0.0253 -0.1728  0.0285
33004ION     NA49265  13.006   4.317   2.540 -0.2207 -0.2161 -0.0118
33005ION     NA49266   3.183  16.205  11.007 -0.3105  0.0168 -0.2943
33006ION     NA49267  16.676   1.115  10.821 -0.2363  0.1453  0.3576
33007ION     NA49268   1.617   4.933  12.996 -0.1351  0.1308  0.0785
33008ION     NA49269  17.688  10.738  10.905  0.0311 -0.2851  0.2135
33009ION     NA49270  15.033   0.683   5.435  0.2373 -0.1238 -0.0104
33010ION     NA49271   5.880   9.602  11.201  0.1313  0.2541 -0.3326
33011ION     NA49272   5.797   5.847  10.853 -0.3008  0.1681 -0.2053
33012ION     NA49273  12.086   3.816   9.948  0.3208  0.1426 -0.2373
33013ION     NA49274  14.124   3.640   3.544  0.2196  0.1741 -0.0702
33014ION     NA49275  10.510  11.419  15.940  0.0386 -0.2253 -0.1438
33015ION     NA49276  10.723  17.039   3.466  0.0348 -0.1148 -0.2938
33016ION     NA49277  17.178   3.340  11.053  0.0845 -0.1042 -0.0356
33017ION     NA49278   0.992  14.681  10.543 -0.0592  0.0122  0.1982
33018ION     NA49279   6.854   5.725   4.843 -0.0088 -0.1339  0.0400
33019ION     NA49280  14.709   1.371  10.418  0.1100  0.0908 -0.2397
33020ION     NA49281   2.425  11.338  11.258 -0.2476 -0.0444 -0.0682
33021ION     NA49282   3.393   4.036  16.485 -0.1423  0.0553 -0.0798
33022ION     NA49283  10.262  11.243  10.575  0.3144  0.0744 -0.5851
33023ION     NA49284   9.373   7.799   6.211 -0.3608  0.0630 -0.5126
33024ION     NA49285   2.020   4.887   0.422 -0.0157  0.0099 -0.1548
33025ION     NA49286   9.279   5.134  15.152 -0.2660  0.2359  0.0289
33026ION     NA49287  11.446  15.734   6.075  0.2402 -0.4709  0.0441
33027ION     NA49288   8.005  17.854   3.567  0.1434  0.1597  0.3435
33028ION     NA49289   8.404   4.060   5.773  0.0796  0.2744 -0.1534
33029ION     NA49290   0.729  14.255  16.433  0.1736 -0.0652  0.0122
33030ION     NA49291   7.708   3.740  10.212 -0.0647  0.0123  0.2488
33031ION     NA49292  14.142   7.938  10.240  0.2503 -0.1613  0.0477
33032ION     NA49293   9.007  13.825  11.039 -0.2367 -0.2587  0.2445
33033ION     NA49294  16.675  13.218  13.671 -0.2633  0.2931  0.0348
33034ION     NA49295   3.435   0.527  10.686 -0.1764 -0.1122 -0.0447
33035ION     NA49296  16.339  11.448   5.725 -0.0486  0.1819  0.0099
33036ION     NA49297  12.275   9.318   4.593 -0.1899 -0.0097  0.0415
33037ION     NA49298   7.320   5.815  10.680 -0.4861  0.2107  0.2088
33038ION     NA49299   1.517   9.357  10.678  0.0125  0.0394  0.0662
33039ION     NA49300   2.804  16.982  10.910  0.1637  0.0724 -0.4392
33040ION     NA49301   4.991  16.737  10.938 -0.0743 -0.0160  0.1299
33041ION     NA49302  14.418  16.357  10.394  0.1817 -0.2233 -0.1327
33042ION     NA49303  10.342   3.059  10.117 -0.3661 -0.0448 -0.2854
33043ION     NA49304   5.176  14.175   6.291  0.4153  0.1739 -0.0471
33044ION     NA49305  12.704  11.238   3.695 -0.0033 -0.0747  0.2230
33045ION     NA49306   3.012   9.496  10.894 -0.2465 -0.1170 -0.1855
33046ION     NA49307   4.033   6.342  10.734 -0.1301 -0.2598  0.0344
33047ION     NA49308  15.863  14.879  10.552  0.1147  0.1272  0.2222
33048ION     NA49309   3.360  13.123   6.232 -0.0281  0.0676  0.0556
33049ION     NA49310   3.233   3.769  14.437  0.2126 -0.0760 -0.1702
33050ION     NA49311   7.999   7.608  10.440  0.2762 -0.0324 -0.1691
33051ION     NA49312   2.104  17.556  10.799 -0.0658  0.0177 -0.1365
33052ION     NA49313   2.150   5.156  10.940  0.1242 -0.1297 -0.0415
33053ION     NA49314   8.792   3.485  10.424 -0.1478 -0.1782  0.0136
33054ION     NA49315  14.350   5.332  11.924 -0.1666 -0.0055  0.1660
33055ION     NA49316   9.507  10.199  10.983 -0.0259  0.3918  0.2514
33056ION     NA49317  16.878  13.305  10.451 -0.0175  0.4082  0.0545
33057ION     NA49318  11.776  10.325  10.596 -0.0196 -0.3412 -0.1289
33058ION     NA49319   2.610   2.675   6.168 -0.3200  0.2759 -0.0483
33059ION     NA49320   1.247   5.464  10.888  0.1796  0.1647 -0.0269
33060ION     NA49321  16.278  16.181   4.905  0.0912 -0.1894  0.0112
33061ION     NA49322   6.383  14.436   6.133  0.2851 -0.0756 -0.2747
33062ION     NA49323   9.902  17.379   1.191 -0.0853 -0.1071  0.1488
33063ION     NA49324   0.220   3.529   1.694  0.2264  0.1017 -0.0886
33064ION     NA49325   6.170   4.324  10.800  0.1240 -0.2828  0.2792
33065ION     NA49326   5.952  13.997  11.110 -0.1816 -0.1627  0.1208
33066ION     NA49327   4.897   8.400   5.534  0.2822 -0.2882 -0.1171
33067ION     NA49328  15.421   6.080  10.780  0.0912 -0.0492  0.4175
33068ION     NA49329   7.650  12.987  10.906  0.1123 -0.0914 -0.0487
33069ION     NA49330   8.256  17.661  10.712  0.0133 -0.0303 -0.2594
33070ION     NA49331   4.386  13.408  10.769  0.1119 -0.3445 -0.1588
33071ION     NA49332   7.207  11.566  10.697 -0.2128 -0.0412  0.1954
33072ION     NA49333  16.815  14.045  13.391 -0.1301 -0.3100  0.0390
33073ION     NA49334   8.226   2.811  10.574  0.0157 -0.1108  0.2860
33074ION     NA49335  14.115   5.652  10.287 -0.1570  0.0488  0.3231
33075ION     NA49336   4.553  16.500  10.856  0.0479  0.0642 -0.0869
33076ION     NA49337  11.310   3.153  10.046  0.0013  0.1703  0.0048
33077ION     NA49338   9.065  16.318   6.314  0.1516  0.0765 -0.3051
33078ION     NA49339  12.433   9.091  14.383  0.0523  0.0705 -0.0541
33079ION     NA49340   2.485   2.486  12.188 -0.0867 -0.2119  0.0310
33080ION     NA49341   8.141  16.824   1.103  0.0738 -0.1730 -0.1086
33081ION     NA49342   0.686   6.204  11.024  0.0776  0.1475 -0.1655
33082ION     NA49343  11.066  16.426  10.475 -0.0806  0.2049 -0.0877
33083ION     NA49344  16.501   0.382  10.646 -0.1727 -0.0410  0.1555
33084ION     NA49345   7.117   7.643  10.471 -0.1184  0.2239 -0.1296
33085ION     NA49346  12.013  14.488   5.615  0.1502 -0.0064  0.2554
33086ION     NA49347  12.692   7.629  10.112 -0.2546 -0.1115 -0.1739
33087ION     NA49348   9.302   1.761  10.376 -0.3937  0.1177  0.0532
33088ION     NA49349  11.710   3.814  16.453 -0.2996 -0.6000  0.1158
33089ION     NA49350   9.524  13.140  10.885 -0.0215  0.0371  0.0960
33090ION     NA49351  10.629   1.330  14.797  0.1524  0.1492 -0.2797
33091ION     NA49352  13.050   7.297   0.779  0.1023 -0.0315 -0.0463
33092ION     NA49353  15.186   2.887  10.352 -0.0773  0.2884 -0.1783
33093ION     NA49354   6.880   4.178   6.002  0.1252  0.2160  0.1767
33094ION     NA49355  12.101   5.656  10.071  0.4128 -0.0683 -0.0490
33095ION     NA49356  17.127  14.847  13.500  0.4016 -0.0191  0.0389
33096ION     NA49357   7.249  14.960  11.071 -0.0804  0.2025 -0.3072
33097ION     NA49358  11.002   9.019  11.041 -0.0590  0.1324  0.1114
33098ION     NA49359  13.946  13.513  15.420  0.1760  0.1634 -0.0529
33099ION     NA49360   1.879   3.787  12.303  0.0212 -0.2546  0.3634
33100ION     NA49361  10.305  13.990  15.059 -0.2655 -0.1713  0.0597
33101ION     NA49362   6.554   9.586   3.908  0.0721  0.1937 -0.0355
33102ION     NA49363   8.772  17.553  10.717 -0.1062  0.1972  0.1210
33103ION     NA49364  15.209  18.069  10.365  0.1106 -0.1807  0.0490
33104ION     NA49365   1.023   2.580  10.972 -0.0315  0.0728  0.0922
33105ION     NA49366   8.757  16.203  10.606 -0.1379  0.1533  0.0984
33106ION     NA49367   4.636  11.317  10.825 -0.3399 -0.3355 -0.0437
33107ION     NA49368  18.166   8.039   0.815 -0.1357  0.0138 -0.3215
33108ION     NA49369   5.486  16.466  11.033 -0.1491  0.0667 -0.1892
33109ION     NA49370   2.598   7.022  13.638 -0.1592  0.2623  0.1273
33110ION     NA49371   7.240   4.798  10.679  0.1127  0.0947  0.3272
33111ION     NA49372   2.676  10.458   5.959  0.0846 -0.2378  0.0974
33112ION     NA49373  15.891   2.553  10.416  0.0440 -0.3111 -0.2559
33113ION     NA49374   7.740   6.345  10.460  0.2358  0.1938 -0.2015
33114ION     NA49375  13.723   2.665   5.787  0.4026 -0.3069  0.0418
33115ION     NA49376  11.232   9.940   1.373 -0.1835  0.2108 -0.0284
33116ION     NA49377  10.969  13.468   2.474  0.0666 -0.1986 -0.0404
33117ION     NA49378  12.389  12.239  12.829 -0.1138 -0.1633 -0.2489
33118ION     NA49379  13.514   7.396   5.806 -0.0232 -0.0969  0.1403
33119ION     NA49380   0.652   9.749  10.614 -0.2273  0.0568 -0.0169
33120ION     NA49381  13.646   5.152  13.503  0.0657  0.1028 -0.3144
33121ION     NA49382   8.213  12.409   6.168 -0.0629 -0.0598  0.3952
33122ION     NA49383   3.475   1.520  10.931 -0.2654  0.0492 -0.1629
33123ION     NA49384  12.715   0.185  11.427 -0.0999  0.1413  0.0796
33124ION     NA49385   1.578  17.885  12.164 -0.2078  0.1687  0.1817
33125ION     NA49386  14.254   6.591  10.377 -0.0984  0.0603  0.0393
33126ION     NA49387  10.613  12.097  10.519 -0.0176  0.1745  0.1500
33127ION     NA49388   3.013   6.475  16.643 -0.3199 -0.1434 -0.2920
33128ION     NA49389  11.223   3.920   9.711  0.1205 -0.0883  0.2326
33129ION     NA49390  14.559   9.301   1.602 -0.1745  0.0456  0.1718
33130ION     NA49391  15.435   0.672  10.369 -0.0601  0.0245  0.3474
33131ION     NA49392  10.286   4.338  10.011  0.7092  0.0381  0.1815
33132ION     NA49393  17.520  14.059  10.709  0.1326 -0.6333  0.3403
33133ION     NA49394  12.384   4.757  11.309  0.0379  0.1806 -0.1014
33134ION     NA49395   9.408   5.269   0.302  0.0426  0.1468 -0.0316
33135ION     NA49396  13.184   2.694  10.189 -0.2560 -0.0533  0.3238
33136ION     NA49397   0.028   0.427  10.927 -0.0669  0.2671 -0.0250
33137ION     NA49398   1.131   0.656  11.291  0.0117  0.0375  0.0679
33138ION     NA49399   1.884   9.899   6.129  0.0841 -0.1042 -0.1087
33139ION     NA49400  12.529   3.988   5.405 -0.1180 -0.2428 -0.2806
33140ION     NA49401  11.791   5.901  13.878  0.1377 -0.1830 -0.1661
33141ION     NA49402  15.747   4.881  10.638  0.1065  0.1341  0.1425
33142ION     NA49403   8.143  10.148  10.697 -0.0093  0.1352 -0.0252
33143ION     NA49404   9.521  16.087  10.538  0.1488  0.1641  0.0945
33144ION     NA49405  16.359   5.077   6.252 -0.1507  0.3209 -0.0591
33145ION     NA49406  13.205   0.569   1.334  0.2246 -0.0391  0.2010
33146ION     NA49407  17.935  15.574  10.818  0.2971 -0.2771  0.2953
33147ION     NA49408   1.610  10.144  10.653 -0.1939 -0.1340  0.2336
33148ION     NA49409  15.649   1.042  10.598 -0.0864 -0.2774 -0.2973
33149ION     NA49410   6.710  11.928   6.088  0.0277  0.2511 -0.0011
33150ION     NA49411  13.263  12.688   0.385 -0.2655 -0.3380 -0.2480
33151ION     NA49412   3.489  14.822   6.296  0.0213 -0.1360 -0.4537
33152ION     NA49413  16.168   1.913  10.539  0.1176  0.0489  0.1880
33153ION     NA49414   7.125  16.604   6.078 -0.2295  0.1047 -0.0076
33154ION     NA49415   8.379   8.345  10.645 -0.4687 -0.2688  0.1961
33155ION     NA49416  14.384  17.790  10.809 -0.1373  0.1921  0.0045
33156ION     NA49417   3.237  11.816  11.060 -0.1490  0.1473  0.1452
33157ION     NA49418  11.626  14.659  15.624 -0.0223  0.1558  0.0420
33158ION     NA49419  12.811   4.965   9.936  0.0140 -0.2753  0.1628
33159ION     NA49420  11.768  17.622   4.031  0.1207  0.2004 -0.2495
33160ION     NA49421  11.794   4.055   4.259 -0.0580  0.3556  0.1675
33161ION     NA49422  13.831   1.288  10.480 -0.0629  0.3263  0.1379
33162ION     NA49423  18.024   7.464  10.699 -0.1424 -0.4112  0.2058
33163ION     NA49424  17.214  16.257   3.040 -0.3461  0.4017 -0.1192
33164ION     NA49425   6.323   2.532  11.141 -0.1192 -0.1191 -0.1348
33165ION     NA49426   8.562   8.173  11.122  0.0928 -0.0082  0.0829
33166ION     NA49427  17.655   3.328   1.493 -0.0695 -0.0892 -0.1401
33167ION     NA49428  16.542   8.310  10.587  0.0500  0.0127 -0.3652
  18.19428  18.19428  16.65109
