INSANE! Membrane UpperLeaflet>loPI:POPI:DPPI:PYPI:ERGO=180.0:5.0:3.0:2.0:10.0 LowerLeaflet>PSPI:POPI:POPS:YOPS:POPE:YOPE:POPC:YOPC:ERGO=6.0:14.0:21.0:9.0:9.0:21.0:12.0:48.0:60.0
49428
    1loPI    C1    1  19.235   7.417   9.340  0.2052 -0.0570 -0.3042
    1loPI    C2    2  19.138   7.124   9.595  0.1428  0.1390 -0.0994
    1loPI    C3    3  19.512   7.265   9.585  0.2028 -0.0285 -0.2836
    1loPI   PO4    4  19.148   7.389   9.173 -0.3341 -0.1711  0.0543
    1loPI   GL1    5  19.102   7.327   8.781 -0.1341  0.0792  0.0451
    1loPI   GL2    6  19.402   7.115   8.709 -0.1612 -0.0679 -0.1877
    1loPI   C1A    7  19.082   7.308   8.349 -0.3231  0.0842 -0.0939
    1loPI   C2A    8  19.179   7.155   7.938  0.1566 -0.2657 -0.3324
    1loPI   C3A    9  19.071   7.382   7.567  0.0290 -0.0858 -0.4039
    1loPI   C4A   10  19.022   7.607   7.269 -0.2652 -0.1636 -0.1315
    1loPI   C5A   11  18.945   7.973   7.144  0.0153 -0.3401 -0.2526
    1loPI   C6A   12  18.732   8.331   7.139  0.1108  0.0095  0.1435
    1loPI   C1B   13  19.628   7.215   8.261  0.0135 -0.0897  0.4339
    1loPI   C2B   14  19.596   7.194   7.690 -0.5749  0.0660 -0.3892
    1loPI   C3B   15  19.596   6.931   7.304  0.2241 -0.1429  0.2622
    1loPI   C4B   16  19.871   6.943   6.873  0.3715 -0.1119  0.0307
    2loPI    C1   17   4.798  10.458  10.017 -0.0405  0.3150  0.0419
    2loPI    C2   18   4.908  10.322  10.376 -0.1940 -0.1494 -0.0793
    2loPI    C3   19   4.584  10.553  10.341 -0.1797 -0.1041  0.0794
    2loPI   PO4   20   4.873  10.180   9.838  0.0698 -0.1598  0.3524
    2loPI   GL1   21   5.149  10.029   9.479  0.0009 -0.2141  0.0617
    2loPI   GL2   22   5.321  10.251   9.261 -0.1284  0.0013  0.1282
    2loPI   C1A   23   4.825  10.165   9.077  0.0428 -0.0569  0.0540
    2loPI   C2A   24   4.813  10.311   8.626 -0.0354 -0.0095 -0.0768
    2loPI   C3A   25   5.117  10.546   8.419  0.1124  0.0576  0.0996
    2loPI   C4A   26   5.250  10.645   8.023  0.0839 -0.1103 -0.1635
    2loPI   C5A   27   5.448  10.534   7.562  0.0116 -0.1426 -0.0293
    2loPI   C6A   28   5.326  10.814   7.174  0.0803 -0.1558 -0.1484
    2loPI   C1B   29   5.053  10.597   9.049  0.0086  0.0031  0.1200
    2loPI   C2B   30   4.929  10.944   8.757  0.2095 -0.1726 -0.0545
    2loPI   C3B   31   4.834  11.174   8.345 -0.1472 -0.3332 -0.1163
    2loPI   C4B   32   4.817  11.164   7.958 -0.1143  0.5423 -0.2183
    3loPI    C1   33  18.069  19.108  10.068 -0.0541 -0.0692  0.0472
    3loPI    C2   34  18.403  18.890  10.039  0.0840  0.1918 -0.4253
    3loPI    C3   35  18.423  19.272  10.157 -0.1220  0.0481  0.1038
    3loPI   PO4   36  17.921  19.138   9.854  0.2905 -0.2085 -0.3865
    3loPI   GL1   37  17.950  19.054   9.530  0.1786  0.1761 -0.0553
    3loPI   GL2   38  17.951  19.183   9.226  0.0846 -0.0920 -0.0301
    3loPI   C1A   39  18.181  18.775   9.221  0.2290 -0.1194 -0.2354
    3loPI   C2A   40  18.180  18.592   8.818 -0.3412  0.2003  0.1958
    3loPI   C3A   41  18.071  18.563   8.385 -0.3879 -0.1813  0.0082
    3loPI   C4A   42  17.958  18.688   7.977  0.2600  0.0178  0.2723
    3loPI   C5A   43  18.015  18.807   7.492  0.1587 -0.1206 -0.3052
    3loPI   C6A   44  18.325  19.057   7.174 -0.1942 -0.0607 -0.4802
    3loPI   C1B   45  17.705  18.824   8.967 -0.1924 -0.0094  0.2397
    3loPI   C2B   46  17.601  18.556   8.587 -0.1581  0.0437 -0.5147
    3loPI   C3B   47  17.572  18.768   8.278  0.0995 -0.2543  0.1289
    3loPI   C4B   48  17.486  18.997   7.914  0.0938 -0.0569 -0.1188
    4loPI    C1   49   5.545  10.758   9.808  0.4395 -0.0388  0.1763
    4loPI    C2   50   5.891  10.819  10.000  0.3146  0.1974  0.3309
    4loPI    C3   51   5.563  10.718  10.206  0.3013 -0.0774  0.1790
    4loPI   PO4   52   5.596  10.648   9.534  0.1482  0.0131 -0.1504
    4loPI   GL1   53   5.568  10.664   9.179 -0.0464  0.0063 -0.2833
    4loPI   GL2   54   5.671  10.930   9.111 -0.1728 -0.2206  0.4229
    4loPI   C1A   55   5.613  10.455   8.860  0.1506  0.0192  0.5097
    4loPI   C2A   56   5.653  10.512   8.364 -0.1012 -0.0592 -0.0316
    4loPI   C3A   57   5.743  10.362   8.007 -0.0461  0.2167 -0.0762
    4loPI   C4A   58   5.893  10.390   7.595  0.1205 -0.2656 -0.0964
    4loPI   C5A   59   5.788  10.532   7.202 -0.2421 -0.0540 -0.1820
    4loPI   C6A   60   6.027  10.823   6.990 -0.0164  0.2167 -0.2970
    4loPI   C1B   61   5.476  10.913   8.718  0.1244 -0.3138  0.1172
    4loPI   C2B   62   5.337  11.025   8.362  0.1731  0.2485  0.0565
    4loPI   C3B   63   5.298  11.158   7.905 -0.0490 -0.1778  0.0290
    4loPI   C4B   64   5.120  10.945   7.580 -0.2452 -0.4121  0.0524
    5loPI    C1   65   2.979  11.066  10.125 -0.3129 -0.0960 -0.2169
    5loPI    C2   66   2.962  10.963  10.511  0.3721 -0.0621 -0.1655
    5loPI    C3   67   2.965  10.680  10.228 -0.1752 -0.0858 -0.1582
    5loPI   PO4   68   3.109  11.189  10.114  0.2131 -0.2051 -0.3790
    5loPI   GL1   69   3.174  11.194   9.634 -0.1126  0.2358 -0.2200
    5loPI   GL2   70   3.165  10.845   9.655  0.1574  0.0104 -0.2164
    5loPI   C1A   71   3.130  11.283   9.236 -0.2883 -0.1523 -0.0615
    5loPI   C2A   72   3.061  11.178   8.829 -0.1202  0.1724 -0.1209
    5loPI   C3A   73   3.048  10.964   8.403  0.1421  0.2585  0.1382
    5loPI   C4A   74   3.162  10.867   7.938  0.0339  0.2699 -0.0338
    5loPI   C5A   75   3.183  10.726   7.566 -0.0289 -0.1284  0.0085
    5loPI   C6A   76   2.941  10.846   7.413 -0.2897  0.2550  0.1697
    5loPI   C1B   77   2.841  10.836   9.377 -0.0168 -0.1996 -0.1473
    5loPI   C2B   78   2.752  10.549   9.040  0.0096 -0.1735  0.0603
    5loPI   C3B   79   2.641  10.498   8.710 -0.1695 -0.0956  0.2025
    5loPI   C4B   80   2.788  10.547   8.305  0.0478  0.0812 -0.1255
    6loPI    C1   81   5.966  15.433   9.862 -0.1213  0.0719  0.0566
    6loPI    C2   82   6.212  15.200  10.075  0.1262  0.3943  0.1307
    6loPI    C3   83   5.825  15.223  10.172  0.1106  0.0603  0.1565
    6loPI   PO4   84   5.959  15.331   9.622 -0.2684 -0.0043 -0.2360
    6loPI   GL1   85   5.799  15.073   9.298 -0.1570 -0.0864 -0.1702
    6loPI   GL2   86   5.483  15.126   9.424  0.2307 -0.1943  0.1118
    6loPI   C1A   87   6.024  14.896   8.916  0.2779  0.0982 -0.0770
    6loPI   C2A   88   6.015  14.879   8.365 -0.0991 -0.2050 -0.1949
    6loPI   C3A   89   5.913  14.945   7.931 -0.0219 -0.0463  0.1417
    6loPI   C4A   90   6.399  15.027   7.868 -0.2212  0.2528 -0.2599
    6loPI   C5A   91   6.692  15.152   7.541 -0.0615 -0.0382  0.0323
    6loPI   C6A   92   6.996  15.482   7.320  0.1509  0.0349 -0.0741
    6loPI   C1B   93   5.514  14.981   8.948  0.1261  0.1468  0.0408
    6loPI   C2B   94   5.478  14.791   8.518  0.3039 -0.0847  0.2305
    6loPI   C3B   95   5.519  14.739   8.111 -0.1076  0.0564 -0.2169
    6loPI   C4B   96   5.424  14.611   7.771 -0.2892 -0.1990 -0.0412
    7loPI    C1   97   2.965  19.078   9.754  0.1769 -0.1538 -0.1556
    7loPI    C2   98   2.615  19.109   9.946  0.1926  0.2176 -0.1789
    7loPI    C3   99   2.881  18.831  10.057  0.1083  0.2784  0.1877
    7loPI   PO4  100   2.998  19.390   9.773  0.0551  0.1893  0.2698
    7loPI   GL1  101   3.068  19.625   9.412 -0.2951  0.1426 -0.0554
    7loPI   GL2  102   3.378  19.668   9.251 -0.1425 -0.0551 -0.0446
    7loPI   C1A  103   2.984  19.376   9.053  0.0615  0.1761  0.3014
    7loPI   C2A  104   2.846  19.224   8.755  0.0861 -0.1693  0.0281
    7loPI   C3A  105   2.795  19.271   8.460 -0.1809 -0.1131 -0.2747
    7loPI   C4A  106   2.732  19.171   7.999 -0.1597 -0.2917 -0.1165
    7loPI   C5A  107   2.793  19.002   7.583  0.2738  0.0010  0.3932
    7loPI   C6A  108   2.723  18.842   7.122  0.2023  0.3901  0.4559
    7loPI   C1B  109   3.291  19.682   8.758 -0.1329 -0.1385  0.1995
    7loPI   C2B  110   3.289  19.360   8.406 -0.2151  0.3244 -0.1700
    7loPI   C3B  111   3.355  19.317   7.991  0.1542 -0.0847 -0.2568
    7loPI   C4B  112   3.183  19.249   7.601 -0.0975 -0.0049  0.0983
    8loPI    C1  113   7.152   6.473   9.018  0.2696  0.1141  0.0651
    8loPI    C2  114   7.396   6.611   9.303 -0.0322  0.1701  0.3009
    8loPI    C3  115   7.148   6.307   9.382  0.1630 -0.0798 -0.0227
    8loPI   PO4  116   7.267   6.567   8.716  0.4646  0.2767  0.0791
    8loPI   GL1  117   7.361   6.418   8.295  0.1772 -0.3728  0.1777
    8loPI   GL2  118   7.638   6.516   8.278 -0.3067  0.0217  0.2668
    8loPI   C1A  119   7.242   6.133   7.993  0.2461 -0.2048 -0.2106
    8loPI   C2A  120   7.015   6.070   7.529 -0.2188 -0.0364  0.2240
    8loPI   C3A  121   6.916   6.067   7.086  0.1182  0.3420  0.1276
    8loPI   C4A  122   6.598   6.178   6.893 -0.0289  0.1518  0.3339
    8loPI   C5A  123   6.556   6.210   6.489 -0.0660  0.0567  0.2193
    8loPI   C6A  124   6.545   6.309   6.006  0.0410  0.2699 -0.2398
    8loPI   C1B  125   7.656   6.492   7.899 -0.0126 -0.2208 -0.0244
    8loPI   C2B  126   7.822   6.404   7.581 -0.0496  0.0061  0.1259
    8loPI   C3B  127   7.839   6.132   7.216  0.3733  0.0857 -0.1779
    8loPI   C4B  128   7.950   6.320   6.856  0.3170  0.1899 -0.0280
    9loPI    C1  129  13.928  14.311  10.328 -0.0063 -0.0732  0.1720
    9loPI    C2  130  14.190  14.607  10.264  0.2215 -0.3202 -0.0613
    9loPI    C3  131  14.242  14.356  10.571 -0.0673 -0.0198  0.2414
    9loPI   PO4  132  13.835  14.337  10.035  0.1361  0.0553  0.0443
    9loPI   GL1  133  13.597  14.407   9.776 -0.2300  0.0967 -0.1257
    9loPI   GL2  134  13.925  14.681   9.696 -0.0181  0.1479 -0.1013
    9loPI   C1A  135  13.536  14.338   9.310 -0.0481 -0.2692 -0.0011
    9loPI   C2A  136  13.517  14.393   8.870  0.2751 -0.4550  0.3922
    9loPI   C3A  137  13.497  14.445   8.382 -0.0173  0.0919 -0.3771
    9loPI   C4A  138  13.279  14.724   8.087 -0.0506  0.0052  0.0318
    9loPI   C5A  139  13.188  15.102   7.924 -0.2659  0.1115 -0.0577
    9loPI   C6A  140  13.136  15.410   7.556  0.1354  0.2171 -0.0249
    9loPI   C1B  141  14.001  14.620   9.213 -0.1190  0.3104 -0.0625
    9loPI   C2B  142  13.874  14.812   8.875  0.0556  0.1861  0.0254
    9loPI   C3B  143  13.849  14.798   8.483 -0.1275 -0.1750  0.0148
    9loPI   C4B  144  13.754  14.823   8.045  0.1194  0.1266  0.0584
   10loPI    C1  145  10.276   9.321   9.559  0.0559  0.0310  0.1907
   10loPI    C2  146  10.132   9.568   9.839 -0.2648 -0.2711  0.3011
   10loPI    C3  147  10.159   9.176   9.914  0.1300 -0.2900  0.0878
   10loPI   PO4  148  10.470   9.443   9.426 -0.2004  0.0028  0.0798
   10loPI   GL1  149  10.610   9.321   9.029 -0.0178 -0.3066 -0.1370
   10loPI   GL2  150  11.030   9.281   9.030 -0.1195  0.2170 -0.3068
   10loPI   C1A  151  10.384   9.485   8.717 -0.0169  0.0958 -0.0868
   10loPI   C2A  152  10.577   9.719   8.290  0.3131 -0.1857  0.0408
   10loPI   C3A  153  10.599  10.075   8.071 -0.0299  0.1113 -0.1618
   10loPI   C4A  154  10.632  10.182   7.696  0.0429  0.2280 -0.1606
   10loPI   C5A  155  10.412  10.367   7.304  0.3642 -0.1453 -0.3557
   10loPI   C6A  156  10.364  10.774   7.041  0.1310 -0.1346 -0.2323
   10loPI   C1B  157  10.947   9.303   8.573  0.0787  0.2202  0.0295
   10loPI   C2B  158  10.770   9.214   8.240  0.0278  0.1326  0.2398
   10loPI   C3B  159  10.683   9.120   7.849 -0.1458 -0.0831 -0.1926
   10loPI   C4B  160  10.835   8.903   7.407  0.2337  0.0710 -0.0065
   11loPI    C1  161  13.116  17.068  10.200  0.0117 -0.1243 -0.0844
   11loPI    C2  162  13.304  16.842  10.471  0.0629 -0.0535 -0.0606
   11loPI    C3  163  12.927  16.961  10.536  0.1265  0.0904  0.0506
   11loPI   PO4  164  13.093  17.062   9.963  0.3533 -0.0557  0.3743
   11loPI   GL1  165  12.751  17.030   9.623  0.0994 -0.0809 -0.1124
   11loPI   GL2  166  12.457  16.783   9.596 -0.1406 -0.0016  0.1171
   11loPI   C1A  167  13.044  17.113   9.283  0.1953  0.1038 -0.1572
   11loPI   C2A  168  13.255  16.983   8.949  0.0699  0.3428  0.1040
   11loPI   C3A  169  13.422  16.766   8.531 -0.1352  0.1799 -0.0016
   11loPI   C4A  170  13.446  16.979   8.302  0.2077  0.7444 -0.1624
   11loPI   C5A  171  13.440  16.914   7.786 -0.0280  0.2002  0.2304
   11loPI   C6A  172  13.058  17.035   7.588 -0.0996 -0.1417 -0.3570
   11loPI   C1B  173  12.442  16.998   9.140 -0.1466 -0.0476 -0.0343
   11loPI   C2B  174  12.667  17.056   8.800  0.2673 -0.1666 -0.1210
   11loPI   C3B  175  12.968  16.978   8.487  0.2323 -0.1165 -0.0588
   11loPI   C4B  176  12.940  16.973   8.107 -0.0389 -0.0081  0.0366
   12loPI    C1  177   8.786   0.309   9.714 -0.1518 -0.1730 -0.0232
   12loPI    C2  178   8.897   0.173  10.073 -0.2524  0.1780  0.1458
   12loPI    C3  179   8.515   0.270  10.005 -0.2798 -0.1087 -0.1329
   12loPI   PO4  180   8.943   0.084   9.550  0.0966 -0.1888 -0.0764
   12loPI   GL1  181   8.788   0.164   9.169  0.0084  0.0307 -0.0649
   12loPI   GL2  182   8.423   0.067   9.141  0.2049 -0.2008 -0.0280
   12loPI   C1A  183   9.017   0.179   8.699 -0.0023  0.2064 -0.0329
   12loPI   C2A  184   8.883   0.019   8.271 -0.2611  0.3559  0.1454
   12loPI   C3A  185   8.961  -0.089   7.789 -0.0088 -0.2003  0.1753
   12loPI   C4A  186   9.183  -0.131   7.363 -0.0503  0.1505  0.2555
   12loPI   C5A  187   9.167   0.105   7.020 -0.1472  0.1716  0.2106
   12loPI   C6A  188   9.569   0.352   6.901 -0.0451 -0.0370 -0.0767
   12loPI   C1B  189   8.518   0.264   8.705 -0.1861 -0.2569  0.1951
   12loPI   C2B  190   8.549   0.427   8.260 -0.0133 -0.2531 -0.0220
   12loPI   C3B  191   8.608   0.217   7.934 -0.1071 -0.1221 -0.3555
   12loPI   C4B  192   8.558  -0.022   7.532  0.1989  0.2757 -0.2415
   13loPI    C1  193   6.116   1.021   9.371 -0.0899 -0.0081 -0.0371
   13loPI    C2  194   6.198   1.226   9.705  0.2192  0.0493 -0.1448
   13loPI    C3  195   6.333   0.852   9.662 -0.0434 -0.0532 -0.0977
   13loPI   PO4  196   6.197   1.076   9.174 -0.4115 -0.1779 -0.0033
   13loPI   GL1  197   6.028   0.993   8.780 -0.2478  0.1121 -0.4653
   13loPI   GL2  198   6.398   0.946   8.743  0.3376  0.4904  0.0555
   13loPI   C1A  199   5.999   0.780   8.295  0.1466  0.2592 -0.2277
   13loPI   C2A  200   6.037   0.974   7.907  0.1123  0.2310 -0.1699
   13loPI   C3A  201   6.102   1.087   7.503  0.5631  0.0883 -0.2126
   13loPI   C4A  202   5.942   1.096   7.058 -0.2121  0.2766 -0.0602
   13loPI   C5A  203   5.733   0.938   6.719  0.1023  0.0369  0.1829
   13loPI   C6A  204   5.355   0.987   6.696  0.1311 -0.1981 -0.1612
   13loPI   C1B  205   6.374   1.120   8.296  0.0045 -0.1712 -0.0164
   13loPI   C2B  206   6.491   1.160   7.887  0.0112 -0.1761 -0.2515
   13loPI   C3B  207   6.573   1.218   7.394  0.1889  0.4534  0.0691
   13loPI   C4B  208   6.453   1.299   7.088  0.0147  0.2473 -0.1469
   14loPI    C1  209   4.262  13.819  10.026 -0.1893 -0.2360 -0.1178
   14loPI    C2  210   4.123  14.083  10.293 -0.0894 -0.1196 -0.1800
   14loPI    C3  211   4.082  13.691  10.360  0.0707 -0.0941  0.0809
   14loPI   PO4  212   4.374  13.975   9.870  0.0706 -0.3116  0.0878
   14loPI   GL1  213   4.238  14.004   9.511 -0.1216 -0.0560  0.1705
   14loPI   GL2  214   4.108  14.276   9.460  0.0438 -0.1594 -0.1954
   14loPI   C1A  215   3.921  13.829   9.218  0.1038  0.1465  0.2094
   14loPI   C2A  216   3.885  13.830   8.779 -0.0913 -0.2878  0.2727
   14loPI   C3A  217   3.991  13.834   8.328  0.0710  0.0255  0.0671
   14loPI   C4A  218   3.868  13.787   7.939  0.1106 -0.2062  0.1081
   14loPI   C5A  219   3.908  13.770   7.488 -0.3434 -0.0192  0.0312
   14loPI   C6A  220   4.025  13.522   7.163 -0.2602  0.0864 -0.3089
   14loPI   C1B  221   4.095  14.224   8.993 -0.0982  0.0875  0.0194
   14loPI   C2B  222   4.197  14.178   8.614  0.1496  0.1368  0.1842
   14loPI   C3B  223   4.369  14.250   8.154  0.0621 -0.2487 -0.1144
   14loPI   C4B  224   4.514  14.330   7.655  0.3269  0.2896 -0.2288
   15loPI    C1  225  12.246   8.313   9.488 -0.0965 -0.0061 -0.0144
   15loPI    C2  226  12.316   8.084   9.809  0.0603 -0.0554 -0.0828
   15loPI    C3  227  12.377   8.479   9.827 -0.3259  0.0016  0.0722
   15loPI   PO4  228  12.120   8.111   9.296 -0.1743 -0.0135 -0.1626
   15loPI   GL1  229  12.162   8.077   8.866 -0.1101  0.1174  0.5535
   15loPI   GL2  230  12.470   8.197   8.897 -0.1374  0.5958 -0.0185
   15loPI   C1A  231  12.222   7.764   8.446 -0.0419 -0.2108  0.0206
   15loPI   C2A  232  12.114   7.711   7.999 -0.0955 -0.3162  0.1488
   15loPI   C3A  233  12.097   7.558   7.621  0.4022 -0.4424 -0.1657
   15loPI   C4A  234  12.200   7.655   7.219  0.2523 -0.1930 -0.0074
   15loPI   C5A  235  12.437   7.639   6.876 -0.1111 -0.1190  0.0602
   15loPI   C6A  236  12.632   7.398   6.499 -0.1164 -0.1331  0.0007
   15loPI   C1B  237  12.473   8.183   8.468 -0.1826 -0.3957  0.0156
   15loPI   C2B  238  12.293   8.202   8.110 -0.1057  0.1316  0.1202
   15loPI   C3B  239  12.211   8.073   7.635 -0.0354  0.1830 -0.2261
   15loPI   C4B  240  12.060   8.187   7.265 -0.1273 -0.0567 -0.1667
   16loPI    C1  241   2.964  18.306  10.076  0.2083  0.1907 -0.1051
   16loPI    C2  242   3.324  18.431  10.200  0.3023 -0.1458 -0.0304
   16loPI    C3  243   3.004  18.477  10.436  0.3746 -0.2381  0.0873
   16loPI   PO4  244   3.047  18.327   9.761  0.2133 -0.3615 -0.2627
   16loPI   GL1  245   2.941  18.383   9.423  0.0935 -0.2365  0.1287
   16loPI   GL2  246   2.810  18.729   9.426  0.1973 -0.0259  0.2175
   16loPI   C1A  247   2.996  18.290   8.964  0.1906  0.0442  0.1629
   16loPI   C2A  248   2.955  18.327   8.482  0.0296  0.1264 -0.0255
   16loPI   C3A  249   2.805  18.420   8.039  0.0078  0.0927  0.0470
   16loPI   C4A  250   2.783  18.485   7.533  0.3096 -0.1097  0.2477
   16loPI   C5A  251   2.373  18.478   7.248  0.0945  0.0755 -0.0346
   16loPI   C6A  252   1.962  18.712   7.158  0.0948  0.0762 -0.3625
   16loPI   C1B  253   2.862  18.799   9.012 -0.5247 -0.0114 -0.0932
   16loPI   C2B  254   2.898  18.785   8.567  0.2525 -0.1301 -0.0922
   16loPI   C3B  255   3.075  18.882   8.222  0.2668 -0.0231 -0.1412
   16loPI   C4B  256   3.159  18.788   7.810  0.4332  0.0811  0.1388
   17loPI    C1  257   1.859   7.071   9.533 -0.4320  0.1105  0.3114
   17loPI    C2  258   2.182   7.237   9.700 -0.2715  0.1536 -0.0331
   17loPI    C3  259   1.964   6.972   9.906 -0.1786  0.3316  0.3013
   17loPI   PO4  260   1.798   7.264   9.313  0.1421 -0.5892 -0.1472
   17loPI   GL1  261   1.616   7.244   8.968 -0.1396 -0.3046 -0.1535
   17loPI   GL2  262   1.263   7.170   8.894 -0.1361  0.2303  0.0573
   17loPI   C1A  263   1.770   7.047   8.621 -0.1185 -0.0954  0.2467
   17loPI   C2A  264   1.756   7.232   8.274 -0.1872  0.0445 -0.1642
   17loPI   C3A  265   1.580   7.108   7.884 -0.0873 -0.0781 -0.0075
   17loPI   C4A  266   1.369   7.289   7.557 -0.0912 -0.3847  0.0272
   17loPI   C5A  267   1.302   7.330   7.106  0.1510 -0.2609  0.1283
   17loPI   C6A  268   1.153   6.957   6.856  0.1318 -0.3284  0.2055
   17loPI   C1B  269   1.306   7.202   8.448 -0.1953 -0.0400  0.0512
   17loPI   C2B  270   1.040   7.231   8.072 -0.1166 -0.0684  0.2603
   17loPI   C3B  271   0.760   7.171   7.719  0.0375  0.0815 -0.1227
   17loPI   C4B  272   0.596   7.280   7.232 -0.4853 -0.1261  0.0145
   18loPI    C1  273  19.034  11.213   9.476 -0.0343  0.1532 -0.0363
   18loPI    C2  274  18.943  11.321   9.851 -0.0883  0.3072 -0.0930
   18loPI    C3  275  19.231  11.514   9.651  0.0748  0.0974 -0.0629
   18loPI   PO4  276  18.845  11.269   9.310  0.3946  0.2010  0.0797
   18loPI   GL1  277  18.426  11.524   9.308 -0.1916  0.1155  0.1089
   18loPI   GL2  278  18.551  11.462   8.956 -0.2349 -0.0213  0.3420
   18loPI   C1A  279  18.240  11.853   9.066 -0.3763 -0.0508  0.1466
   18loPI   C2A  280  18.111  11.899   8.628  0.3212  0.2836  0.1072
   18loPI   C3A  281  17.646  11.780   8.383  0.2142 -0.1242  0.2506
   18loPI   C4A  282  17.392  11.630   7.992 -0.0662 -0.0790  0.1001
   18loPI   C5A  283  17.287  11.445   7.719 -0.0130  0.1821  0.3045
   18loPI   C6A  284  16.902  11.292   7.563  0.2751  0.3503  0.2454
   18loPI   C1B  285  18.527  11.386   8.562 -0.1969 -0.3768  0.1154
   18loPI   C2B  286  18.486  11.303   8.191 -0.1815  0.1150 -0.3485
   18loPI   C3B  287  18.378  11.430   7.769  0.1959  0.2020  0.1669
   18loPI   C4B  288  18.288  11.586   7.389  0.0935  0.0812 -0.0887
   19loPI    C1  289   2.932  12.518  10.053  0.1611  0.1101  0.0185
   19loPI    C2  290   2.903  12.131   9.957  0.2774  0.0723  0.1323
   19loPI    C3  291   2.573  12.355   9.986  0.2244  0.0327 -0.1371
   19loPI   PO4  292   3.171  12.656   9.808 -0.2770  0.2612  0.0779
   19loPI   GL1  293   3.315  12.569   9.417 -0.1852 -0.0692 -0.0897
   19loPI   GL2  294   3.518  12.816   9.369  0.0146 -0.3055  0.1897
   19loPI   C1A  295   3.329  12.262   9.049  0.1478 -0.3155  0.2093
   19loPI   C2A  296   3.468  12.074   8.708 -0.0499  0.0944  0.1974
   19loPI   C3A  297   3.368  11.863   8.388  0.0284  0.1043  0.1052
   19loPI   C4A  298   3.260  11.787   7.960 -0.1458 -0.2142  0.2101
   19loPI   C5A  299   3.141  11.796   7.600 -0.0011  0.1323 -0.0081
   19loPI   C6A  300   2.751  11.766   7.369  0.2243 -0.1393 -0.0643
   19loPI   C1B  301   3.524  12.717   8.854  0.0184  0.2156  0.4051
   19loPI   C2B  302   3.449  12.672   8.421  0.1378  0.0274 -0.0576
   19loPI   C3B  303   3.332  12.838   7.872 -0.2240 -0.0281 -0.2277
   19loPI   C4B  304   3.339  12.721   7.434 -0.1203  0.3062  0.2902
   20loPI    C1  305  18.159  11.699   9.993 -0.0471 -0.2564 -0.0312
   20loPI    C2  306  18.095  11.346  10.170 -0.1058 -0.0452  0.3824
   20loPI    C3  307  17.913  11.674  10.308 -0.1388  0.1326 -0.0672
   20loPI   PO4  308  18.456  11.674   9.829 -0.2481  0.3242 -0.1374
   20loPI   GL1  309  18.656  11.995   9.510 -0.2664  0.1678  0.3306
   20loPI   GL2  310  18.839  11.757   9.430 -0.0236  0.0607  0.0232
   20loPI   C1A  311  18.575  12.288   9.269  0.1139  0.0577  0.3384
   20loPI   C2A  312  18.529  12.295   8.768  0.2121  0.0978 -0.0289
   20loPI   C3A  313  18.452  12.330   8.334 -0.0450 -0.2620 -0.4225
   20loPI   C4A  314  18.427  12.573   7.990  0.0134 -0.1324 -0.0043
   20loPI   C5A  315  18.557  12.798   7.562  0.0444  0.0370 -0.0794
   20loPI   C6A  316  18.833  12.738   7.233 -0.0287 -0.2222 -0.1384
   20loPI   C1B  317  18.837  11.926   9.006  0.2078  0.4003 -0.4339
   20loPI   C2B  318  18.596  11.877   8.546  0.0575  0.0013  0.1893
   20loPI   C3B  319  18.501  11.778   8.155 -0.1319 -0.0330 -0.3946
   20loPI   C4B  320  18.137  11.900   7.824  0.0768  0.1250  0.0749
   21loPI    C1  321  19.362  16.361  10.025 -0.2152 -0.1504 -0.0304
   21loPI    C2  322  19.022  16.523  10.161 -0.1336 -0.1224  0.1444
   21loPI    C3  323  19.338  16.488  10.404  0.0853  0.1207 -0.0972
   21loPI   PO4  324  19.399  16.561   9.778 -0.0593 -0.0216 -0.1625
   21loPI   GL1  325  19.260  16.549   9.315 -0.0770  0.2509 -0.0847
   21loPI   GL2  326  19.045  16.809   9.566 -0.2816 -0.7461 -0.1854
   21loPI   C1A  327  19.162  16.525   8.911 -0.0675 -0.0222  0.2503
   21loPI   C2A  328  19.099  16.777   8.536 -0.0076 -0.1469 -0.3145
   21loPI   C3A  329  19.138  16.749   8.005  0.1007  0.5256  0.2029
   21loPI   C4A  330  18.914  16.519   7.670  0.0719  0.0603  0.0877
   21loPI   C5A  331  18.832  16.589   7.406 -0.0394 -0.1163 -0.3000
   21loPI   C6A  332  18.789  16.494   7.046 -0.1678 -0.2413 -0.0829
   21loPI   C1B  333  18.826  16.778   9.162  0.2260 -0.1077 -0.0740
   21loPI   C2B  334  18.576  16.872   8.842  0.1987  0.0500 -0.0063
   21loPI   C3B  335  18.623  16.761   8.481 -0.3777 -0.3414 -0.0654
   21loPI   C4B  336  18.620  16.628   8.023 -0.4158 -0.2255  0.1975
   22loPI    C1  337   0.854   7.658   9.663 -0.1365  0.0123 -0.1725
   22loPI    C2  338   0.486   7.567   9.791 -0.0068 -0.3552 -0.0468
   22loPI    C3  339   0.806   7.431   9.989  0.2014  0.0700 -0.0786
   22loPI   PO4  340   0.932   7.917   9.523  0.2603 -0.0646 -0.2610
   22loPI   GL1  341   0.897   8.277   9.237 -0.1065  0.0483 -0.1144
   22loPI   GL2  342   0.669   8.579   9.329 -0.0314  0.1828  0.0737
   22loPI   C1A  343   1.009   8.493   8.800 -0.0468  0.0006  0.1666
   22loPI   C2A  344   1.235   8.629   8.579 -0.1711 -0.1898  0.0948
   22loPI   C3A  345   1.430   8.396   8.315 -0.0681 -0.0559 -0.0584
   22loPI   C4A  346   1.442   8.062   8.073 -0.0316 -0.1082 -0.0388
   22loPI   C5A  347   1.347   7.889   7.685  0.0981  0.0527 -0.1574
   22loPI   C6A  348   1.058   7.688   7.461 -0.0782 -0.0356 -0.1041
   22loPI   C1B  349   0.562   8.718   8.965  0.1615 -0.2092 -0.1801
   22loPI   C2B  350   0.633   8.705   8.500 -0.2509 -0.0904 -0.0536
   22loPI   C3B  351   0.827   8.761   8.085  0.1872  0.0377 -0.0496
   22loPI   C4B  352   1.241   8.809   7.978  0.3252  0.1266 -0.2737
   23loPI    C1  353   6.220   6.812   8.906  0.0348 -0.0706  0.2571
   23loPI    C2  354   6.263   6.481   9.127  0.0162  0.0205  0.3983
   23loPI    C3  355   6.009   6.767   9.243 -0.4043 -0.1688 -0.0218
   23loPI   PO4  356   6.247   6.777   8.710  0.0409  0.5525  0.3149
   23loPI   GL1  357   6.139   6.862   8.309 -0.1210 -0.0343  0.2674
   23loPI   GL2  358   6.315   7.077   8.316  0.3383  0.1178  0.1945
   23loPI   C1A  359   5.983   6.645   7.995  0.0121 -0.3684 -0.1476
   23loPI   C2A  360   5.978   6.645   7.538 -0.2238 -0.1060  0.0088
   23loPI   C3A  361   5.877   6.587   7.090  0.0859 -0.1627  0.3676
   23loPI   C4A  362   5.929   6.715   6.780 -0.0823 -0.1562  0.0350
   23loPI   C5A  363   5.824   6.964   6.523 -0.1822  0.0566  0.1090
   23loPI   C6A  364   5.363   7.065   6.446  0.2636  0.3516 -0.4551
   23loPI   C1B  365   6.136   7.103   7.838  0.1745  0.3418 -0.1280
   23loPI   C2B  366   6.012   7.094   7.398 -0.1036 -0.0820 -0.0759
   23loPI   C3B  367   5.870   7.199   7.099  0.1529 -0.0424  0.0735
   23loPI   C4B  368   5.574   7.048   6.982  0.0364  0.1060  0.1681
   24loPI    C1  369  13.762  19.438  10.539 -0.0699 -0.0505  0.0221
   24loPI    C2  370  13.801  19.823  10.638 -0.1849  0.0104 -0.1627
   24loPI    C3  371  13.617  19.570  10.888  0.1026  0.0222  0.0671
   24loPI   PO4  372  13.687  19.447  10.249 -0.1053 -0.4002  0.1527
   24loPI   GL1  373  13.804  19.443   9.698  0.0722 -0.0560 -0.2561
   24loPI   GL2  374  13.995  19.156   9.633  0.1492  0.2294 -0.3074
   24loPI   C1A  375  13.696  19.889   9.562 -0.1329  0.0387  0.0903
   24loPI   C2A  376  13.749  19.953   9.132  0.0165  0.1036  0.0216
   24loPI   C3A  377  13.700  20.191   8.695 -0.0953  0.0577  0.0816
   24loPI   C4A  378  13.946  20.275   8.368 -0.0846 -0.1681 -0.2441
   24loPI   C5A  379  14.194  20.521   8.022  0.1090 -0.2430 -0.2386
   24loPI   C6A  380  14.140  20.578   7.605  0.3780 -0.3285 -0.0838
   24loPI   C1B  381  14.261  19.137   9.234 -0.0190 -0.1275 -0.0064
   24loPI   C2B  382  14.546  18.862   8.970  0.0036  0.2680  0.0021
   24loPI   C3B  383  14.468  18.986   8.508 -0.2577 -0.1841  0.0450
   24loPI   C4B  384  14.572  18.877   8.135  0.0442  0.5324  0.1759
   25loPI    C1  385  15.413   4.749   9.840  0.0368  0.0526  0.1487
   25loPI    C2  386  15.212   4.418   9.940  0.1127  0.0195  0.1932
   25loPI    C3  387  15.052   4.778  10.010 -0.0708 -0.0088 -0.0657
   25loPI   PO4  388  15.457   4.671   9.608  0.2240  0.0545 -0.0469
   25loPI   GL1  389  15.405   4.711   9.182 -0.0776  0.1607 -0.0745
   25loPI   GL2  390  15.069   4.512   9.093  0.0239 -0.2533 -0.1938
   25loPI   C1A  391  15.280   4.885   8.805 -0.1891 -0.0336 -0.2416
   25loPI   C2A  392  15.223   4.892   8.368  0.1096 -0.0697  0.1462
   25loPI   C3A  393  15.232   5.032   8.054 -0.3664  0.3922 -0.1731
   25loPI   C4A  394  15.133   5.046   7.651 -0.0134 -0.2007 -0.0823
   25loPI   C5A  395  14.838   4.946   7.293 -0.0313 -0.0085 -0.2318
   25loPI   C6A  396  14.860   4.632   6.928 -0.2493  0.0339 -0.0919
   25loPI   C1B  397  15.184   4.385   8.653 -0.1197 -0.1496 -0.0027
   25loPI   C2B  398  15.283   4.320   8.145 -0.2103  0.1448 -0.1158
   25loPI   C3B  399  15.500   4.302   7.849 -0.1109  0.0081  0.1424
   25loPI   C4B  400  15.766   4.001   7.557 -0.3505  0.2755  0.2768
   26loPI    C1  401  10.108   7.644   8.952  0.0158  0.2185 -0.0224
   26loPI    C2  402   9.849   7.381   9.105  0.2547 -0.0169 -0.0162
   26loPI    C3  403  10.005   7.666   9.338 -0.0144  0.1415 -0.0260
   26loPI   PO4  404  10.272   7.529   8.821  0.0907 -0.1494  0.2767
   26loPI   GL1  405  10.477   7.592   8.462  0.1371 -0.3836  0.1067
   26loPI   GL2  406  10.685   7.415   8.466 -0.1149  0.2417  0.1329
   26loPI   C1A  407  10.357   7.887   8.291  0.1888 -0.1725  0.2057
   26loPI   C2A  408  10.428   7.883   7.920  0.0940 -0.0502 -0.0985
   26loPI   C3A  409  10.287   8.151   7.527 -0.2091  0.4019  0.0160
   26loPI   C4A  410  10.362   8.241   7.118  0.3149 -0.0736  0.1276
   26loPI   C5A  411  10.416   8.279   6.757  0.0337  0.1224  0.1059
   26loPI   C6A  412  10.047   8.277   6.443  0.2347 -0.0701  0.0778
   26loPI   C1B  413  10.884   7.514   8.033  0.1599  0.1207  0.1090
   26loPI   C2B  414  10.952   7.498   7.535  0.1865  0.1595 -0.0620
   26loPI   C3B  415  11.213   7.514   7.181 -0.1436  0.0985 -0.3452
   26loPI   C4B  416  11.276   7.838   6.879  0.0994 -0.5128  0.2908
   27loPI    C1  417   7.017  18.920   9.518  0.0377  0.0151 -0.3543
   27loPI    C2  418   7.214  18.574   9.548 -0.1618 -0.0655  0.1112
   27loPI    C3  419   7.393  18.916   9.653 -0.0273 -0.0461 -0.1722
   27loPI   PO4  420   6.885  18.919   9.315 -0.1708 -0.1941 -0.2105
   27loPI   GL1  421   6.899  18.703   8.877  0.1857  0.3030 -0.0085
   27loPI   GL2  422   6.606  18.647   8.895 -0.1482  0.0988 -0.0371
   27loPI   C1A  423   6.997  18.701   8.450  0.3077  0.2238  0.0929
   27loPI   C2A  424   7.100  18.662   7.980 -0.2962  0.1744  0.1211
   27loPI   C3A  425   7.183  18.802   7.609  0.1027  0.1424 -0.0900
   27loPI   C4A  426   7.380  18.861   7.233  0.0520 -0.0341  0.1779
   27loPI   C5A  427   7.292  19.105   6.893  0.0092 -0.1402  0.4882
   27loPI   C6A  428   7.049  19.066   6.539 -0.1713  0.1076  0.2368
   27loPI   C1B  429   6.531  18.430   8.440  0.0999 -0.0967 -0.1580
   27loPI   C2B  430   6.428  18.505   8.062  0.2230 -0.0503 -0.1430
   27loPI   C3B  431   6.679  18.484   7.587 -0.0889 -0.0137  0.3121
   27loPI   C4B  432   6.982  18.477   7.265  0.0993  0.0088 -0.0532
   28loPI    C1  433   8.274   6.261   8.943 -0.2616  0.1139 -0.0920
   28loPI    C2  434   8.223   6.420   9.306  0.1265 -0.0309  0.0309
   28loPI    C3  435   8.065   6.063   9.220 -0.1009  0.0749  0.0028
   28loPI   PO4  436   8.267   6.470   8.816 -0.0296  0.0602  0.1796
   28loPI   GL1  437   8.121   6.479   8.432 -0.0752  0.0677  0.0716
   28loPI   GL2  438   8.187   6.193   8.414 -0.0189  0.3225 -0.1202
   28loPI   C1A  439   8.074   6.812   8.159  0.3407  0.3608 -0.0733
   28loPI   C2A  440   8.055   6.879   7.713  0.0447 -0.0948 -0.1466
   28loPI   C3A  441   8.109   7.218   7.311  0.0518 -0.0540 -0.0400
   28loPI   C4A  442   8.335   7.227   6.962  0.0533  0.0041 -0.0630
   28loPI   C5A  443   8.190   7.336   6.501 -0.0964 -0.1735 -0.1786
   28loPI   C6A  444   8.398   7.680   6.284  0.0067  0.0657 -0.0711
   28loPI   C1B  445   8.338   6.446   7.997  0.5533 -0.1583  0.1386
   28loPI   C2B  446   8.304   6.430   7.507 -0.1764  0.2842  0.0914
   28loPI   C3B  447   8.327   6.270   7.264 -0.0805 -0.0540 -0.1990
   28loPI   C4B  448   8.497   6.275   6.898 -0.2927 -0.3067  0.1210
   29loPI    C1  449   6.329   9.309   9.545 -0.0087 -0.2385 -0.2370
   29loPI    C2  450   6.440   8.962   9.709  0.4466 -0.0755 -0.1877
   29loPI    C3  451   6.360   9.277   9.942  0.0999 -0.1242 -0.2357
   29loPI   PO4  452   6.209   9.140   9.273 -0.2163 -0.0013  0.0452
   29loPI   GL1  453   5.880   9.430   9.018 -0.1079  0.0301  0.5711
   29loPI   GL2  454   5.925   9.172   8.877 -0.1029 -0.0192  0.0650
   29loPI   C1A  455   5.821   9.534   8.603 -0.1079  0.1875  0.0417
   29loPI   C2A  456   5.708   9.672   8.169  0.1217  0.0974  0.2052
   29loPI   C3A  457   5.665   9.631   7.690  0.0179  0.3314  0.2334
   29loPI   C4A  458   5.636   9.924   7.414 -0.1289  0.1041 -0.3191
   29loPI   C5A  459   5.607  10.108   7.001 -0.0250 -0.0646  0.0292
   29loPI   C6A  460   5.876  10.236   6.625  0.2320  0.1925  0.0750
   29loPI   C1B  461   5.760   9.047   8.528 -0.0882 -0.4682  0.0686
   29loPI   C2B  462   5.812   8.787   8.116  0.1353  0.2062  0.0917
   29loPI   C3B  463   5.671   8.748   7.671  0.2560 -0.1283 -0.3249
   29loPI   C4B  464   5.818   8.716   7.231 -0.1041  0.0074  0.1160
   30loPI    C1  465   0.197   0.284   9.628 -0.0720  0.2058 -0.3193
   30loPI    C2  466   0.167   0.572   9.905  0.2789 -0.0895  0.0373
   30loPI    C3  467   0.527   0.434   9.798  0.1242 -0.2684 -0.2669
   30loPI   PO4  468   0.036   0.340   9.497  0.4356 -0.2412  0.2407
   30loPI   GL1  469   0.193   0.392   9.035  0.1702 -0.0042  0.0477
   30loPI   GL2  470   0.393   0.178   9.140 -0.2664  0.1332 -0.1372
   30loPI   C1A  471   0.127   0.447   8.650 -0.1048 -0.0537 -0.2139
   30loPI   C2A  472   0.165   0.314   8.327 -0.1504  0.0101 -0.0882
   30loPI   C3A  473   0.167   0.302   7.911 -0.0768 -0.2805 -0.1142
   30loPI   C4A  474   0.103   0.372   7.599 -0.2149 -0.2145 -0.4693
   30loPI   C5A  475   0.230   0.350   7.166 -0.0060  0.0620 -0.1962
   30loPI   C6A  476   0.482   0.095   6.887  0.0864  0.0357 -0.1642
   30loPI   C1B  477   0.426   0.019   8.716 -0.3244 -0.0557 -0.1636
   30loPI   C2B  478   0.444  -0.086   8.331 -0.0047 -0.1395 -0.2766
   30loPI   C3B  479   0.215  -0.175   8.000 -0.0909 -0.1855  0.2865
   30loPI   C4B  480   0.238  -0.105   7.535 -0.3469 -0.1098  0.1052
   31loPI    C1  481   5.128   3.973   9.302 -0.1355 -0.0148 -0.1816
   31loPI    C2  482   4.808   4.206   9.362 -0.1242 -0.0757  0.1347
   31loPI    C3  483   4.948   3.978   9.659  0.1442 -0.1382 -0.0356
   31loPI   PO4  484   5.034   3.935   9.010 -0.0709  0.1188 -0.3417
   31loPI   GL1  485   5.153   3.916   8.672  0.1139  0.3107  0.3634
   31loPI   GL2  486   5.432   3.770   8.685 -0.0820  0.1921 -0.0684
   31loPI   C1A  487   4.968   3.636   8.396 -0.1180 -0.0452 -0.1915
   31loPI   C2A  488   4.925   3.688   8.000 -0.1252  0.0685 -0.0458
   31loPI   C3A  489   4.837   3.671   7.637  0.1116  0.3293 -0.0722
   31loPI   C4A  490   4.599   3.603   7.304 -0.1676 -0.2193 -0.0427
   31loPI   C5A  491   4.600   3.587   6.804 -0.2799 -0.0696 -0.0464
   31loPI   C6A  492   4.479   3.629   6.454  0.2838 -0.2108  0.0359
   31loPI   C1B  493   5.446   3.819   8.292 -0.0410  0.0585 -0.0170
   31loPI   C2B  494   5.460   3.796   7.867  0.1679 -0.0488  0.2837
   31loPI   C3B  495   5.396   3.741   7.444  0.1525 -0.0368 -0.2518
   31loPI   C4B  496   5.083   3.500   7.219  0.0089 -0.2772  0.1891
   32loPI    C1  497   0.713  15.859   9.989 -0.0553 -0.0059  0.0266
   32loPI    C2  498   1.009  15.591   9.976 -0.2409 -0.2030 -0.2359
   32loPI    C3  499   0.757  15.595  10.286 -0.0898 -0.1703 -0.1125
   32loPI   PO4  500   0.786  16.084   9.898  0.3563  0.1384 -0.0451
   32loPI   GL1  501   0.774  16.230   9.488 -0.0377 -0.1590  0.0079
   32loPI   GL2  502   1.035  16.452   9.639 -0.3692 -0.1815 -0.1772
   32loPI   C1A  503   0.699  16.321   9.137  0.0924  0.1285 -0.5028
   32loPI   C2A  504   0.621  16.401   8.842 -0.1407  0.1528  0.4982
   32loPI   C3A  505   0.583  16.266   8.433  0.0637  0.0261 -0.0217
   32loPI   C4A  506   0.584  16.217   7.984  0.1054 -0.0200 -0.4507
   32loPI   C5A  507   0.491  16.354   7.633  0.2295  0.2381 -0.1297
   32loPI   C6A  508   0.673  16.792   7.347  0.0364  0.2304 -0.1030
   32loPI   C1B  509   0.912  16.759   9.333 -0.0785 -0.2413  0.0249
   32loPI   C2B  510   1.008  16.976   8.953  0.0649 -0.1565  0.3686
   32loPI   C3B  511   0.978  17.240   8.583  0.1124  0.0897 -0.1025
   32loPI   C4B  512   0.924  17.197   8.244 -0.0170  0.1249  0.1835
   33loPI    C1  513  16.044  10.258   9.930  0.2156  0.0039  0.1056
   33loPI    C2  514  16.068  10.482  10.261  0.1491 -0.0259  0.1307
   33loPI    C3  515  16.309  10.167  10.215  0.1237 -0.0516  0.1738
   33loPI   PO4  516  16.045  10.418   9.729 -0.3389 -0.1686 -0.3067
   33loPI   GL1  517  15.949  10.637   9.340 -0.2156  0.0862 -0.1277
   33loPI   GL2  518  15.936  11.002   9.425 -0.1861 -0.2541  0.0656
   33loPI   C1A  519  15.825  10.584   8.873  0.3136  0.0300 -0.3389
   33loPI   C2A  520  15.626  10.659   8.551  0.0744 -0.0280 -0.0355
   33loPI   C3A  521  15.319  10.853   8.441 -0.2210  0.0780  0.2534
   33loPI   C4A  522  15.058  11.092   8.185  0.2801  0.0456  0.1309
   33loPI   C5A  523  14.861  11.080   7.790  0.2689  0.3177 -0.0783
   33loPI   C6A  524  14.933  11.214   7.425  0.0402  0.0937  0.0491
   33loPI   C1B  525  15.997  11.057   8.883  0.3676  0.0301  0.1343
   33loPI   C2B  526  16.068  10.864   8.409 -0.0738 -0.0115 -0.0480
   33loPI   C3B  527  16.203  10.860   7.974  0.0584 -0.1703 -0.0348
   33loPI   C4B  528  16.612  10.874   7.887 -0.1576  0.1389  0.2081
   34loPI    C1  529  16.292   0.772  10.658 -0.0874  0.1084 -0.3022
   34loPI    C2  530  16.283   0.410  10.829  0.0263  0.1197 -0.2718
   34loPI    C3  531  16.192   0.736  11.043  0.3430  0.1520 -0.1822
   34loPI   PO4  532  16.322   0.741  10.325 -0.1883 -0.2314  0.3660
   34loPI   GL1  533  16.134   0.698   9.812 -0.3131  0.0802  0.2065
   34loPI   GL2  534  16.002   1.012   9.655 -0.2425 -0.1399  0.0244
   34loPI   C1A  535  16.085   0.510   9.428  0.3213 -0.3332  0.1325
   34loPI   C2A  536  16.229   0.638   9.056  0.4308 -0.1309  0.3480
   34loPI   C3A  537  16.584   0.656   8.751  0.2854 -0.0146 -0.2434
   34loPI   C4A  538  16.842   0.731   8.402  0.0344  0.0884 -0.2231
   34loPI   C5A  539  16.819   0.719   8.070 -0.1857 -0.0469  0.2250
   34loPI   C6A  540  17.038   0.682   7.641 -0.0182 -0.0148 -0.0113
   34loPI   C1B  541  15.940   1.052   9.313  0.2116 -0.0456  0.0267
   34loPI   C2B  542  15.855   0.983   8.861 -0.1916  0.0055 -0.1353
   34loPI   C3B  543  15.779   1.024   8.390 -0.0553  0.1935 -0.2530
   34loPI   C4B  544  15.767   1.009   7.903 -0.3004  0.0119 -0.0175
   35loPI    C1  545   7.718   3.032   9.059  0.3360  0.2859 -0.1060
   35loPI    C2  546   7.671   3.023   9.456  0.0892 -0.0006 -0.1373
   35loPI    C3  547   7.652   3.371   9.260 -0.0565  0.1113  0.0715
   35loPI   PO4  548   7.877   2.905   8.975  0.0947 -0.0621  0.0445
   35loPI   GL1  549   7.918   2.792   8.528 -0.2961 -0.0079 -0.1408
   35loPI   GL2  550   7.673   2.484   8.390 -0.0459  0.0683  0.0580
   35loPI   C1A  551   8.180   2.993   8.151  0.0129  0.4750 -0.0458
   35loPI   C2A  552   8.304   3.157   7.703 -0.0557  0.1195 -0.3716
   35loPI   C3A  553   8.556   2.993   7.465  0.1789 -0.1763 -0.0308
   35loPI   C4A  554   8.719   3.084   7.047 -0.1393  0.3047 -0.2228
   35loPI   C5A  555   8.797   2.970   6.626  0.2111  0.0511  0.1293
   35loPI   C6A  556   8.950   2.637   6.308 -0.6604 -0.0509  0.1359
   35loPI   C1B  557   7.403   2.296   8.108 -0.0849  0.1378  0.0675
   35loPI   C2B  558   7.406   2.258   7.661  0.1548  0.1244  0.0944
   35loPI   C3B  559   7.373   2.493   7.284 -0.1078  0.1673 -0.2948
   35loPI   C4B  560   7.359   2.814   6.971 -0.2004  0.2050  0.0773
   36loPI    C1  561  17.038   6.765   9.414 -0.1905 -0.0178  0.1456
   36loPI    C2  562  17.424   6.798   9.516 -0.1424 -0.0121 -0.0356
   36loPI    C3  563  17.177   6.577   9.739  0.0013 -0.1475 -0.0091
   36loPI   PO4  564  17.004   6.693   9.212 -0.0527  0.2416 -0.1664
   36loPI   GL1  565  17.426   6.673   8.967 -0.0391 -0.1445 -0.2337
   36loPI   GL2  566  17.271   6.421   8.897 -0.1796  0.2268  0.1070
   36loPI   C1A  567  17.165   6.952   8.709 -0.4159 -0.2086  0.1767
   36loPI   C2A  568  17.187   6.974   8.194  0.0555  0.1550  0.2271
   36loPI   C3A  569  17.251   7.020   7.726 -0.2736 -0.0186 -0.0245
   36loPI   C4A  570  17.051   7.141   7.332  0.1225 -0.1801 -0.2927
   36loPI   C5A  571  16.581   7.119   7.144 -0.4378  0.0906 -0.0978
   36loPI   C6A  572  16.251   7.183   6.913 -0.0597 -0.0794  0.1708
   36loPI   C1B  573  17.102   6.420   8.515 -0.0416 -0.1600 -0.1942
   36loPI   C2B  574  17.087   6.472   8.193 -0.0974 -0.1084 -0.1614
   36loPI   C3B  575  16.973   6.451   7.690  0.0945  0.0645 -0.2160
   36loPI   C4B  576  16.802   6.243   7.382  0.0583 -0.1597 -0.2248
   37loPI    C1  577  17.967  13.512   9.994  0.1933 -0.1205  0.1795
   37loPI    C2  578  17.671  13.772  10.064  0.1182 -0.1434 -0.0447
   37loPI    C3  579  17.606  13.379  10.103  0.2296 -0.1324  0.2870
   37loPI   PO4  580  18.078  13.597   9.754 -0.1071 -0.0695 -0.1896
   37loPI   GL1  581  17.912  13.840   9.447  0.1822  0.1024 -0.2763
   37loPI   GL2  582  17.909  14.182   9.364 -0.0754 -0.2405  0.0107
   37loPI   C1A  583  17.914  13.735   9.067 -0.1123 -0.0221 -0.1927
   37loPI   C2A  584  18.060  13.583   8.660 -0.0958  0.0948 -0.0442
   37loPI   C3A  585  17.892  13.770   8.308 -0.2839 -0.0732 -0.1060
   37loPI   C4A  586  17.584  13.725   7.984  0.1696 -0.2474 -0.2072
   37loPI   C5A  587  17.386  13.471   7.678  0.2066  0.0813 -0.2373
   37loPI   C6A  588  17.236  13.371   7.290  0.0511 -0.2432  0.1364
   37loPI   C1B  589  17.686  14.133   8.919  0.1028 -0.1895  0.2726
   37loPI   C2B  590  17.678  14.222   8.453  0.0419  0.0003  0.2332
   37loPI   C3B  591  17.589  14.307   8.004  0.1279 -0.0254 -0.0439
   37loPI   C4B  592  17.270  14.394   7.665  0.1601 -0.0964 -0.0316
   38loPI    C1  593   8.784  18.808   9.801  0.2113 -0.0120 -0.1240
   38loPI    C2  594   9.007  19.121   9.909 -0.2024  0.3032 -0.1600
   38loPI    C3  595   8.728  18.979  10.158  0.2789 -0.3298  0.0427
   38loPI   PO4  596   8.953  18.704   9.578 -0.3320 -0.2248  0.2665
   38loPI   GL1  597   9.227  18.872   9.136  0.0675  0.2407 -0.2176
   38loPI   GL2  598   9.171  19.179   9.278  0.1082  0.4022  0.0730
   38loPI   C1A  599   9.042  18.755   8.673 -0.1999  0.1128  0.1408
   38loPI   C2A  600   9.001  18.925   8.297 -0.1254 -0.0355  0.0940
   38loPI   C3A  601   9.106  18.958   7.766 -0.1801 -0.2071  0.4804
   38loPI   C4A  602   9.254  18.816   7.421 -0.2906 -0.0932 -0.2106
   38loPI   C5A  603   9.020  18.468   7.166  0.2771  0.3662 -0.1623
   38loPI   C6A  604   8.682  18.079   7.111  0.0845 -0.1471 -0.1094
   38loPI   C1B  605   8.815  19.175   8.899  0.2403 -0.0317  0.0432
   38loPI   C2B  606   8.552  19.147   8.455  0.2631  0.0049 -0.0728
   38loPI   C3B  607   8.526  19.134   8.117  0.1628  0.0720  0.2551
   38loPI   C4B  608   8.612  19.041   7.778 -0.1613  0.2006 -0.1641
   39loPI    C1  609  18.616   2.772   9.407 -0.1254 -0.0564 -0.2065
   39loPI    C2  610  18.606   2.437   9.626  0.2782  0.0482 -0.0204
   39loPI    C3  611  18.446   2.775   9.769 -0.0113 -0.0302 -0.1528
   39loPI   PO4  612  18.935   2.727   9.305  0.0030  0.3867  0.0488
   39loPI   GL1  613  19.031   2.840   8.980  0.1527 -0.0500  0.4398
   39loPI   GL2  614  18.622   3.059   8.986 -0.1732 -0.0866  0.3342
   39loPI   C1A  615  19.022   3.255   8.711  0.1226  0.1677 -0.4211
   39loPI   C2A  616  18.721   3.481   8.475  0.1917  0.1453  0.3852
   39loPI   C3A  617  18.507   3.353   8.166 -0.0057  0.1008  0.1194
   39loPI   C4A  618  18.281   3.278   7.834 -0.2425 -0.2512  0.1708
   39loPI   C5A  619  18.268   3.079   7.427 -0.1439 -0.2637  0.3895
   39loPI   C6A  620  18.443   2.696   7.263 -0.0468  0.0982  0.2676
   39loPI   C1B  621  18.372   3.140   8.632 -0.0802 -0.0169 -0.2484
   39loPI   C2B  622  18.094   2.857   8.288 -0.4277 -0.1068 -0.0876
   39loPI   C3B  623  18.092   2.851   7.859 -0.0261  0.0308 -0.3783
   39loPI   C4B  624  17.985   2.667   7.514 -0.1424  0.2619  0.0249
   40loPI    C1  625  19.464  11.901  10.032  0.3118  0.0551 -0.1333
   40loPI    C2  626  19.359  11.523  10.113 -0.3017  0.2272 -0.0789
   40loPI    C3  627  19.573  11.733  10.378 -0.0258 -0.0528 -0.0752
   40loPI   PO4  628  19.590  11.915   9.782 -0.2708 -0.0457  0.0993
   40loPI   GL1  629  19.383  11.962   9.372 -0.4202 -0.0720  0.0418
   40loPI   GL2  630  19.586  11.761   9.302  0.2390 -0.0110  0.0178
   40loPI   C1A  631  19.248  12.135   9.039 -0.3584 -0.1555 -0.1631
   40loPI   C2A  632  19.172  12.236   8.590  0.1740 -0.1037 -0.2727
   40loPI   C3A  633  19.088  12.206   8.135 -0.0958  0.2587 -0.1019
   40loPI   C4A  634  18.716  12.178   7.961 -0.2000 -0.1534  0.1847
   40loPI   C5A  635  18.500  12.309   7.570  0.2119  0.0476 -0.0625
   40loPI   C6A  636  18.329  12.466   7.223 -0.3152 -0.4081  0.0713
   40loPI   C1B  637  19.578  11.823   8.817 -0.0366 -0.2155 -0.2337
   40loPI   C2B  638  19.588  11.854   8.442  0.0356  0.1782 -0.2579
   40loPI   C3B  639  19.538  11.855   8.101  0.3263  0.0021 -0.0239
   40loPI   C4B  640  19.355  11.900   7.759 -0.0363  0.0525  0.2515
   41loPI    C1  641  10.857   2.473   9.759  0.1878 -0.0100  0.0305
   41loPI    C2  642  10.850   2.103   9.912  0.0184  0.0116  0.0775
   41loPI    C3  643  10.966   2.412  10.139  0.1191 -0.0060  0.0509
   41loPI   PO4  644  10.780   2.426   9.500 -0.2568 -0.0229 -0.2149
   41loPI   GL1  645  10.879   2.285   9.200  0.0529 -0.2635  0.0306
   41loPI   GL2  646  11.174   2.144   8.963 -0.1384  0.0823  0.0806
   41loPI   C1A  647  10.759   1.922   8.858  0.5311  0.0211  0.0551
   41loPI   C2A  648  10.466   1.871   8.450  0.0959 -0.1407 -0.2937
   41loPI   C3A  649  10.513   1.891   7.925  0.0957  0.0651  0.0885
   41loPI   C4A  650  10.490   1.652   7.507  0.0305  0.1650  0.0635
   41loPI   C5A  651  10.315   1.421   7.198 -0.4097 -0.1703  0.0395
   41loPI   C6A  652  10.048   1.054   7.247 -0.0889  0.0302 -0.1017
   41loPI   C1B  653  11.609   2.356   8.967 -0.0310  0.1649  0.1806
   41loPI   C2B  654  11.738   2.609   8.604 -0.3763 -0.3715  0.1730
   41loPI   C3B  655  12.039   2.686   8.213 -0.1616 -0.0120  0.0941
   41loPI   C4B  656  12.445   2.829   8.232 -0.0260 -0.1122 -0.1450
   42loPI    C1  657   0.722   1.286   9.296  0.1232  0.1217  0.0819
   42loPI    C2  658   1.063   1.303   9.504  0.0946  0.2521  0.1193
   42loPI    C3  659   0.716   1.394   9.681  0.0226 -0.0122  0.1185
   42loPI   PO4  660   0.727   1.042   9.117 -0.1943  0.3424 -0.1253
   42loPI   GL1  661   0.892   0.951   8.729  0.3538 -0.1748  0.0962
   42loPI   GL2  662   0.540   0.756   8.758  0.1762  0.1494 -0.2377
   42loPI   C1A  663   0.686   0.872   8.305  0.1409 -0.2748 -0.0933
   42loPI   C2A  664   0.805   0.951   7.895  0.1745 -0.0371  0.1289
   42loPI   C3A  665   0.825   1.120   7.499 -0.0504 -0.0086 -0.2105
   42loPI   C4A  666   0.647   1.202   7.039  0.0702 -0.1214  0.2393
   42loPI   C5A  667   0.551   1.104   6.568 -0.5139 -0.2384 -0.1597
   42loPI   C6A  668   0.664   1.071   6.076 -0.3620 -0.1170 -0.4015
   42loPI   C1B  669   0.612   0.442   8.478  0.3174 -0.1439  0.1999
   42loPI   C2B  670   0.641   0.432   8.053 -0.1440 -0.0383  0.1221
   42loPI   C3B  671   0.638   0.178   7.779 -0.4209  0.1995 -0.1534
   42loPI   C4B  672   0.860  -0.106   7.528 -0.2197  0.3396  0.4439
   43loPI    C1  673   6.383  18.990   9.373 -0.2990  0.1764 -0.0351
   43loPI    C2  674   6.383  18.836   9.743 -0.2201  0.0008 -0.1073
   43loPI    C3  675   6.530  19.202   9.679 -0.3031  0.0621  0.0471
   43loPI   PO4  676   6.238  18.734   9.237  0.1420  0.0092  0.3295
   43loPI   GL1  677   6.141  18.432   8.922 -0.1564  0.1020  0.2822
   43loPI   GL2  678   6.039  18.793   8.792  0.0334 -0.0208  0.0427
   43loPI   C1A  679   5.975  18.379   8.407 -0.0123  0.1434  0.2055
   43loPI   C2A  680   5.938  18.329   7.922  0.3560 -0.0971  0.0693
   43loPI   C3A  681   6.237  18.213   7.540 -0.1174 -0.0883  0.0771
   43loPI   C4A  682   6.353  18.193   7.203 -0.1797  0.1094 -0.0614
   43loPI   C5A  683   6.662  18.311   6.819  0.0368  0.2427  0.0401
   43loPI   C6A  684   6.759  18.547   6.447 -0.2914 -0.0951  0.0190
   43loPI   C1B  685   6.166  18.814   8.523  0.0924  0.1018 -0.0351
   43loPI   C2B  686   6.083  18.861   8.123 -0.1230  0.1567  0.0149
   43loPI   C3B  687   6.186  18.859   7.611 -0.2026 -0.2492 -0.2175
   43loPI   C4B  688   6.390  18.645   7.289  0.2998  0.0959 -0.3140
   44loPI    C1  689   9.756  15.359   9.688  0.2165  0.1036  0.2397
   44loPI    C2  690   9.577  15.627   9.925 -0.0177  0.0401  0.1374
   44loPI    C3  691   9.415  15.265   9.875  0.2035 -0.0602  0.1352
   44loPI   PO4  692   9.822  15.463   9.484 -0.0092 -0.1199  0.2009
   44loPI   GL1  693   9.967  15.553   9.121 -0.0629  0.0897 -0.0845
   44loPI   GL2  694   9.570  15.570   8.941  0.1292 -0.0916  0.0424
   44loPI   C1A  695  10.049  15.384   8.732 -0.1011  0.1152  0.3313
   44loPI   C2A  696  10.053  15.446   8.241 -0.1388 -0.0482  0.0597
   44loPI   C3A  697  10.300  15.564   7.811  0.1315 -0.0512 -0.0059
   44loPI   C4A  698  10.658  15.426   7.522  0.0995 -0.1081 -0.3923
   44loPI   C5A  699  11.087  15.218   7.663 -0.3367  0.2427  0.3563
   44loPI   C6A  700  11.183  14.830   7.619  0.2192 -0.2714  0.1223
   44loPI   C1B  701   9.610  15.431   8.448  0.5060  0.4841 -0.1660
   44loPI   C2B  702   9.552  15.502   8.055  0.0371 -0.1651  0.0720
   44loPI   C3B  703   9.444  15.786   7.800 -0.1050 -0.4944  0.0727
   44loPI   C4B  704   9.606  15.998   7.556  0.1135 -0.2841  0.1735
   45loPI    C1  705  12.848   6.379   9.391  0.0622  0.1301  0.0287
   45loPI    C2  706  12.965   6.033   9.554 -0.1880 -0.0224 -0.1089
   45loPI    C3  707  13.206   6.352   9.568 -0.0320 -0.1486  0.1835
   45loPI   PO4  708  12.746   6.314   9.148 -0.2603  0.0897 -0.0563
   45loPI   GL1  709  12.824   6.386   8.729 -0.3044  0.1008  0.1949
   45loPI   GL2  710  13.078   6.667   8.895 -0.1765 -0.3089  0.2055
   45loPI   C1A  711  12.942   6.174   8.332  0.0566 -0.2709 -0.0819
   45loPI   C2A  712  13.105   6.165   7.860 -0.1875  0.2180 -0.2262
   45loPI   C3A  713  13.151   6.118   7.479 -0.0497  0.3005 -0.2146
   45loPI   C4A  714  13.591   6.031   7.239  0.3178 -0.1079  0.2211
   45loPI   C5A  715  14.011   5.950   7.224  0.1121  0.3537  0.1049
   45loPI   C6A  716  14.239   6.242   7.057 -0.3160  0.0896  0.0824
   45loPI   C1B  717  13.036   6.654   8.386 -0.1227 -0.0693 -0.1295
   45loPI   C2B  718  13.407   6.556   8.049  0.4183 -0.0469 -0.1654
   45loPI   C3B  719  13.593   6.858   7.832  0.1172 -0.0170  0.0607
   45loPI   C4B  720  13.825   7.187   7.658  0.0240  0.0608  0.3719
   46loPI    C1  721  11.904  15.851  10.176  0.1505 -0.2529  0.0660
   46loPI    C2  722  12.227  15.927  10.399  0.1195 -0.0179  0.0331
   46loPI    C3  723  11.866  15.908  10.570  0.1166 -0.0064  0.0282
   46loPI   PO4  724  11.884  16.042   9.937  0.0071 -0.1056 -0.0333
   46loPI   GL1  725  11.736  15.791   9.624  0.2205 -0.1652  0.1500
   46loPI   GL2  726  11.406  15.766   9.494 -0.0163 -0.3043 -0.0625
   46loPI   C1A  727  11.758  15.603   9.201  0.2804 -0.1227  0.1617
   46loPI   C2A  728  11.869  15.224   8.988  0.0916  0.1291 -0.2993
   46loPI   C3A  729  11.872  15.120   8.555 -0.2154 -0.1175 -0.0135
   46loPI   C4A  730  11.782  15.099   8.053 -0.0036 -0.1561  0.0765
   46loPI   C5A  731  11.814  15.051   7.583 -0.1010 -0.1036  0.1986
   46loPI   C6A  732  11.889  14.845   7.201 -0.0346 -0.0993 -0.1192
   46loPI   C1B  733  11.110  15.699   9.209 -0.0673  0.1159  0.2383
   46loPI   C2B  734  11.080  15.694   8.798  0.1436  0.0117  0.1103
   46loPI   C3B  735  11.171  15.773   8.319  0.1364 -0.1392 -0.1850
   46loPI   C4B  736  11.422  15.937   7.895 -0.1441  0.1953 -0.1066
   47loPI    C1  737  11.746   6.386   9.679  0.1353 -0.2110  0.1607
   47loPI    C2  738  11.673   6.694   9.923 -0.1825 -0.2493  0.1188
   47loPI    C3  739  12.013   6.486   9.959 -0.0334  0.0108  0.2452
   47loPI   PO4  740  11.703   6.487   9.372 -0.3230  0.0873  0.1114
   47loPI   GL1  741  11.716   6.188   9.107  0.0701  0.4712  0.1298
   47loPI   GL2  742  11.659   6.005   8.961  0.0389  0.0952 -0.0584
   47loPI   C1A  743  11.645   6.360   8.680  0.2685  0.0562  0.3014
   47loPI   C2A  744  11.882   6.477   8.414  0.2096  0.1826  0.2431
   47loPI   C3A  745  12.095   6.582   7.999  0.1525 -0.0196 -0.2208
   47loPI   C4A  746  12.282   6.711   7.547 -0.0994  0.2546 -0.3340
   47loPI   C5A  747  11.994   6.622   7.205 -0.2015  0.0046  0.0238
   47loPI   C6A  748  12.081   6.653   6.810 -0.3145  0.0790  0.4740
   47loPI   C1B  749  11.851   5.829   8.569  0.2762  0.0038 -0.2626
   47loPI   C2B  750  12.035   6.003   8.249  0.2407  0.0466 -0.1181
   47loPI   C3B  751  11.903   6.087   7.881 -0.0955  0.1172  0.1822
   47loPI   C4B  752  12.078   6.252   7.587 -0.0727  0.0623 -0.1701
   48loPI    C1  753   8.159   0.914   9.588  0.0504  0.0556 -0.0977
   48loPI    C2  754   8.444   0.644   9.513 -0.0583 -0.0344 -0.1897
   48loPI    C3  755   8.444   0.843   9.860 -0.0652 -0.2631 -0.0561
   48loPI   PO4  756   8.072   0.994   9.348  0.1014 -0.1347 -0.1586
   48loPI   GL1  757   8.309   1.184   8.893  0.0400 -0.5155 -0.0217
   48loPI   GL2  758   8.650   1.091   8.803 -0.0553 -0.0629  0.2856
   48loPI   C1A  759   8.198   1.221   8.446 -0.0669 -0.0286 -0.3436
   48loPI   C2A  760   8.354   1.202   8.094 -0.1212  0.1453 -0.0333
   48loPI   C3A  761   8.420   1.284   7.685 -0.0694 -0.3528 -0.1127
   48loPI   C4A  762   8.526   1.437   7.345  0.1333  0.0813 -0.0788
   48loPI   C5A  763   8.800   1.208   7.113 -0.0577 -0.0343  0.1166
   48loPI   C6A  764   9.273   1.265   7.198 -0.0269  0.0780 -0.0805
   48loPI   C1B  765   8.533   0.889   8.435 -0.1345 -0.0373 -0.1832
   48loPI   C2B  766   8.746   0.891   8.089 -0.0533 -0.2160 -0.1153
   48loPI   C3B  767   8.791   0.864   7.713  0.2226 -0.1123  0.3139
   48loPI   C4B  768   8.688   0.491   7.483 -0.2630 -0.2997 -0.2740
   49loPI    C1  769   3.104  17.283   9.880 -0.2496 -0.2102  0.1875
   49loPI    C2  770   3.305  17.097  10.172 -0.1544  0.1148  0.3342
   49loPI    C3  771   3.487  17.376   9.950 -0.2624 -0.0426  0.0423
   49loPI   PO4  772   3.030  17.047   9.675 -0.2379 -0.0225 -0.0140
   49loPI   GL1  773   2.722  17.114   9.440 -0.2477 -0.1911 -0.0372
   49loPI   GL2  774   2.631  16.927   9.231 -0.0558  0.3069  0.1303
   49loPI   C1A  775   2.333  17.351   9.101 -0.3959  0.2344  0.2488
   49loPI   C2A  776   2.360  17.453   8.700  0.1867 -0.0434  0.2976
   49loPI   C3A  777   2.339  17.487   8.276 -0.0189  0.0121 -0.1062
   49loPI   C4A  778   2.346  17.353   7.841 -0.2946 -0.0876  0.0915
   49loPI   C5A  779   1.926  17.407   7.666  0.0867  0.0445 -0.0230
   49loPI   C6A  780   1.761  17.689   7.378 -0.3918 -0.1370  0.0812
   49loPI   C1B  781   2.461  16.915   8.838  0.1326  0.0260 -0.0095
   49loPI   C2B  782   2.439  16.636   8.471 -0.2172  0.2854 -0.0117
   49loPI   C3B  783   2.506  16.427   8.054  0.3965  0.2589 -0.1088
   49loPI   C4B  784   2.792  16.413   7.779  0.2256  0.0780 -0.0255
   50loPI    C1  785   1.525   3.413   9.738 -0.3138 -0.0439  0.0289
   50loPI    C2  786   1.289   3.730   9.675 -0.1894  0.0907  0.2295
   50loPI    C3  787   1.490   3.695  10.020 -0.0175 -0.0875  0.1132
   50loPI   PO4  788   1.562   3.408   9.410  0.1023  0.2938  0.0310
   50loPI   GL1  789   1.494   3.288   8.926  0.3232  0.0133  0.0802
   50loPI   GL2  790   1.124   3.461   9.085  0.0414 -0.0015  0.0879
   50loPI   C1A  791   1.473   2.966   8.565  0.1743 -0.1476  0.0036
   50loPI   C2A  792   1.448   2.774   8.230  0.2322  0.1341  0.2180
   50loPI   C3A  793   1.544   2.757   7.785 -0.0343  0.2496  0.0036
   50loPI   C4A  794   1.360   2.830   7.307 -0.2909  0.4449  0.0757
   50loPI   C5A  795   1.492   3.132   7.001  0.0859  0.0524  0.3100
   50loPI   C6A  796   1.474   3.282   6.543 -0.0648  0.0771 -0.0443
   50loPI   C1B  797   0.930   3.434   8.758 -0.0604 -0.0756  0.1297
   50loPI   C2B  798   0.970   3.400   8.235 -0.1098 -0.0060 -0.0088
   50loPI   C3B  799   0.756   3.421   7.722 -0.2642 -0.3185  0.0367
   50loPI   C4B  800   0.771   3.704   7.374 -0.0920  0.1333  0.3676
   51loPI    C1  801  19.304  15.846  10.169 -0.1226 -0.3713 -0.0949
   51loPI    C2  802  19.046  16.089  10.355  0.2215  0.1027 -0.2169
   51loPI    C3  803  18.985  15.693  10.355 -0.1445  0.1495  0.3172
   51loPI   PO4  804  19.286  15.869   9.920 -0.2158 -0.0587 -0.4105
   51loPI   GL1  805  19.180  15.717   9.587  0.5452 -0.2443 -0.0795
   51loPI   GL2  806  18.952  15.507   9.548  0.0578  0.0769  0.0539
   51loPI   C1A  807  19.288  15.642   9.127  0.3367  0.1177  0.0242
   51loPI   C2A  808  19.454  15.493   8.828  0.1721 -0.0820  0.1258
   51loPI   C3A  809  19.466  15.395   8.445  0.2579  0.0145 -0.1767
   51loPI   C4A  810  19.547  15.426   8.125  0.2535  0.2202  0.0950
   51loPI   C5A  811  19.358  15.374   7.765 -0.4560  0.0158 -0.2038
   51loPI   C6A  812  19.436  15.083   7.386 -0.0134  0.1167 -0.1655
   51loPI   C1B  813  18.804  15.615   9.164  0.1193 -0.4498  0.3313
   51loPI   C2B  814  18.808  15.782   8.759 -0.0597  0.1661 -0.0764
   51loPI   C3B  815  18.851  15.923   8.380 -0.2518 -0.0811  0.0279
   51loPI   C4B  816  18.968  16.379   8.291  0.1005  0.2134  0.1224
   52loPI    C1  817   0.091   2.583   9.754 -0.0370 -0.2205  0.1148
   52loPI    C2  818  -0.142   2.380  10.007 -0.1269 -0.3139 -0.0410
   52loPI    C3  819   0.252   2.315  10.003 -0.0620  0.0102  0.3833
   52loPI   PO4  820  -0.071   2.681   9.551 -0.2835  0.1768  0.2448
   52loPI   GL1  821  -0.145   2.490   9.127 -0.1243 -0.0538  0.0586
   52loPI   GL2  822  -0.288   2.118   9.075 -0.1889  0.0593  0.0861
   52loPI   C1A  823  -0.297   2.424   8.696  0.1787  0.0374 -0.0720
   52loPI   C2A  824  -0.410   2.739   8.395  0.1852  0.1603 -0.3108
   52loPI   C3A  825  -0.299   2.924   8.044  0.2129 -0.1363  0.1851
   52loPI   C4A  826  -0.400   3.169   7.688 -0.1287 -0.0341 -0.1862
   52loPI   C5A  827  -0.678   3.566   7.416 -0.3882  0.1284  0.0607
   52loPI   C6A  828  -1.208   3.558   7.149  0.0825 -0.2081 -0.0171
   52loPI   C1B  829  -0.356   1.937   8.683 -0.4402  0.0216  0.2502
   52loPI   C2B  830  -0.396   1.851   8.283  0.0868 -0.0388 -0.0521
   52loPI   C3B  831  -0.261   1.811   7.896  0.0869  0.0593  0.0015
   52loPI   C4B  832  -0.288   2.101   7.521  0.1092  0.2287 -0.1656
   53loPI    C1  833   6.790   6.832   9.107  0.1321  0.0892 -0.1653
   53loPI    C2  834   6.705   6.512   9.333  0.4211  0.1919  0.0950
   53loPI    C3  835   6.514   6.858   9.396  0.3293  0.1554  0.0195
   53loPI   PO4  836   6.722   6.713   8.825 -0.1778 -0.0703  0.1337
   53loPI   GL1  837   6.676   6.774   8.412 -0.0717 -0.0740 -0.1672
   53loPI   GL2  838   6.809   6.467   8.288 -0.1222 -0.3437  0.0602
   53loPI   C1A  839   6.492   6.741   8.008 -0.0637  0.1702  0.0599
   53loPI   C2A  840   6.491   6.824   7.590  0.0330 -0.1832  0.0467
   53loPI   C3A  841   6.738   6.936   7.238 -0.2786 -0.1360 -0.0550
   53loPI   C4A  842   6.819   7.052   6.724  0.0751 -0.0494  0.0021
   53loPI   C5A  843   7.151   7.114   6.401  0.2911  0.2155 -0.1759
   53loPI   C6A  844   7.441   7.239   5.934  0.1528 -0.1007  0.0533
   53loPI   C1B  845   6.826   6.368   7.832  0.0964 -0.1055 -0.1598
   53loPI   C2B  846   6.663   6.321   7.432  0.0964  0.3174  0.0301
   53loPI   C3B  847   6.431   6.564   7.131 -0.1667 -0.0619 -0.4652
   53loPI   C4B  848   6.269   6.909   7.020 -0.0495 -0.3105  0.2097
   54loPI    C1  849   2.902   4.875   9.090  0.0304  0.0495 -0.0772
   54loPI    C2  850   3.060   4.934   9.453 -0.1417  0.4515 -0.0616
   54loPI    C3  851   2.669   4.858   9.414 -0.0932  0.2408 -0.1539
   54loPI   PO4  852   3.132   4.871   8.981 -0.1015  0.4061  0.4390
   54loPI   GL1  853   3.278   4.807   8.591  0.3065  0.0727  0.2043
   54loPI   GL2  854   3.555   4.767   8.819  0.1609 -0.1357  0.0390
   54loPI   C1A  855   3.276   4.821   8.091 -0.0609 -0.1604 -0.1435
   54loPI   C2A  856   3.309   4.733   7.719  0.2676  0.2316  0.3351
   54loPI   C3A  857   3.333   4.834   7.250 -0.0769  0.2967 -0.1277
   54loPI   C4A  858   3.123   5.026   6.729  0.3244  0.3318  0.3287
   54loPI   C5A  859   2.735   5.015   6.535  0.0227  0.2594 -0.3038
   54loPI   C6A  860   2.686   4.780   6.224  0.0077  0.2180  0.1124
   54loPI   C1B  861   3.929   4.780   8.592  0.3989 -0.0866  0.1562
   54loPI   C2B  862   4.006   4.836   8.140  0.3692  0.4759 -0.0874
   54loPI   C3B  863   3.853   4.684   7.709  0.0463  0.2290  0.0082
   54loPI   C4B  864   3.845   4.802   7.278 -0.5161 -0.1106 -0.3458
   55loPI    C1  865   5.044   7.185   8.904 -0.0707  0.0461 -0.0112
   55loPI    C2  866   4.792   6.931   9.083 -0.0605  0.2231  0.2598
   55loPI    C3  867   4.664   7.292   8.968 -0.0685  0.1090 -0.1018
   55loPI   PO4  868   5.231   6.881   8.709  0.1318 -0.3515 -0.1052
   55loPI   GL1  869   5.011   6.668   8.278 -0.2330 -0.0429 -0.1731
   55loPI   GL2  870   4.777   6.576   8.352 -0.4109 -0.2584  0.1027
   55loPI   C1A  871   4.927   6.569   7.780  0.0944 -0.0103  0.0266
   55loPI   C2A  872   4.810   6.814   7.410  0.2338  0.3238 -0.0002
   55loPI   C3A  873   4.885   7.027   7.048 -0.0162 -0.0505 -0.0850
   55loPI   C4A  874   4.460   7.025   6.804  0.3099  0.1013 -0.2490
   55loPI   C5A  875   4.007   7.249   6.587 -0.2440  0.1176 -0.0624
   55loPI   C6A  876   3.645   7.200   6.383 -0.0487  0.0688 -0.0677
   55loPI   C1B  877   4.500   6.654   8.025  0.2924  0.3275 -0.3828
   55loPI   C2B  878   4.345   6.733   7.651  0.1174  0.1498  0.1237
   55loPI   C3B  879   4.324   6.692   7.179  0.0075  0.0780  0.1649
   55loPI   C4B  880   4.359   6.541   6.720  0.0991  0.1262 -0.0478
   56loPI    C1  881  18.612  16.832  10.218 -0.0481  0.4408 -0.0494
   56loPI    C2  882  18.277  16.648  10.099  0.1163  0.2430 -0.2158
   56loPI    C3  883  18.265  16.913  10.400 -0.0889 -0.2121  0.1896
   56loPI   PO4  884  18.698  16.812   9.893  0.2414 -0.1629 -0.0705
   56loPI   GL1  885  18.434  16.723   9.643 -0.0020  0.0667 -0.3246
   56loPI   GL2  886  18.536  16.423   9.388  0.1691  0.0507  0.1504
   56loPI   C1A  887  18.208  16.744   9.203 -0.2012 -0.0996 -0.2933
   56loPI   C2A  888  18.156  16.623   8.671  0.1995 -0.0274 -0.3094
   56loPI   C3A  889  18.125  16.617   8.151  0.0622 -0.0711 -0.2635
   56loPI   C4A  890  18.077  16.618   7.748 -0.1729  0.3602  0.0984
   56loPI   C5A  891  17.852  16.793   7.360 -0.0524  0.0007 -0.0508
   56loPI   C6A  892  17.660  17.163   7.098  0.0488  0.0996 -0.0686
   56loPI   C1B  893  18.564  16.386   9.011 -0.1898  0.0797  0.1014
   56loPI   C2B  894  18.551  16.223   8.671  0.1131 -0.3364 -0.1184
   56loPI   C3B  895  18.497  16.242   8.280 -0.2460 -0.0599  0.0803
   56loPI   C4B  896  18.615  16.111   7.972 -0.2866  0.5155  0.0383
   57loPI    C1  897  16.877  11.674  10.013  0.1922  0.1931 -0.0645
   57loPI    C2  898  16.679  12.016  10.071 -0.0119  0.0843 -0.1106
   57loPI    C3  899  16.521  11.730   9.841  0.2980  0.0801 -0.3252
   57loPI   PO4  900  17.102  11.742   9.989  0.0550 -0.1999  0.1214
   57loPI   GL1  901  17.267  12.021   9.639 -0.2536 -0.1079  0.1067
   57loPI   GL2  902  16.910  12.028   9.623 -0.3208 -0.2211 -0.2068
   57loPI   C1A  903  17.194  12.166   9.148 -0.0484  0.0634 -0.2843
   57loPI   C2A  904  17.266  12.012   8.788  0.1894  0.1971 -0.1062
   57loPI   C3A  905  17.243  12.099   8.374 -0.0706  0.0191  0.0534
   57loPI   C4A  906  17.332  12.217   8.002 -0.0151 -0.0628  0.2867
   57loPI   C5A  907  17.602  12.048   7.722 -0.0603  0.0356 -0.0196
   57loPI   C6A  908  17.748  11.668   7.539  0.0664  0.5423 -0.1096
   57loPI   C1B  909  16.851  11.720   9.370 -0.5200  0.0099  0.3223
   57loPI   C2B  910  16.829  11.558   8.996  0.1975 -0.0852  0.3184
   57loPI   C3B  911  16.754  11.096   8.780  0.0916  0.0642 -0.3136
   57loPI   C4B  912  16.647  10.963   8.437 -0.1952 -0.1635 -0.2232
   58loPI    C1  913  13.536  18.547  10.302 -0.0750  0.0635  0.3043
   58loPI    C2  914  13.449  18.193  10.466 -0.0043 -0.0222  0.1586
   58loPI    C3  915  13.815  18.349  10.509 -0.0284  0.0227  0.2029
   58loPI   PO4  916  13.494  18.575   9.998 -0.2382  0.2810  0.1531
   58loPI   GL1  917  13.741  18.658   9.647 -0.3793 -0.0931 -0.0050
   58loPI   GL2  918  13.454  18.812   9.537  0.0735  0.0964 -0.1224
   58loPI   C1A  919  13.661  18.463   9.241  0.0910  0.0189 -0.0514
   58loPI   C2A  920  13.477  18.262   8.888 -0.1601  0.2155 -0.1187
   58loPI   C3A  921  13.393  18.438   8.484 -0.3946  0.1130 -0.1978
   58loPI   C4A  922  13.246  18.489   8.126  0.2821  0.3155  0.2232
   58loPI   C5A  923  13.396  18.429   7.693  0.0702 -0.2976  0.0357
   58loPI   C6A  924  13.340  18.411   7.218 -0.2367  0.1558  0.0447
   58loPI   C1B  925  13.668  18.995   9.239 -0.1008  0.0325  0.0858
   58loPI   C2B  926  14.008  19.098   8.829 -0.4299 -0.2087 -0.2570
   58loPI   C3B  927  13.828  19.331   8.351  0.2131 -0.3629  0.2152
   58loPI   C4B  928  13.707  19.297   7.922  0.4069  0.1862  0.1061
   59loPI    C1  929  18.095   6.511   9.473  0.2126 -0.0412  0.2224
   59loPI    C2  930  17.945   6.869   9.568 -0.1187 -0.0968 -0.0726
   59loPI    C3  931  18.234   6.840   9.293  0.1164 -0.0320  0.1641
   59loPI   PO4  932  17.920   6.362   9.390  0.2526 -0.0777  0.0609
   59loPI   GL1  933  17.766   6.357   8.998  0.1252  0.0978  0.1067
   59loPI   GL2  934  17.962   6.684   8.893  0.1704  0.1544 -0.2597
   59loPI   C1A  935  17.629   6.481   8.523  0.3925  0.2613  0.3417
   59loPI   C2A  936  17.644   6.575   8.159  0.2372  0.1087 -0.5352
   59loPI   C3A  937  17.489   6.533   7.714  0.1918  0.2234  0.0751
   59loPI   C4A  938  17.302   6.380   7.328  0.0619  0.4555  0.1392
   59loPI   C5A  939  17.313   5.990   7.111  0.1882 -0.0181  0.1591
   59loPI   C6A  940  17.561   5.651   6.967  0.1341 -0.3368  0.2155
   59loPI   C1B  941  18.055   6.701   8.414  0.1739 -0.0331  0.2514
   59loPI   C2B  942  18.044   6.797   7.956  0.2627  0.4597 -0.2004
   59loPI   C3B  943  17.861   6.993   7.651 -0.2786 -0.2624  0.0975
   59loPI   C4B  944  18.051   7.281   7.387 -0.0523 -0.0157  0.1096
   60loPI    C1  945  18.004   9.005   9.709  0.0642 -0.1617  0.0755
   60loPI    C2  946  17.791   9.264   9.928  0.0144 -0.0130 -0.1454
   60loPI    C3  947  17.604   8.988   9.707  0.0597 -0.0692 -0.1138
   60loPI   PO4  948  18.155   9.206   9.556 -0.0093  0.0517 -0.2998
   60loPI   GL1  949  18.068   9.334   9.140 -0.0632  0.0490  0.2764
   60loPI   GL2  950  18.378   9.314   8.958 -0.0634  0.0377 -0.3712
   60loPI   C1A  951  17.872   9.421   8.768  0.1769  0.1358 -0.0008
   60loPI   C2A  952  17.678   9.386   8.415  0.1535 -0.0533  0.0455
   60loPI   C3A  953  17.732   9.659   8.066  0.0818 -0.1060  0.1243
   60loPI   C4A  954  17.484   9.793   7.711 -0.3189  0.2075 -0.3761
   60loPI   C5A  955  17.321   9.544   7.512  0.1258  0.0567  0.0688
   60loPI   C6A  956  17.387   9.083   7.553 -0.4073 -0.1936 -0.0079
   60loPI   C1B  957  18.323   9.402   8.554  0.2213 -0.0659 -0.2454
   60loPI   C2B  958  18.186   9.440   8.004  0.1204 -0.0568 -0.1265
   60loPI   C3B  959  18.093   9.309   7.542 -0.2070 -0.0843 -0.1487
   60loPI   C4B  960  18.178   9.188   7.136  0.1578 -0.0399  0.0383
   61loPI    C1  961  15.505  14.607  10.216  0.0019  0.2179 -0.3982
   61loPI    C2  962  15.875  14.743  10.282  0.0041 -0.0032  0.0899
   61loPI    C3  963  15.564  14.912  10.469 -0.1048 -0.0329 -0.0629
   61loPI   PO4  964  15.607  14.504   9.906  0.2014 -0.1186  0.1510
   61loPI   GL1  965  15.646  14.582   9.411 -0.0859 -0.1669 -0.1741
   61loPI   GL2  966  15.238  14.637   9.440  0.1365  0.0371  0.2360
   61loPI   C1A  967  15.782  14.490   8.987 -0.0694 -0.2255  0.1534
   61loPI   C2A  968  15.911  14.252   8.650 -0.3464 -0.0054 -0.1285
   61loPI   C3A  969  16.030  14.211   8.218 -0.0564 -0.0940 -0.0893
   61loPI   C4A  970  15.854  14.013   7.819 -0.0732  0.0482  0.1208
   61loPI   C5A  971  15.621  14.005   7.478  0.0331  0.0552 -0.0197
   61loPI   C6A  972  15.293  13.871   7.210 -0.0850  0.2437  0.0421
   61loPI   C1B  973  15.328  14.756   9.057 -0.1675 -0.5194 -0.0364
   61loPI   C2B  974  15.354  14.778   8.551  0.4631  0.0309  0.4604
   61loPI   C3B  975  15.255  14.744   8.151  0.2231 -0.2455 -0.0596
   61loPI   C4B  976  15.132  14.752   7.748 -0.1907  0.1814  0.0091
   62loPI    C1  977  18.662  18.521   9.825  0.1031  0.3320  0.1013
   62loPI    C2  978  18.356  18.526   9.569  0.1816 -0.0553 -0.0062
   62loPI    C3  979  18.302  18.393   9.942  0.1505  0.1681  0.0702
   62loPI   PO4  980  18.818  18.684   9.661 -0.2237  0.2434 -0.0105
   62loPI   GL1  981  18.898  18.774   9.221 -0.0315  0.0431  0.4489
   62loPI   GL2  982  18.671  18.741   9.097 -0.0982  0.0596 -0.1361
   62loPI   C1A  983  19.123  18.544   8.934  0.0867  0.3943  0.1416
   62loPI   C2A  984  19.272  18.190   8.727 -0.1327 -0.0318  0.2807
   62loPI   C3A  985  19.137  18.081   8.319 -0.0695  0.2131  0.1814
   62loPI   C4A  986  18.876  18.071   7.868 -0.1071  0.0985  0.0520
   62loPI   C5A  987  18.723  18.274   7.517 -0.0883 -0.0007  0.1309
   62loPI   C6A  988  18.848  18.374   7.112 -0.5007 -0.1197  0.0707
   62loPI   C1B  989  18.612  18.751   8.664  0.1607 -0.3240 -0.1762
   62loPI   C2B  990  18.556  18.780   8.164 -0.3592 -0.0671 -0.4622
   62loPI   C3B  991  18.419  18.650   7.730  0.2839  0.2396  0.4048
   62loPI   C4B  992  18.245  18.372   7.315 -0.4197  0.0264  0.0131
   63loPI    C1  993   6.792  10.739   9.593 -0.1281  0.2379  0.1370
   63loPI    C2  994   6.884  11.038   9.843 -0.0330  0.1099  0.2568
   63loPI    C3  995   6.779  10.681   9.988  0.2387 -0.0314  0.1153
   63loPI   PO4  996   6.575  10.919   9.424  0.0006 -0.1129 -0.0621
   63loPI   GL1  997   6.492  10.936   9.003  0.0640 -0.0839 -0.1686
   63loPI   GL2  998   6.234  10.883   9.020  0.0027  0.1058 -0.3315
   63loPI   C1A  999   6.566  10.900   8.588 -0.2714 -0.0656 -0.0523
   63loPI   C2A 1000   6.468  11.017   8.126  0.2638 -0.1992 -0.0807
   63loPI   C3A 1001   6.623  11.085   7.749 -0.2193  0.0447 -0.0868
   63loPI   C4A 1002   6.925  11.462   7.409  0.1577 -0.0230  0.0362
   63loPI   C5A 1003   7.243  11.693   7.256 -0.0730 -0.2553 -0.0402
   63loPI   C6A 1004   7.269  11.905   6.801 -0.1074 -0.0938 -0.2802
   63loPI   C1B 1005   5.952  10.874   8.582  0.0726  0.2128 -0.0406
   63loPI   C2B 1006   6.135  10.623   8.255  0.0673  0.0302 -0.2100
   63loPI   C3B 1007   6.176  10.744   7.849 -0.0263 -0.1978 -0.2816
   63loPI   C4B 1008   6.246  10.784   7.447  0.1250  0.1457  0.0632
   64loPI    C1 1009  14.443   9.798   9.755  0.2852 -0.0089 -0.4521
   64loPI    C2 1010  14.695  10.084   9.633  0.3508  0.1863  0.1114
   64loPI    C3 1011  14.821   9.803   9.888  0.1252 -0.0013  0.0191
   64loPI   PO4 1012  14.405   9.682   9.596  0.0756  0.0211  0.1567
   64loPI   GL1 1013  14.268   9.812   9.183  0.0689 -0.1911 -0.3494
   64loPI   GL2 1014  14.570   9.892   9.101 -0.2507 -0.1555  0.0417
   64loPI   C1A 1015  14.371   9.537   8.826  0.4008 -0.0024 -0.0678
   64loPI   C2A 1016  14.534   9.328   8.440 -0.1387 -0.0662  0.2389
   64loPI   C3A 1017  14.541   9.235   7.936  0.3198  0.1212 -0.0174
   64loPI   C4A 1018  14.661   9.419   7.496  0.0602  0.0321 -0.2306
   64loPI   C5A 1019  14.663   9.359   7.057 -0.2363 -0.1567 -0.2203
   64loPI   C6A 1020  14.426   9.009   6.998  0.0516 -0.0822  0.0480
   64loPI   C1B 1021  14.833   9.857   8.750  0.0382  0.0220 -0.1552
   64loPI   C2B 1022  14.993   9.946   8.351 -0.0768  0.0145  0.1741
   64loPI   C3B 1023  14.810  10.261   7.948  0.0675 -0.1142  0.1189
   64loPI   C4B 1024  14.844  10.314   7.563  0.1029  0.0756  0.1406
   65loPI    C1 1025  11.066   3.830   9.597 -0.0315  0.2336  0.2207
   65loPI    C2 1026  11.251   3.842   9.951  0.2206  0.2667  0.0895
   65loPI    C3 1027  10.994   3.547   9.871  0.4514  0.0422  0.1593
   65loPI   PO4 1028  11.220   3.782   9.383  0.1231  0.2122 -0.1224
   65loPI   GL1 1029  11.136   3.735   8.930  0.1965 -0.1597 -0.2213
   65loPI   GL2 1030  11.014   3.684   8.613 -0.0636  0.1044  0.0630
   65loPI   C1A 1031  11.453   3.447   8.735  0.0572  0.2006  0.1850
   65loPI   C2A 1032  11.604   3.461   8.284  0.2773 -0.2019 -0.1332
   65loPI   C3A 1033  11.614   3.270   7.793  0.0076 -0.2821  0.0291
   65loPI   C4A 1034  11.393   2.894   7.581 -0.1135 -0.0625  0.1692
   65loPI   C5A 1035  11.343   2.627   7.264  0.3286  0.0853  0.0040
   65loPI   C6A 1036  11.242   2.459   6.884 -0.0682 -0.4182  0.3514
   65loPI   C1B 1037  11.295   3.837   8.194 -0.0812 -0.1814  0.0591
   65loPI   C2B 1038  11.275   3.666   7.662 -0.0676 -0.1495 -0.1655
   65loPI   C3B 1039  11.425   3.424   7.302 -0.2458 -0.0362  0.3378
   65loPI   C4B 1040  11.496   3.410   6.818 -0.1424  0.1676 -0.4370
   66loPI    C1 1041  16.986  13.431   9.717 -0.2091  0.2136  0.0576
   66loPI    C2 1042  17.203  13.664   9.958  0.1648 -0.0468 -0.0179
   66loPI    C3 1043  16.887  13.465  10.103  0.0565  0.2236  0.1261
   66loPI   PO4 1044  17.115  13.483   9.492 -0.1732  0.1284 -0.4151
   66loPI   GL1 1045  17.098  13.405   9.015 -0.0798 -0.2218 -0.2499
   66loPI   GL2 1046  17.476  13.301   9.061  0.1998 -0.0316 -0.1530
   66loPI   C1A 1047  17.034  13.517   8.541  0.0006 -0.3866 -0.2531
   66loPI   C2A 1048  16.927  13.524   8.064  0.1246  0.1044 -0.0393
   66loPI   C3A 1049  16.883  13.473   7.661  0.1320 -0.0246  0.1710
   66loPI   C4A 1050  16.601  13.175   7.264  0.1138 -0.1127 -0.2372
   66loPI   C5A 1051  16.466  12.871   7.017  0.0004  0.3603 -0.1658
   66loPI   C6A 1052  16.551  12.624   6.765 -0.3892  0.2263 -0.2608
   66loPI   C1B 1053  17.276  13.048   8.769  0.3485 -0.1276  0.0596
   66loPI   C2B 1054  17.179  13.028   8.421  0.3933  0.0964 -0.0123
   66loPI   C3B 1055  17.131  13.073   8.008  0.0494  0.0110  0.1737
   66loPI   C4B 1056  17.067  12.977   7.578  0.0996  0.2037 -0.1420
   67loPI    C1 1057  16.625   7.642   9.881  0.0420 -0.0126  0.1166
   67loPI    C2 1058  16.447   7.903  10.125 -0.1656  0.0999 -0.1506
   67loPI    C3 1059  16.755   7.686  10.256 -0.0543  0.4048  0.1062
   67loPI   PO4 1060  16.730   7.914   9.664 -0.0695  0.2437 -0.0580
   67loPI   GL1 1061  17.069   7.969   9.349  0.0671  0.1028 -0.1697
   67loPI   GL2 1062  16.997   8.165   9.388  0.0587  0.0959 -0.1561
   67loPI   C1A 1063  17.161   7.618   9.203 -0.0388  0.0408 -0.3046
   67loPI   C2A 1064  17.338   7.554   8.834 -0.0438 -0.1000  0.0009
   67loPI   C3A 1065  17.457   7.491   8.404  0.1377  0.0782 -0.0879
   67loPI   C4A 1066  17.446   7.398   7.980  0.3000  0.0959 -0.0485
   67loPI   C5A 1067  17.498   7.328   7.442  0.0660  0.1962 -0.2573
   67loPI   C6A 1068  17.493   7.355   7.040  0.0412  0.0790 -0.0212
   67loPI   C1B 1069  17.097   8.011   8.885 -0.0987  0.1751  0.4152
   67loPI   C2B 1070  17.188   7.998   8.498 -0.4768  0.2077  0.0246
   67loPI   C3B 1071  17.240   7.858   8.106 -0.1700  0.0538  0.0693
   67loPI   C4B 1072  17.012   7.824   7.682  0.1749  0.2109 -0.0176
   68loPI    C1 1073  15.381   9.144   9.636 -0.0578 -0.0308 -0.1583
   68loPI    C2 1074  15.323   9.463   9.872  0.2164  0.0059 -0.1374
   68loPI    C3 1075  15.278   9.094  10.020  0.0516  0.0320 -0.1203
   68loPI   PO4 1076  15.284   9.215   9.398 -0.1508  0.3608  0.3449
   68loPI   GL1 1077  15.210   9.230   9.005 -0.0826 -0.1873  0.3139
   68loPI   GL2 1078  15.371   9.557   8.975 -0.0737  0.0883 -0.4291
   68loPI   C1A 1079  14.958   9.276   8.715  0.5225  0.3571 -0.2016
   68loPI   C2A 1080  14.960   9.374   8.243  0.1436  0.0888 -0.1572
   68loPI   C3A 1081  15.129   9.418   7.861  0.3219 -0.1110 -0.4198
   68loPI   C4A 1082  15.323   9.372   7.471  0.2901  0.2554  0.0251
   68loPI   C5A 1083  15.429   8.953   7.268 -0.0814  0.0653  0.0379
   68loPI   C6A 1084  15.220   8.612   7.463 -0.1027  0.0817  0.1800
   68loPI   C1B 1085  15.370   9.603   8.492  0.0529  0.0666 -0.1542
   68loPI   C2B 1086  15.547   9.543   8.112 -0.0211  0.1329  0.3719
   68loPI   C3B 1087  15.599   9.672   7.771 -0.1603  0.0988 -0.1388
   68loPI   C4B 1088  15.714   9.979   7.515 -0.0592 -0.2302  0.1873
   69loPI    C1 1089  12.135  15.115  10.118 -0.2944 -0.0540  0.0217
   69loPI    C2 1090  12.207  15.404  10.384 -0.0607 -0.1457  0.0609
   69loPI    C3 1091  11.837  15.352  10.240 -0.0904  0.2209 -0.0056
   69loPI   PO4 1092  12.233  15.086   9.936 -0.2646 -0.0772  0.1086
   69loPI   GL1 1093  12.553  15.170   9.484  0.1356 -0.4423  0.0680
   69loPI   GL2 1094  12.795  15.396   9.347 -0.0294 -0.1206 -0.2739
   69loPI   C1A 1095  12.388  15.155   9.168 -0.1176  0.2100  0.1761
   69loPI   C2A 1096  12.344  15.059   8.778  0.0685  0.1226  0.2332
   69loPI   C3A 1097  12.286  14.878   8.315  0.0669  0.0599 -0.0705
   69loPI   C4A 1098  12.144  14.719   7.890 -0.0519 -0.1930 -0.1782
   69loPI   C5A 1099  12.236  14.585   7.457 -0.0802  0.2290 -0.1850
   69loPI   C6A 1100  12.415  14.615   7.169  0.0183 -0.2735  0.2859
   69loPI   C1B 1101  12.698  15.498   8.946  0.1684 -0.0145 -0.0683
   69loPI   C2B 1102  12.572  15.397   8.509  0.0871 -0.1507  0.1596
   69loPI   C3B 1103  12.566  15.238   8.081 -0.2075  0.2817  0.2335
   69loPI   C4B 1104  12.615  15.566   7.739 -0.1967  0.0592  0.1080
   70loPI    C1 1105   9.202   8.190   9.040  0.0669  0.1052 -0.0228
   70loPI    C2 1106   9.312   8.472   9.301  0.3390 -0.1505  0.1441
   70loPI    C3 1107   9.202   8.110   9.432 -0.2363 -0.0568 -0.0522
   70loPI   PO4 1108   9.316   8.172   8.834  0.2318  0.1210 -0.1076
   70loPI   GL1 1109   9.475   8.388   8.455 -0.1416 -0.2106  0.3347
   70loPI   GL2 1110   9.184   8.508   8.518  0.1388 -0.1252  0.0627
   70loPI   C1A 1111   9.434   8.526   8.113 -0.1349  0.0650  0.0418
   70loPI   C2A 1112   9.423   8.977   7.850 -0.2168  0.0947  0.1418
   70loPI   C3A 1113   9.430   9.319   7.516  0.0037  0.1310 -0.2225
   70loPI   C4A 1114   9.595   9.543   7.131 -0.3379 -0.2352 -0.1246
   70loPI   C5A 1115   9.931   9.484   6.878  0.0711  0.0618 -0.3395
   70loPI   C6A 1116  10.183   9.307   6.724  0.0203 -0.0808 -0.0923
   70loPI   C1B 1117   8.941   8.346   8.086  0.1370  0.1048 -0.3883
   70loPI   C2B 1118   8.735   8.226   7.765 -0.0479  0.3144  0.0040
   70loPI   C3B 1119   8.709   8.226   7.427 -0.1264  0.0039 -0.2166
   70loPI   C4B 1120   8.593   8.375   6.989  0.4812  0.1435  0.1025
   71loPI    C1 1121   2.868   2.032   9.029  0.0208 -0.0308  0.0740
   71loPI    C2 1122   2.792   1.785   9.334  0.2057 -0.1403  0.0332
   71loPI    C3 1123   2.861   2.172   9.403  0.0666 -0.1286  0.1119
   71loPI   PO4 1124   2.570   1.939   8.913  0.0682  0.3076  0.4289
   71loPI   GL1 1125   2.317   2.097   8.618  0.3290  0.1325  0.2690
   71loPI   GL2 1126   2.068   2.190   8.473 -0.1849  0.4314 -0.3667
   71loPI   C1A 1127   2.321   1.764   8.332  0.1458 -0.2437  0.0537
   71loPI   C2A 1128   2.240   1.688   7.843 -0.1454 -0.2261  0.2028
   71loPI   C3A 1129   2.166   1.443   7.575 -0.0394  0.0229  0.0124
   71loPI   C4A 1130   2.277   1.285   7.133 -0.3365  0.0293 -0.4125
   71loPI   C5A 1131   2.284   0.843   6.919  0.2218 -0.1226  0.1509
   71loPI   C6A 1132   2.025   0.588   6.669  0.0751  0.0659 -0.0331
   71loPI   C1B 1133   2.039   2.094   8.154  0.3185 -0.1631  0.0207
   71loPI   C2B 1134   1.955   2.104   7.695  0.1641  0.2936  0.2541
   71loPI   C3B 1135   2.039   2.314   7.337 -0.2284 -0.2142  0.0312
   71loPI   C4B 1136   1.724   2.499   6.893  0.0779 -0.1073  0.1541
   72loPI    C1 1137   8.664   8.206   8.989  0.2147  0.0785 -0.0611
   72loPI    C2 1138   8.801   7.898   9.204  0.2059  0.0452 -0.1031
   72loPI    C3 1139   8.669   8.227   9.389 -0.2551 -0.1703 -0.0361
   72loPI   PO4 1140   8.796   8.131   8.713 -0.1035 -0.2588  0.2722
   72loPI   GL1 1141   9.085   7.955   8.437 -0.2710  0.1921 -0.0401
   72loPI   GL2 1142   9.293   7.832   8.405  0.0915 -0.0657 -0.1583
   72loPI   C1A 1143   8.869   7.748   8.131  0.3450  0.1324  0.2760
   72loPI   C2A 1144   8.593   7.751   7.757 -0.0797  0.3323 -0.2978
   72loPI   C3A 1145   8.355   7.765   7.275  0.0244  0.2762 -0.0574
   72loPI   C4A 1146   8.287   7.848   6.792 -0.1440  0.1037 -0.2770
   72loPI   C5A 1147   7.963   7.994   6.485 -0.1801  0.3595 -0.2390
   72loPI   C6A 1148   7.641   8.193   6.359  0.0454 -0.2079 -0.1020
   72loPI   C1B 1149   9.249   8.058   7.978  0.3326 -0.0237  0.1653
   72loPI   C2B 1150   9.324   8.365   7.642 -0.1955 -0.1133 -0.0613
   72loPI   C3B 1151   9.573   8.673   7.453  0.2733 -0.2198  0.1353
   72loPI   C4B 1152   9.935   8.997   7.273 -0.1962  0.1234 -0.3944
   73loPI    C1 1153   9.547   1.571   9.610  0.3387 -0.0512  0.2012
   73loPI    C2 1154   9.282   1.702   9.880 -0.0771  0.0343 -0.2350
   73loPI    C3 1155   9.465   1.349   9.932 -0.3815 -0.0920  0.0054
   73loPI   PO4 1156   9.556   1.651   9.373 -0.2088  0.1118  0.1844
   73loPI   GL1 1157   9.487   1.496   9.029  0.0416 -0.3527  0.0485
   73loPI   GL2 1158   9.680   1.798   8.940  0.2684 -0.1500 -0.3233
   73loPI   C1A 1159   9.684   1.267   8.734  0.1099  0.2486 -0.2047
   73loPI   C2A 1160   9.764   1.172   8.304  0.1729  0.3030 -0.0691
   73loPI   C3A 1161  10.075   1.077   8.162 -0.0335  0.2097 -0.2501
   73loPI   C4A 1162  10.422   0.848   8.365 -0.0495 -0.0376  0.0358
   73loPI   C5A 1163  10.692   0.891   8.580  0.0113 -0.0369 -0.1108
   73loPI   C6A 1164  11.022   0.815   8.808 -0.0583 -0.2774  0.3039
   73loPI   C1B 1165   9.647   1.759   8.512 -0.1871  0.0731  0.1019
   73loPI   C2B 1166   9.626   1.650   8.059 -0.0616  0.0932 -0.2827
   73loPI   C3B 1167   9.546   1.793   7.608 -0.0334  0.1896 -0.0214
   73loPI   C4B 1168   9.421   1.776   7.290  0.2105  0.0335 -0.0481
   74loPI    C1 1169  16.290  17.302  10.055 -0.2098  0.0759 -0.1709
   74loPI    C2 1170  16.200  16.918   9.992  0.0314 -0.0246  0.0776
   74loPI    C3 1171  16.137  17.081  10.351  0.0742  0.1259  0.0174
   74loPI   PO4 1172  16.517  17.358   9.888 -0.0284 -0.2977  0.2048
   74loPI   GL1 1173  16.647  17.487   9.538  0.1037  0.1619  0.2928
   74loPI   GL2 1174  16.365  17.794   9.610 -0.1207 -0.0250 -0.0468
   74loPI   C1A 1175  16.755  17.236   9.217  0.1217  0.1524  0.3680
   74loPI   C2A 1176  16.777  17.175   8.770  0.1568 -0.1148  0.3007
   74loPI   C3A 1177  16.750  17.276   8.392  0.0409  0.2098  0.3906
   74loPI   C4A 1178  16.607  17.661   8.078 -0.0390 -0.1194  0.3361
   74loPI   C5A 1179  16.406  17.946   7.801  0.2878  0.0399  0.2289
   74loPI   C6A 1180  15.914  18.009   7.953  0.3451  0.2117 -0.2593
   74loPI   C1B 1181  16.163  17.758   9.171 -0.0241 -0.1989 -0.1315
   74loPI   C2B 1182  15.825  17.832   8.771  0.0704 -0.0489 -0.0902
   74loPI   C3B 1183  15.598  17.959   8.387 -0.0332  0.1313  0.3951
   74loPI   C4B 1184  15.455  18.199   8.060  0.0822 -0.1734 -0.0314
   75loPI    C1 1185   2.417  14.791   9.932 -0.0621 -0.0087  0.4333
   75loPI    C2 1186   2.224  15.059   9.707 -0.1060 -0.0233  0.4534
   75loPI    C3 1187   2.374  15.167  10.062  0.1344  0.0498  0.3318
   75loPI   PO4 1188   2.481  14.625   9.724 -0.0685 -0.0055 -0.1028
   75loPI   GL1 1189   2.404  14.290   9.374  0.3861  0.2568 -0.0253
   75loPI   GL2 1190   2.768  14.502   9.326  0.1976  0.0333  0.3645
   75loPI   C1A 1191   2.456  14.507   8.866  0.0092 -0.3516  0.2955
   75loPI   C2A 1192   2.395  14.624   8.354 -0.0043  0.0608 -0.1397
   75loPI   C3A 1193   2.629  14.775   8.084  0.2025  0.1080 -0.0199
   75loPI   C4A 1194   2.604  15.109   7.845 -0.2636  0.0144  0.2509
   75loPI   C5A 1195   2.326  15.531   7.733  0.2234  0.1608  0.1171
   75loPI   C6A 1196   2.109  15.608   7.328 -0.0161  0.0447  0.0185
   75loPI   C1B 1197   2.949  14.587   8.933 -0.3489  0.0782 -0.0134
   75loPI   C2B 1198   2.827  14.908   8.657  0.1536  0.0103  0.5286
   75loPI   C3B 1199   2.614  15.297   8.527  0.0553 -0.1133  0.0642
   75loPI   C4B 1200   2.510  15.508   8.134 -0.1589 -0.1477  0.0977
   76loPI    C1 1201  17.624   1.596   9.477  0.1052 -0.0571 -0.0714
   76loPI    C2 1202  17.834   1.936   9.483 -0.1837  0.1227  0.1484
   76loPI    C3 1203  17.816   1.717   9.148  0.2208  0.1834  0.0821
   76loPI   PO4 1204  17.396   1.639   9.475  0.2383 -0.2254  0.0902
   76loPI   GL1 1205  17.060   1.752   9.173 -0.2294 -0.0809 -0.1120
   76loPI   GL2 1206  17.293   1.988   9.182 -0.0025 -0.0693  0.2332
   76loPI   C1A 1207  17.001   1.857   8.779 -0.0246  0.0586  0.0449
   76loPI   C2A 1208  17.057   1.932   8.372 -0.2924 -0.0003  0.0545
   76loPI   C3A 1209  16.840   1.987   8.012 -0.0233  0.0369  0.2652
   76loPI   C4A 1210  16.964   1.837   7.662  0.2287  0.4864  0.4832
   76loPI   C5A 1211  17.247   1.955   7.418  0.2499 -0.2278  0.0834
   76loPI   C6A 1212  17.260   2.338   7.179 -0.0334  0.0062  0.0852
   76loPI   C1B 1213  17.508   1.888   8.804 -0.1990 -0.0277 -0.0406
   76loPI   C2B 1214  17.671   1.917   8.341 -0.0058  0.1423 -0.0625
   76loPI   C3B 1215  17.798   1.681   8.038 -0.1165  0.0158  0.1393
   76loPI   C4B 1216  18.087   1.487   8.145 -0.4133 -0.2249 -0.0777
   77loPI    C1 1217  18.826  10.770  10.076  0.1586 -0.2026 -0.0006
   77loPI    C2 1218  18.977  10.590  10.400 -0.0920 -0.1599  0.1426
   77loPI    C3 1219  19.034  10.982  10.344 -0.2703 -0.1141  0.2727
   77loPI   PO4 1220  18.690  10.619   9.777 -0.4543  0.1952 -0.2629
   77loPI   GL1 1221  18.400  10.382   9.532  0.2538 -0.2121 -0.1221
   77loPI   GL2 1222  18.423  10.223   9.268  0.2205  0.0623 -0.0989
   77loPI   C1A 1223  18.208  10.751   9.274 -0.1153  0.0161  0.1784
   77loPI   C2A 1224  17.811  10.828   9.031  0.0745  0.4315 -0.2036
   77loPI   C3A 1225  17.725  11.010   8.597 -0.1789 -0.2477 -0.2427
   77loPI   C4A 1226  17.545  11.225   8.313 -0.3518 -0.2175  0.2447
   77loPI   C5A 1227  17.627  11.101   7.833  0.3047 -0.0186 -0.0056
   77loPI   C6A 1228  17.805  11.166   7.343  0.0364  0.2772  0.0397
   77loPI   C1B 1229  18.384  10.458   8.821  0.1341 -0.2163  0.3701
   77loPI   C2B 1230  18.738  10.691   8.717  0.0576 -0.0801 -0.0890
   77loPI   C3B 1231  18.604  10.720   8.305  0.0063  0.1007  0.0332
   77loPI   C4B 1232  18.510  10.684   8.000 -0.2000  0.0773 -0.1434
   78loPI    C1 1233   6.192  19.456   9.420 -0.0207  0.1135 -0.0826
   78loPI    C2 1234   5.805  19.517   9.501  0.0381  0.2592  0.0968
   78loPI    C3 1235   6.070  19.491   9.800  0.1298 -0.1106 -0.0114
   78loPI   PO4 1236   6.228  19.545   9.199 -0.2853  0.0427 -0.3293
   78loPI   GL1 1237   6.075  19.581   8.752  0.1491  0.2231  0.2449
   78loPI   GL2 1238   6.223  19.916   8.522 -0.2683  0.4670 -0.1278
   78loPI   C1A 1239   6.120  19.347   8.436  0.5392 -0.2536 -0.1068
   78loPI   C2A 1240   6.124  19.346   7.902 -0.1597 -0.0015 -0.0220
   78loPI   C3A 1241   5.975  19.567   7.529 -0.1476 -0.1210  0.0595
   78loPI   C4A 1242   5.900  19.801   7.175 -0.2629  0.0894  0.0137
   78loPI   C5A 1243   5.986  20.027   6.790  0.0827  0.1393  0.2953
   78loPI   C6A 1244   6.005  20.057   6.398 -0.0968  0.0818  0.0912
   78loPI   C1B 1245   6.327  19.940   8.036  0.4976  0.0463 -0.0584
   78loPI   C2B 1246   6.307  20.127   7.606 -0.1883  0.0519  0.0496
   78loPI   C3B 1247   6.304  20.204   7.190  0.2814 -0.5168  0.3386
   78loPI   C4B 1248   6.328  20.427   6.702  0.2048  0.0004 -0.0690
   79loPI    C1 1249  10.038   3.918   9.050 -0.1906 -0.0226  0.1462
   79loPI    C2 1250  10.050   4.145   9.379 -0.0759 -0.1935  0.2620
   79loPI    C3 1251  10.301   3.836   9.340  0.0282 -0.0726 -0.0628
   79loPI   PO4 1252  10.048   4.097   8.870 -0.1196 -0.0399  0.0537
   79loPI   GL1 1253   9.905   4.447   8.535 -0.0926 -0.0160 -0.0756
   79loPI   GL2 1254   9.959   4.656   8.438  0.1065  0.2631 -0.3715
   79loPI   C1A 1255   9.617   4.476   8.066 -0.2091 -0.1784  0.0618
   79loPI   C2A 1256   9.755   4.510   7.692 -0.0545  0.3888  0.2194
   79loPI   C3A 1257  10.050   4.550   7.371  0.3775  0.2172 -0.0768
   79loPI   C4A 1258   9.994   4.584   6.936 -0.2006 -0.1256  0.2106
   79loPI   C5A 1259  10.203   4.453   6.590 -0.0866  0.1984 -0.2616
   79loPI   C6A 1260  10.236   4.405   6.107  0.2278  0.0237 -0.1039
   79loPI   C1B 1261  10.103   4.618   7.996 -0.2590 -0.0241 -0.2355
   79loPI   C2B 1262  10.253   4.891   7.672  0.3591  0.0207 -0.0508
   79loPI   C3B 1263  10.468   4.809   7.254  0.0843  0.0735 -0.0610
   79loPI   C4B 1264  10.533   4.488   7.088  0.1329 -0.2109 -0.4298
   80loPI    C1 1265  16.247   6.809   9.362 -0.0216 -0.0576 -0.2148
   80loPI    C2 1266  16.529   6.529   9.402 -0.1981 -0.2138 -0.0380
   80loPI    C3 1267  16.188   6.499   9.608 -0.2584  0.0829 -0.0906
   80loPI   PO4 1268  16.204   6.851   9.113  0.0962 -0.2369 -0.1574
   80loPI   GL1 1269  16.283   6.891   8.787 -0.2283  0.0674  0.0718
   80loPI   GL2 1270  16.540   6.746   8.745 -0.2309 -0.2082 -0.1546
   80loPI   C1A 1271  16.290   7.133   8.447  0.0245 -0.1854  0.1225
   80loPI   C2A 1272  16.417   7.309   8.191  0.2718  0.0110  0.4351
   80loPI   C3A 1273  16.418   7.217   7.822  0.0327  0.2455 -0.2940
   80loPI   C4A 1274  16.509   7.491   7.496 -0.1423 -0.3533  0.2354
   80loPI   C5A 1275  16.539   7.575   7.043  0.0575  0.0246  0.3475
   80loPI   C6A 1276  16.609   7.430   6.709  0.3570 -0.1708 -0.0763
   80loPI   C1B 1277  16.727   6.911   8.426  0.2791 -0.0017  0.3580
   80loPI   C2B 1278  16.756   6.835   8.011 -0.1588  0.0910  0.0350
   80loPI   C3B 1279  16.676   6.842   7.561 -0.3030 -0.1182 -0.0000
   80loPI   C4B 1280  16.463   6.670   7.191  0.2371  0.2701  0.2172
   81loPI    C1 1281   5.587   7.167   8.968 -0.1177 -0.1820  0.0440
   81loPI    C2 1282   5.329   7.176   9.273 -0.2666 -0.2241 -0.0793
   81loPI    C3 1283   5.467   6.826   9.139  0.0712 -0.1891  0.1649
   81loPI   PO4 1284   5.503   7.343   8.682 -0.1646 -0.1218 -0.0846
   81loPI   GL1 1285   5.116   7.271   8.425  0.0424  0.1674 -0.1747
   81loPI   GL2 1286   5.226   7.274   8.165  0.0789 -0.0557  0.3469
   81loPI   C1A 1287   4.718   7.060   8.097 -0.0276 -0.2007  0.0081
   81loPI   C2A 1288   4.633   7.214   7.707 -0.1143  0.0417  0.0782
   81loPI   C3A 1289   4.390   7.266   7.368  0.0209 -0.1720 -0.0332
   81loPI   C4A 1290   4.114   7.418   7.087 -0.2258  0.0028  0.3079
   81loPI   C5A 1291   3.700   7.351   6.966 -0.3095 -0.0361 -0.0244
   81loPI   C6A 1292   3.557   7.034   6.887  0.1272 -0.1080  0.0666
   81loPI   C1B 1293   5.139   7.117   7.736  0.3647  0.3333  0.1225
   81loPI   C2B 1294   4.909   7.388   7.345  0.1061 -0.1382 -0.0445
   81loPI   C3B 1295   4.626   7.501   6.994  0.3580 -0.0651  0.3391
   81loPI   C4B 1296   4.378   7.560   6.580  0.2325  0.1060 -0.1904
   82loPI    C1 1297  11.752   4.460   9.385 -0.0890  0.1509  0.0213
   82loPI    C2 1298  11.429   4.266   9.520  0.0643 -0.1359 -0.0147
   82loPI    C3 1299  11.590   4.562   9.736  0.0143 -0.2596  0.1951
   82loPI   PO4 1300  11.552   4.519   9.132  0.2209  0.0571  0.2170
   82loPI   GL1 1301  11.472   4.475   8.690  0.1608  0.1037  0.3485
   82loPI   GL2 1302  11.445   4.121   8.620  0.0699  0.1958  0.0364
   82loPI   C1A 1303  11.876   4.409   8.485 -0.2179  0.0268  0.1357
   82loPI   C2A 1304  12.102   4.348   8.093 -0.0389 -0.0877  0.0821
   82loPI   C3A 1305  12.102   4.105   7.894  0.0911  0.1455  0.0298
   82loPI   C4A 1306  12.119   4.043   7.520  0.0883  0.0033  0.3958
   82loPI   C5A 1307  11.877   4.061   7.152  0.0827 -0.0379  0.2425
   82loPI   C6A 1308  11.426   3.873   7.047 -0.0045  0.2210  0.1849
   82loPI   C1B 1309  11.392   4.331   8.216 -0.0449  0.1624 -0.3381
   82loPI   C2B 1310  11.674   4.487   7.897 -0.1987 -0.1533 -0.0004
   82loPI   C3B 1311  11.830   4.456   7.531 -0.2171 -0.0068 -0.0743
   82loPI   C4B 1312  11.930   4.592   7.183  0.0506  0.3401 -0.2279
   83loPI    C1 1313  13.136  12.182  10.261 -0.0731 -0.0123  0.0508
   83loPI    C2 1314  12.767  12.170  10.107 -0.0605  0.0374  0.0165
   83loPI    C3 1315  12.925  11.842  10.272 -0.0656 -0.0224 -0.0965
   83loPI   PO4 1316  13.168  12.467  10.112  0.0556  0.0114  0.1289
   83loPI   GL1 1317  13.065  12.752   9.807  0.1759 -0.0642 -0.0400
   83loPI   GL2 1318  13.215  12.947   9.957 -0.3226  0.0720  0.0571
   83loPI   C1A 1319  12.914  12.664   9.323 -0.0205  0.1839  0.0355
   83loPI   C2A 1320  13.022  12.552   8.860  0.1662  0.1189 -0.0034
   83loPI   C3A 1321  13.026  12.672   8.468  0.1448 -0.0349  0.2290
   83loPI   C4A 1322  12.789  12.512   8.130  0.1140  0.2629 -0.3504
   83loPI   C5A 1323  12.382  12.362   7.991 -0.2660 -0.1013  0.2113
   83loPI   C6A 1324  12.050  12.060   7.734  0.1187  0.3171  0.1475
   83loPI   C1B 1325  12.883  13.152   9.613  0.3467  0.0051 -0.1411
   83loPI   C2B 1326  12.575  13.352   9.353  0.3944  0.1120 -0.2493
   83loPI   C3B 1327  12.662  13.617   9.151 -0.3782 -0.1697 -0.0377
   83loPI   C4B 1328  12.584  13.559   8.708  0.0539  0.0975  0.0787
   84loPI    C1 1329   9.952  13.384  10.179  0.0486  0.3383 -0.0220
   84loPI    C2 1330   9.784  13.612  10.462 -0.0020 -0.1352  0.3426
   84loPI    C3 1331   9.687  13.225  10.433  0.3316 -0.1965 -0.0482
   84loPI   PO4 1332   9.938  13.529   9.974 -0.1575  0.2682 -0.0153
   84loPI   GL1 1333   9.615  13.519   9.675 -0.2212 -0.2721  0.1578
   84loPI   GL2 1334   9.681  13.315   9.634 -0.1727  0.0989 -0.1242
   84loPI   C1A 1335   9.719  13.586   9.197  0.1586  0.0168 -0.0723
   84loPI   C2A 1336   9.782  13.534   8.741  0.1278  0.1538 -0.1731
   84loPI   C3A 1337   9.794  13.564   8.208  0.1068  0.0766 -0.0097
   84loPI   C4A 1338   9.756  13.480   7.810  0.2299 -0.0471  0.2821
   84loPI   C5A 1339  10.059  13.501   7.388  0.1154 -0.2653 -0.3709
   84loPI   C6A 1340   9.996  13.739   7.058  0.1802 -0.2622 -0.0385
   84loPI   C1B 1341   9.731  13.053   9.329 -0.2022 -0.2439 -0.0572
   84loPI   C2B 1342   9.917  13.092   8.888  0.0799 -0.3000 -0.0115
   84loPI   C3B 1343   9.843  13.149   8.391  0.2343 -0.1005  0.1235
   84loPI   C4B 1344   9.863  13.023   8.026 -0.1014 -0.0064  0.2220
   85loPI    C1 1345   0.730   6.305   9.507 -0.0417  0.1603  0.1694
   85loPI    C2 1346   1.102   6.451   9.480 -0.0043  0.0646  0.1600
   85loPI    C3 1347   0.865   6.561   9.783  0.0080  0.1782  0.1289
   85loPI   PO4 1348   0.801   6.058   9.410 -0.2091 -0.1998  0.1068
   85loPI   GL1 1349   0.924   5.964   9.060  0.0874  0.1817  0.1181
   85loPI   GL2 1350   1.132   5.864   8.875  0.2728  0.2653 -0.0911
   85loPI   C1A 1351   0.653   5.881   8.793 -0.1837 -0.3034  0.1263
   85loPI   C2A 1352   0.717   5.810   8.406 -0.2273 -0.1670 -0.1050
   85loPI   C3A 1353   0.723   5.488   8.213  0.0631  0.0777  0.1362
   85loPI   C4A 1354   0.443   5.452   7.887 -0.0563 -0.4377 -0.5282
   85loPI   C5A 1355   0.358   5.757   7.610  0.1361 -0.2234 -0.1511
   85loPI   C6A 1356   0.446   5.973   7.238 -0.0373 -0.0839  0.0176
   85loPI   C1B 1357   1.403   5.665   8.569 -0.1135  0.0524 -0.1920
   85loPI   C2B 1358   1.538   5.734   8.184 -0.0517 -0.0452  0.1902
   85loPI   C3B 1359   1.457   5.916   7.774  0.1342 -0.0874  0.0735
   85loPI   C4B 1360   1.241   6.294   7.584 -0.1203 -0.0220 -0.1417
   86loPI    C1 1361  10.381   2.132   9.265  0.0151 -0.0304  0.1182
   86loPI    C2 1362  10.357   2.142   9.664 -0.0900 -0.2164  0.1177
   86loPI    C3 1363  10.649   1.934   9.487 -0.0121 -0.0906  0.0977
   86loPI   PO4 1364  10.373   2.371   9.170  0.3059 -0.2864  0.2848
   86loPI   GL1 1365  10.588   2.535   8.858  0.1164  0.2949  0.1815
   86loPI   GL2 1366  10.819   2.727   8.727 -0.0803  0.1156  0.2517
   86loPI   C1A 1367  10.620   2.316   8.369  0.1580  0.1245 -0.0576
   86loPI   C2A 1368  10.633   2.367   7.871  0.2508 -0.2669 -0.1972
   86loPI   C3A 1369  10.619   2.248   7.472 -0.0922 -0.1563 -0.0080
   86loPI   C4A 1370  10.793   2.143   6.996  0.2258  0.1748 -0.1028
   86loPI   C5A 1371  10.670   1.823   6.638  0.1463  0.4134 -0.0080
   86loPI   C6A 1372  10.786   1.365   6.568  0.0111  0.0644 -0.3462
   86loPI   C1B 1373  11.078   2.435   8.509  0.0226 -0.1824  0.1986
   86loPI   C2B 1374  11.468   2.386   8.283  0.1327 -0.0607  0.1825
   86loPI   C3B 1375  11.515   2.454   7.895 -0.1127 -0.0137  0.1989
   86loPI   C4B 1376  11.846   2.624   7.737 -0.0683 -0.1014  0.1812
   87loPI    C1 1377   9.493   3.546   8.953 -0.0058 -0.0316  0.1002
   87loPI    C2 1378   9.605   3.842   9.198  0.0592 -0.0451  0.0868
   87loPI    C3 1379   9.511   3.483   9.347  0.0075 -0.0260  0.1004
   87loPI   PO4 1380   9.631   3.657   8.762 -0.0515  0.3876  0.1920
   87loPI   GL1 1381   9.555   3.446   8.454 -0.4124  0.0892  0.0283
   87loPI   GL2 1382   9.334   3.754   8.406  0.1959  0.0943  0.2691
   87loPI   C1A 1383   9.695   3.415   8.057 -0.0004 -0.0592 -0.2219
   87loPI   C2A 1384   9.658   3.395   7.684  0.1693  0.1500 -0.0323
   87loPI   C3A 1385   9.766   3.556   7.276 -0.2279 -0.0289  0.2475
   87loPI   C4A 1386   9.825   3.683   6.944  0.0567  0.0824 -0.0284
   87loPI   C5A 1387   9.684   3.539   6.437 -0.1746 -0.0599 -0.2330
   87loPI   C6A 1388   9.689   3.262   6.140  0.0133 -0.1853 -0.0963
   87loPI   C1B 1389   9.423   3.952   8.086  0.0958 -0.1671 -0.0844
   87loPI   C2B 1390   9.670   3.905   7.715 -0.0110 -0.2542  0.2241
   87loPI   C3B 1391   9.832   4.007   7.416 -0.1118  0.2701 -0.1741
   87loPI   C4B 1392   9.642   4.236   7.186  0.0383 -0.0542  0.3372
   88loPI    C1 1393  15.854  12.158   9.873 -0.0282 -0.2320 -0.2110
   88loPI    C2 1394  15.937  11.799   9.716 -0.1327 -0.2795 -0.1589
   88loPI    C3 1395  16.042  11.882  10.093 -0.0353 -0.2258 -0.1973
   88loPI   PO4 1396  15.962  12.324   9.741 -0.4532 -0.2067 -0.0813
   88loPI   GL1 1397  15.925  12.431   9.305  0.0297  0.0331  0.1029
   88loPI   GL2 1398  15.688  12.503   9.190 -0.0753  0.2034  0.1028
   88loPI   C1A 1399  16.247  12.454   8.981 -0.1103  0.1455  0.2098
   88loPI   C2A 1400  16.333  12.329   8.512  0.0410 -0.3975  0.2683
   88loPI   C3A 1401  16.456  12.355   8.134  0.2428  0.1186 -0.0513
   88loPI   C4A 1402  16.360  12.314   7.634 -0.1489  0.1088 -0.0189
   88loPI   C5A 1403  16.485  12.097   7.208 -0.2309  0.1583  0.0695
   88loPI   C6A 1404  16.173  11.851   6.920  0.1606 -0.1363  0.1665
   88loPI   C1B 1405  15.670  12.652   8.748  0.2298  0.2018  0.1860
   88loPI   C2B 1406  15.708  12.875   8.395  0.1630 -0.1527 -0.1336
   88loPI   C3B 1407  15.511  13.150   8.099 -0.0844  0.0694 -0.1444
   88loPI   C4B 1408  15.253  13.067   7.746  0.3002  0.2252  0.0902
   89loPI    C1 1409   7.208   8.453   8.966  0.1640 -0.0409 -0.0224
   89loPI    C2 1410   7.408   8.753   8.793  0.1406  0.0146  0.0460
   89loPI    C3 1411   7.119   8.833   9.058  0.1471 -0.0690  0.0785
   89loPI   PO4 1412   7.136   8.302   8.735  0.1337  0.2723  0.1768
   89loPI   GL1 1413   7.342   8.261   8.329 -0.5158 -0.1711 -0.3758
   89loPI   GL2 1414   7.581   8.477   8.408 -0.0036  0.0426  0.3075
   89loPI   C1A 1415   7.248   8.253   7.961 -0.1059  0.6049  0.1433
   89loPI   C2A 1416   7.136   8.259   7.527 -0.2276  0.3132  0.0657
   89loPI   C3A 1417   7.090   8.316   7.093 -0.3435  0.0710  0.0340
   89loPI   C4A 1418   7.153   7.969   6.702 -0.1223  0.2854 -0.0121
   89loPI   C5A 1419   7.491   7.781   6.651  0.1409  0.1956  0.3077
   89loPI   C6A 1420   7.635   8.096   6.899  0.2711 -0.0544  0.2765
   89loPI   C1B 1421   7.926   8.719   8.274 -0.1084 -0.0312 -0.0624
   89loPI   C2B 1422   7.943   9.025   7.916 -0.1389 -0.0844 -0.2062
   89loPI   C3B 1423   8.124   9.238   7.531 -0.2749 -0.1452  0.1434
   89loPI   C4B 1424   8.525   9.269   7.237 -0.1248  0.2437 -0.0302
   90loPI    C1 1425   4.659   8.575   9.451  0.3511 -0.1624 -0.3896
   90loPI    C2 1426   4.981   8.417   9.628  0.0343 -0.2740  0.1061
   90loPI    C3 1427   4.676   8.181   9.523 -0.0829 -0.1075  0.0684
   90loPI   PO4 1428   4.552   8.760   9.613  0.0981 -0.2059  0.2596
   90loPI   GL1 1429   4.354   9.121   9.395  0.1669  0.0345 -0.2353
   90loPI   GL2 1430   4.649   9.060   9.205 -0.3326 -0.0145 -0.3575
   90loPI   C1A 1431   4.425   9.537   9.416  0.1236  0.1323  0.0825
   90loPI   C2A 1432   4.459   9.750   9.079 -0.3596  0.2100  0.0705
   90loPI   C3A 1433   4.382   9.948   8.731 -0.0342 -0.2992  0.0117
   90loPI   C4A 1434   4.306  10.079   8.324 -0.4690 -0.1889  0.3576
   90loPI   C5A 1435   4.310  10.056   7.992 -0.2372 -0.0901 -0.0505
   90loPI   C6A 1436   4.461  10.276   7.593 -0.2532 -0.1648 -0.2594
   90loPI   C1B 1437   4.503   9.290   8.923  0.3656 -0.0243  0.0807
   90loPI   C2B 1438   4.551   9.454   8.485  0.1856  0.0827  0.1102
   90loPI   C3B 1439   4.742   9.661   8.090  0.1594  0.3802  0.3628
   90loPI   C4B 1440   4.732   9.828   7.642  0.2838  0.0549 -0.0024
   91loPI    C1 1441  14.614   0.730  10.465 -0.0720 -0.0832 -0.0341
   91loPI    C2 1442  15.013   0.712  10.499 -0.0692 -0.0130 -0.0263
   91loPI    C3 1443  14.785   0.734  10.827 -0.0777 -0.0175 -0.0318
   91loPI   PO4 1444  14.569   0.598  10.286 -0.1755  0.3510 -0.1755
   91loPI   GL1 1445  14.468   0.322   9.838  0.4443 -0.1366  0.2476
   91loPI   GL2 1446  14.084   0.366   9.871  0.3788 -0.0420  0.2049
   91loPI   C1A 1447  14.584   0.434   9.410  0.1809  0.2721  0.4428
   91loPI   C2A 1448  14.606   0.509   8.968 -0.1526  0.0563 -0.0138
   91loPI   C3A 1449  14.489   0.613   8.743 -0.0565  0.2074  0.2596
   91loPI   C4A 1450  14.379   0.626   8.312 -0.1351 -0.2855  0.0384
   91loPI   C5A 1451  14.213   0.428   7.901 -0.2064 -0.2785  0.0276
   91loPI   C6A 1452  13.883   0.296   7.681 -0.0181  0.2503 -0.0619
   91loPI   C1B 1453  14.122   0.143   9.411  0.1090 -0.3797 -0.0664
   91loPI   C2B 1454  14.116   0.153   8.994 -0.0361 -0.2295  0.2126
   91loPI   C3B 1455  14.010   0.325   8.573 -0.0138 -0.0298  0.1512
   91loPI   C4B 1456  13.835   0.318   8.207 -0.0309 -0.2830 -0.0897
   92loPI    C1 1457   6.935  15.273   9.996 -0.2959  0.0632 -0.2895
   92loPI    C2 1458   6.896  15.651   9.869 -0.2906  0.1059 -0.1652
   92loPI    C3 1459   6.810  15.557  10.249  0.1908  0.0798 -0.0557
   92loPI   PO4 1460   7.163  15.155   9.796  0.1086 -0.1311 -0.3894
   92loPI   GL1 1461   7.259  15.077   9.400 -0.2790 -0.0852  0.1883
   92loPI   GL2 1462   7.270  14.763   9.313  0.3316  0.1994 -0.0394
   92loPI   C1A 1463   7.356  15.077   8.857  0.2560  0.1850  0.0235
   92loPI   C2A 1464   7.171  14.995   8.519  0.1534 -0.1356 -0.2944
   92loPI   C3A 1465   7.229  14.849   8.038  0.1092  0.2934 -0.1596
   92loPI   C4A 1466   7.199  15.113   7.684 -0.1922  0.1717  0.1889
   92loPI   C5A 1467   7.531  15.088   7.220  0.2340 -0.1910 -0.1988
   92loPI   C6A 1468   7.584  15.046   6.757  0.0189 -0.2275  0.2564
   92loPI   C1B 1469   7.070  14.695   8.910 -0.0593 -0.1617  0.1758
   92loPI   C2B 1470   7.052  14.507   8.623 -0.2329 -0.1662 -0.3108
   92loPI   C3B 1471   6.844  14.513   8.257 -0.0432 -0.0377  0.2563
   92loPI   C4B 1472   6.743  14.695   7.818 -0.1339 -0.1057 -0.2240
   93loPI    C1 1473  17.919  18.111   9.941  0.0693  0.0676  0.0899
   93loPI    C2 1474  17.615  17.935  10.132 -0.0858 -0.0412 -0.2499
   93loPI    C3 1475  17.633  18.334  10.109  0.0617 -0.0169  0.1907
   93loPI   PO4 1476  17.953  17.987   9.791 -0.1157  0.0933  0.4627
   93loPI   GL1 1477  17.966  18.231   9.406  0.0611  0.2019  0.0786
   93loPI   GL2 1478  17.961  17.889   9.238 -0.1473 -0.1241  0.2476
   93loPI   C1A 1479  17.829  18.349   9.053  0.0996 -0.2352  0.0574
   93loPI   C2A 1480  17.999  18.175   8.721  0.1640 -0.1349  0.1727
   93loPI   C3A 1481  18.043  17.984   8.375  0.1066 -0.5915 -0.0293
   93loPI   C4A 1482  17.728  17.996   8.062  0.1774  0.0135 -0.3333
   93loPI   C5A 1483  17.358  17.873   7.728  0.1181 -0.1238 -0.2130
   93loPI   C6A 1484  17.215  18.157   7.456 -0.0710 -0.0456  0.2901
   93loPI   C1B 1485  18.293  17.815   8.918 -0.2303  0.1573  0.1955
   93loPI   C2B 1486  18.432  17.683   8.590  0.2590 -0.2032  0.1469
   93loPI   C3B 1487  18.455  17.596   8.158  0.1289  0.2066  0.1766
   93loPI   C4B 1488  18.465  17.792   7.699 -0.0720 -0.4648 -0.0632
   94loPI    C1 1489  17.698   5.913   9.821  0.0867  0.0097 -0.0076
   94loPI    C2 1490  17.325   6.056   9.809  0.0126 -0.1763  0.0532
   94loPI    C3 1491  17.451   5.853  10.129  0.2257  0.0441  0.1114
   94loPI   PO4 1492  17.713   5.918   9.467 -0.1821 -0.2698 -0.1988
   94loPI   GL1 1493  17.993   5.932   9.181  0.0096 -0.0116  0.0945
   94loPI   GL2 1494  17.893   5.553   9.228 -0.3171 -0.0256  0.1023
   94loPI   C1A 1495  18.098   5.750   8.667 -0.1194 -0.1749 -0.0150
   94loPI   C2A 1496  18.085   5.684   8.189 -0.2378 -0.1087 -0.2971
   94loPI   C3A 1497  18.077   5.758   7.719  0.2098 -0.4120 -0.0309
   94loPI   C4A 1498  18.033   5.799   7.236  0.2324  0.0644  0.0649
   94loPI   C5A 1499  17.918   6.037   6.891  0.2708 -0.1595  0.0236
   94loPI   C6A 1500  17.741   6.271   6.661 -0.0428  0.1942  0.2384
   94loPI   C1B 1501  17.720   5.385   8.821 -0.0947 -0.0049 -0.2601
   94loPI   C2B 1502  17.731   5.303   8.422  0.1411 -0.1552  0.2373
   94loPI   C3B 1503  17.816   5.372   7.922 -0.3102 -0.1048 -0.1965
   94loPI   C4B 1504  18.127   5.237   7.656  0.0224 -0.0689 -0.0979
   95loPI    C1 1505   5.531   2.894   9.153 -0.1200  0.0497 -0.3057
   95loPI    C2 1506   5.350   3.169   9.380 -0.0016 -0.1390  0.0256
   95loPI    C3 1507   5.135   2.878   9.209 -0.0873 -0.0133 -0.0835
   95loPI   PO4 1508   5.706   3.042   9.046  0.0250 -0.0460 -0.1464
   95loPI   GL1 1509   5.804   2.936   8.591  0.0311 -0.1677 -0.1002
   95loPI   GL2 1510   5.643   3.265   8.542 -0.1583 -0.0620 -0.2704
   95loPI   C1A 1511   5.650   2.948   8.118  0.0599  0.2730 -0.0686
   95loPI   C2A 1512   5.497   2.900   7.704  0.0669 -0.1018 -0.0993
   95loPI   C3A 1513   5.550   2.783   7.327  0.0003  0.0401  0.2946
   95loPI   C4A 1514   5.494   2.802   6.886 -0.3185  0.0706 -0.0156
   95loPI   C5A 1515   5.350   2.818   6.502  0.1273 -0.1959  0.1172
   95loPI   C6A 1516   5.248   3.114   6.358  0.2877 -0.1666  0.0571
   95loPI   C1B 1517   5.271   3.308   8.155 -0.2559  0.0438  0.0797
   95loPI   C2B 1518   5.231   3.337   7.751 -0.1660 -0.0200  0.0867
   95loPI   C3B 1519   5.087   3.068   7.423 -0.0461 -0.2936  0.1023
   95loPI   C4B 1520   5.047   3.050   6.891 -0.2121  0.0708  0.1318
   96loPI    C1 1521  16.617  15.698  10.125  0.0677  0.0437  0.1266
   96loPI    C2 1522  16.966  15.792  10.296  0.1449  0.0644 -0.0402
   96loPI    C3 1523  16.804  15.432  10.358  0.2124  0.0423  0.0105
   96loPI   PO4 1524  16.604  15.716   9.931 -0.0911  0.0067  0.1892
   96loPI   GL1 1525  16.668  15.578   9.561  0.0138 -0.2021 -0.2027
   96loPI   GL2 1526  16.989  15.605   9.529 -0.0653 -0.0979  0.1530
   96loPI   C1A 1527  16.436  15.764   9.174  0.1935  0.2480 -0.1781
   96loPI   C2A 1528  16.431  15.674   8.671 -0.3332 -0.0173  0.1331
   96loPI   C3A 1529  16.419  15.529   8.268 -0.0609 -0.0168 -0.1700
   96loPI   C4A 1530  16.615  15.616   7.878  0.1259  0.1342  0.0591
   96loPI   C5A 1531  16.852  15.682   7.334  0.1630  0.2158 -0.0902
   96loPI   C6A 1532  16.862  15.435   6.967 -0.0366 -0.0878 -0.3185
   96loPI   C1B 1533  16.926  15.849   9.125 -0.0882  0.1506 -0.0006
   96loPI   C2B 1534  16.981  15.917   8.717 -0.0855 -0.1298  0.0678
   96loPI   C3B 1535  16.737  16.204   8.436 -0.3028  0.1303  0.0473
   96loPI   C4B 1536  16.459  16.268   8.078 -0.2147  0.0619  0.2478
   97loPI    C1 1537   6.445   8.037   9.198  0.0887  0.0789 -0.0375
   97loPI    C2 1538   6.196   7.774   9.366 -0.1521  0.2960 -0.0491
   97loPI    C3 1539   6.450   7.982   9.594  0.1350 -0.0406 -0.0543
   97loPI   PO4 1540   6.237   8.081   8.970  0.1523 -0.1777 -0.0579
   97loPI   GL1 1541   6.306   8.060   8.653  0.1682 -0.0352  0.3509
   97loPI   GL2 1542   6.230   7.805   8.541  0.0964  0.1251  0.2488
   97loPI   C1A 1543   6.209   8.366   8.248  0.0592  0.2605  0.2955
   97loPI   C2A 1544   6.159   8.500   7.804  0.2018 -0.2350  0.0385
   97loPI   C3A 1545   6.222   8.556   7.338 -0.1755 -0.0321  0.0208
   97loPI   C4A 1546   6.227   8.563   6.914 -0.0614 -0.0270  0.1519
   97loPI   C5A 1547   6.331   8.659   6.507 -0.0483 -0.0538  0.2379
   97loPI   C6A 1548   6.366   8.603   6.041 -0.3372  0.2324  0.3380
   97loPI   C1B 1549   5.954   7.946   8.106  0.0862  0.0887  0.1404
   97loPI   C2B 1550   5.847   8.035   7.654 -0.1771  0.0479 -0.3381
   97loPI   C3B 1551   5.850   8.179   7.198 -0.2476 -0.0674 -0.0805
   97loPI   C4B 1552   5.816   8.370   6.723 -0.0143 -0.1073  0.0658
   98loPI    C1 1553   0.253  13.315  10.283  0.1423 -0.0626  0.0409
   98loPI    C2 1554   0.164  13.665  10.455  0.3104  0.0382 -0.0749
   98loPI    C3 1555   0.132  13.326  10.665  0.4721  0.1556  0.1435
   98loPI   PO4 1556   0.368  13.467  10.015 -0.2012  0.0059 -0.1706
   98loPI   GL1 1557   0.380  13.247   9.564 -0.0358 -0.0742  0.1538
   98loPI   GL2 1558   0.200  13.333   9.289 -0.4795  0.1126 -0.0769
   98loPI   C1A 1559   0.371  12.860   9.209 -0.1624 -0.2302 -0.2792
   98loPI   C2A 1560   0.317  12.898   8.824  0.1336  0.2538  0.2126
   98loPI   C3A 1561   0.380  12.849   8.419  0.2633  0.0698 -0.1822
   98loPI   C4A 1562   0.360  12.673   7.936 -0.1641 -0.2389  0.4047
   98loPI   C5A 1563   0.316  12.667   7.453  0.1914  0.0141  0.2101
   98loPI   C6A 1564   0.371  13.018   7.156  0.0861 -0.1651  0.1240
   98loPI   C1B 1565   0.378  13.387   9.001 -0.1371  0.0439  0.1217
   98loPI   C2B 1566   0.369  13.350   8.438  0.3438 -0.1143 -0.0840
   98loPI   C3B 1567   0.329  13.178   7.993 -0.2541  0.0898 -0.3068
   98loPI   C4B 1568   0.222  13.172   7.612 -0.2436  0.1272 -0.4383
   99loPI    C1 1569   6.633   0.264   9.581  0.3273  0.0479  0.0314
   99loPI    C2 1570   6.793   0.552   9.808 -0.0478  0.2191  0.0856
   99loPI    C3 1571   6.650   0.220   9.978  0.0348  0.1701  0.0598
   99loPI   PO4 1572   6.607   0.376   9.325 -0.0461 -0.0964 -0.3103
   99loPI   GL1 1573   6.673   0.470   8.841 -0.2048 -0.0169  0.2536
   99loPI   GL2 1574   6.630   0.177   8.864  0.3101 -0.1325  0.3442
   99loPI   C1A 1575   6.678   0.590   8.346  0.0515  0.0731 -0.5359
   99loPI   C2A 1576   6.783   0.698   8.043  0.0837  0.1279 -0.0524
   99loPI   C3A 1577   6.812   0.852   7.587  0.0024 -0.1007 -0.1323
   99loPI   C4A 1578   6.904   0.867   7.159 -0.0395 -0.2657 -0.0377
   99loPI   C5A 1579   6.795   0.705   6.765  0.1613  0.3448 -0.0757
   99loPI   C6A 1580   6.873   0.284   6.658 -0.0698  0.0306  0.1215
   99loPI   C1B 1581   6.654   0.143   8.474 -0.1356  0.2160  0.4166
   99loPI   C2B 1582   6.726   0.185   8.003 -0.2744 -0.1406  0.0786
   99loPI   C3B 1583   6.471   0.118   7.632  0.1079 -0.1188 -0.1895
   99loPI   C4B 1584   6.372   0.074   7.205 -0.0983 -0.0626 -0.0770
  100loPI    C1 1585  17.465  12.062  10.267 -0.1258 -0.0841 -0.0923
  100loPI    C2 1586  17.120  12.242  10.174  0.0119  0.2054 -0.0538
  100loPI    C3 1587  17.284  12.299  10.534  0.1749  0.1881 -0.1245
  100loPI   PO4 1588  17.706  12.092   9.968  0.1113 -0.0092 -0.0530
  100loPI   GL1 1589  17.738  11.962   9.497 -0.3655 -0.0443 -0.0111
  100loPI   GL2 1590  17.903  11.692   9.444  0.0815 -0.0008  0.2227
  100loPI   C1A 1591  17.781  12.082   9.136  0.2099 -0.4376  0.0329
  100loPI   C2A 1592  17.690  12.258   8.736 -0.2594 -0.0146 -0.1078
  100loPI   C3A 1593  17.732  12.234   8.367 -0.2040 -0.2015  0.0562
  100loPI   C4A 1594  17.949  12.344   8.011  0.3098  0.3273  0.2926
  100loPI   C5A 1595  18.010  12.494   7.707  0.0398  0.2213  0.1976
  100loPI   C6A 1596  17.817  12.523   7.339 -0.2494 -0.0098  0.3112
  100loPI   C1B 1597  18.014  11.261   9.229 -0.3248 -0.0139  0.2158
  100loPI   C2B 1598  18.217  11.055   8.816  0.2448  0.0535  0.0204
  100loPI   C3B 1599  18.169  10.934   8.388  0.0190  0.1827  0.0176
  100loPI   C4B 1600  18.122  11.091   8.030 -0.1921 -0.0169  0.1085
  101loPI    C1 1601   9.823  14.815   9.530  0.2335 -0.0892 -0.0432
  101loPI    C2 1602   9.452  14.697   9.439  0.2735 -0.0274 -0.2935
  101loPI    C3 1603   9.554  14.758   9.821 -0.0375  0.1674 -0.2373
  101loPI   PO4 1604   9.832  14.951   9.338  0.0835  0.0584 -0.1203
  101loPI   GL1 1605   9.678  15.023   8.952  0.1718  0.2039 -0.0818
  101loPI   GL2 1606   9.376  15.071   8.809 -0.0189  0.1583 -0.1125
  101loPI   C1A 1607   9.835  14.951   8.550  0.1237  0.0956 -0.1606
  101loPI   C2A 1608   9.827  14.969   8.177 -0.1193 -0.0274 -0.0010
  101loPI   C3A 1609   9.770  15.127   7.767  0.1496 -0.0347 -0.0155
  101loPI   C4A 1610   9.828  15.459   7.624 -0.0361 -0.2631  0.0013
  101loPI   C5A 1611  10.044  15.757   7.417  0.1491 -0.0389  0.1963
  101loPI   C6A 1612  10.575  15.942   7.520 -0.1201 -0.1436 -0.2599
  101loPI   C1B 1613   9.382  14.982   8.381  0.0489 -0.0182 -0.0012
  101loPI   C2B 1614   9.183  15.041   8.042 -0.3366  0.0056  0.1033
  101loPI   C3B 1615   9.188  15.345   7.769 -0.0485 -0.4236  0.2254
  101loPI   C4B 1616   9.421  15.369   7.352 -0.1864 -0.1764  0.2219
  102loPI    C1 1617   0.857   9.709   9.709  0.1324  0.0436  0.0851
  102loPI    C2 1618   0.802  10.028   9.943 -0.1987  0.0859 -0.0449
  102loPI    C3 1619   0.772   9.660  10.097  0.3268  0.1106  0.1374
  102loPI   PO4 1620   1.059   9.783   9.564 -0.1012 -0.0195 -0.1577
  102loPI   GL1 1621   1.051   9.905   9.230 -0.2668 -0.0482  0.3927
  102loPI   GL2 1622   1.358   9.972   9.228 -0.0895 -0.2672  0.1316
  102loPI   C1A 1623   0.982   9.818   8.791 -0.0489 -0.1476 -0.1231
  102loPI   C2A 1624   1.014  10.124   8.497  0.2857  0.0817  0.0090
  102loPI   C3A 1625   0.956  10.221   8.056 -0.1567 -0.3247  0.0229
  102loPI   C4A 1626   0.840  10.605   7.685 -0.0963 -0.1786 -0.1607
  102loPI   C5A 1627   0.838  10.875   7.400 -0.0306 -0.0713 -0.0326
  102loPI   C6A 1628   0.547  11.220   7.404  0.1261  0.1711  0.2663
  102loPI   C1B 1629   1.400  10.021   8.765 -0.0513  0.2370 -0.1987
  102loPI   C2B 1630   1.441  10.076   8.216  0.0465 -0.0423  0.0997
  102loPI   C3B 1631   1.419  10.074   7.733 -0.3665  0.3759  0.0734
  102loPI   C4B 1632   1.380  10.489   7.460  0.0500 -0.0233 -0.1479
  103loPI    C1 1633   0.157  12.894  10.138  0.2584 -0.1371 -0.0464
  103loPI    C2 1634   0.452  12.673  10.295  0.2518  0.0043  0.1694
  103loPI    C3 1635   0.176  12.837  10.533  0.2180  0.1903  0.0052
  103loPI   PO4 1636   0.136  12.846   9.814 -0.0407 -0.1006 -0.1462
  103loPI   GL1 1637  -0.111  12.971   9.492  0.0861 -0.1700 -0.1373
  103loPI   GL2 1638  -0.140  12.553   9.442 -0.3601 -0.0229  0.1374
  103loPI   C1A 1639  -0.107  13.152   8.998 -0.0398  0.1817 -0.2965
  103loPI   C2A 1640  -0.062  13.157   8.505  0.1149 -0.0400 -0.2612
  103loPI   C3A 1641  -0.403  13.165   8.141 -0.1736  0.0264 -0.1315
  103loPI   C4A 1642  -0.185  13.357   7.824 -0.1417 -0.0962  0.0543
  103loPI   C5A 1643  -0.120  13.635   7.582  0.1402 -0.1859 -0.0153
  103loPI   C6A 1644  -0.296  13.928   7.423 -0.0139 -0.1297  0.2954
  103loPI   C1B 1645  -0.125  12.605   8.983  0.1463 -0.3465  0.0659
  103loPI   C2B 1646  -0.089  12.662   8.547 -0.1277  0.0570 -0.0336
  103loPI   C3B 1647  -0.088  12.735   8.152  0.0278  0.1219  0.2236
  103loPI   C4B 1648  -0.088  12.808   7.721 -0.4003 -0.1779  0.1115
  104loPI    C1 1649   7.448   3.344   8.698  0.2374 -0.2690  0.0005
  104loPI    C2 1650   7.113   3.135   8.635  0.0343  0.0015  0.1573
  104loPI    C3 1651   7.224   3.227   9.008  0.1619  0.1081  0.0939
  104loPI   PO4 1652   7.646   3.205   8.565  0.1333  0.0124  0.0106
  104loPI   GL1 1653   7.655   3.168   8.115 -0.5076 -0.1066 -0.0333
  104loPI   GL2 1654   7.403   2.888   8.243  0.0807 -0.1787  0.0296
  104loPI   C1A 1655   7.686   3.239   7.687 -0.1602  0.1232  0.2733
  104loPI   C2A 1656   7.749   3.214   7.213 -0.0981 -0.1896  0.0509
  104loPI   C3A 1657   7.825   3.031   6.750 -0.1756  0.0308  0.2073
  104loPI   C4A 1658   8.133   3.029   6.369 -0.1465  0.2903  0.2082
  104loPI   C5A 1659   8.535   2.877   6.171 -0.0067 -0.1067  0.0126
  104loPI   C6A 1660   8.925   2.969   5.906  0.0992  0.0743 -0.1407
  104loPI   C1B 1661   7.500   2.729   7.827 -0.1034  0.0145 -0.3671
  104loPI   C2B 1662   7.765   2.756   7.476  0.1764  0.3949 -0.1259
  104loPI   C3B 1663   8.099   2.801   7.150  0.1725  0.2643 -0.0102
  104loPI   C4B 1664   8.265   2.734   6.683 -0.0881 -0.0311 -0.4228
  105loPI    C1 1665  13.752   7.132   9.500  0.4445 -0.3151  0.0911
  105loPI    C2 1666  13.823   7.476   9.692  0.3340 -0.1113 -0.2261
  105loPI    C3 1667  13.751   7.142   9.900  0.2748  0.0917  0.0853
  105loPI   PO4 1668  13.589   7.263   9.331 -0.2698 -0.0946  0.2490
  105loPI   GL1 1669  13.510   7.214   8.952  0.2372 -0.0253  0.2790
  105loPI   GL2 1670  13.790   7.062   8.874 -0.0213 -0.4704  0.0492
  105loPI   C1A 1671  13.483   7.135   8.501 -0.3438 -0.4053  0.0903
  105loPI   C2A 1672  13.453   7.227   8.157 -0.1064  0.0687  0.4548
  105loPI   C3A 1673  13.353   7.257   7.637 -0.3550 -0.0191  0.5753
  105loPI   C4A 1674  13.488   7.043   7.316 -0.1599  0.1365 -0.0214
  105loPI   C5A 1675  13.755   6.691   7.368 -0.0817  0.1078 -0.1380
  105loPI   C6A 1676  14.000   6.349   7.474  0.1732 -0.2139  0.3445
  105loPI   C1B 1677  14.211   7.076   8.763 -0.0379 -0.0659  0.1420
  105loPI   C2B 1678  14.373   7.231   8.493  0.1902  0.0956 -0.4690
  105loPI   C3B 1679  14.650   7.296   8.347 -0.0428  0.4687  0.0195
  105loPI   C4B 1680  14.861   7.696   8.338 -0.1137 -0.0437 -0.0909
  106loPI    C1 1681  13.423  11.773  10.153 -0.1169 -0.2854  0.1086
  106loPI    C2 1682  13.637  11.509  10.364  0.3809  0.0931  0.0970
  106loPI    C3 1683  13.397  11.767  10.552  0.1460 -0.1445  0.1301
  106loPI   PO4 1684  13.345  11.546   9.947  0.0126 -0.2283 -0.0881
  106loPI   GL1 1685  13.417  11.663   9.567  0.1221 -0.0046 -0.2028
  106loPI   GL2 1686  13.693  11.735   9.432  0.1380  0.1783  0.0212
  106loPI   C1A 1687  13.319  12.016   9.230 -0.0193  0.2629 -0.2548
  106loPI   C2A 1688  13.420  12.165   8.842  0.0221  0.1290 -0.1679
  106loPI   C3A 1689  13.419  12.402   8.457 -0.0106  0.1175 -0.0364
  106loPI   C4A 1690  13.343  12.595   8.048  0.0044 -0.0683 -0.0017
  106loPI   C5A 1691  13.109  12.692   7.683 -0.4490 -0.1616 -0.0898
  106loPI   C6A 1692  12.802  12.490   7.506 -0.1326 -0.0240 -0.1170
  106loPI   C1B 1693  13.711  11.818   8.946  0.6749  0.1768  0.0754
  106loPI   C2B 1694  13.664  11.831   8.494  0.3079 -0.0569  0.0959
  106loPI   C3B 1695  13.944  11.991   8.164 -0.0351  0.0669  0.1103
  106loPI   C4B 1696  14.096  12.116   7.739 -0.1208 -0.0847  0.0274
  107loPI    C1 1697   5.077   5.455   8.706  0.0314  0.0196 -0.0094
  107loPI    C2 1698   5.398   5.516   8.936  0.1185 -0.1428 -0.0857
  107loPI    C3 1699   5.040   5.651   9.052  0.2101  0.0212  0.0097
  107loPI   PO4 1700   5.234   5.550   8.454 -0.4807  0.0796 -0.1475
  107loPI   GL1 1701   5.099   5.741   8.059  0.2753  0.0892  0.0743
  107loPI   GL2 1702   5.402   6.006   8.166  0.1228  0.0955  0.0884
  107loPI   C1A 1703   4.929   5.667   7.607 -0.2223 -0.3054  0.1308
  107loPI   C2A 1704   4.861   5.732   7.219 -0.0238 -0.2375  0.0949
  107loPI   C3A 1705   4.694   5.896   6.832 -0.2972 -0.1718  0.0798
  107loPI   C4A 1706   4.238   6.078   6.658 -0.0531  0.0782  0.0119
  107loPI   C5A 1707   3.850   6.203   6.520 -0.0882  0.0366  0.2988
  107loPI   C6A 1708   3.486   6.497   6.634  0.0716  0.1124 -0.2613
  107loPI   C1B 1709   5.260   6.114   7.735  0.0485 -0.0357  0.1077
  107loPI   C2B 1710   5.127   6.160   7.302  0.1018  0.1402  0.3001
  107loPI   C3B 1711   5.150   6.047   6.822  0.0522  0.0811  0.0771
  107loPI   C4B 1712   5.220   6.010   6.337  0.1056  0.1273 -0.0166
  108loPI    C1 1713   0.951   3.430   9.658  0.1873 -0.0409 -0.0391
  108loPI    C2 1714   0.931   3.626  10.006  0.0605 -0.2806  0.0917
  108loPI    C3 1715   1.134   3.283   9.982  0.0312 -0.2881 -0.0609
  108loPI   PO4 1716   0.820   3.637   9.503  0.2749 -0.2466 -0.0155
  108loPI   GL1 1717   0.526   3.717   9.125  0.1685  0.2151  0.0155
  108loPI   GL2 1718   0.266   3.861   9.059  0.0292  0.2944 -0.0106
  108loPI   C1A 1719   0.820   3.970   8.745  0.0577 -0.0790 -0.0940
  108loPI   C2A 1720   0.836   3.832   8.399 -0.0305  0.1935  0.0663
  108loPI   C3A 1721   0.615   3.758   8.082  0.0675 -0.0169 -0.1589
  108loPI   C4A 1722   0.731   4.055   7.753  0.1867  0.1808 -0.1543
  108loPI   C5A 1723   0.892   4.414   7.553 -0.2402  0.1517  0.0898
  108loPI   C6A 1724   0.841   4.786   7.295 -0.2681 -0.0609 -0.1708
  108loPI   C1B 1725   0.320   3.771   8.621 -0.0379 -0.2153 -0.2718
  108loPI   C2B 1726   0.186   3.622   8.255 -0.0960 -0.1975 -0.0317
  108loPI   C3B 1727   0.049   3.404   7.821  0.0098 -0.1107 -0.2293
  108loPI   C4B 1728   0.073   3.440   7.375  0.5041  0.1136 -0.1505
  109loPI    C1 1729  18.554   6.619   9.627 -0.0102  0.1318  0.0416
  109loPI    C2 1730  18.793   6.610   9.948 -0.1914 -0.1596  0.1729
  109loPI    C3 1731  18.609   6.950   9.845  0.3045  0.0793  0.0462
  109loPI   PO4 1732  18.702   6.552   9.400  0.0844 -0.0563 -0.1892
  109loPI   GL1 1733  18.529   6.568   9.050  0.0223 -0.0092  0.1864
  109loPI   GL2 1734  18.282   6.325   9.051  0.3023  0.1999 -0.2953
  109loPI   C1A 1735  18.483   6.604   8.603  0.2438 -0.5066  0.1529
  109loPI   C2A 1736  18.454   6.516   8.154 -0.0812 -0.2437  0.2816
  109loPI   C3A 1737  18.342   6.405   7.608 -0.4902  0.0639 -0.0433
  109loPI   C4A 1738  18.035   6.337   7.333  0.0262  0.0096 -0.0842
  109loPI   C5A 1739  17.777   6.527   7.098  0.2754 -0.3293  0.0545
  109loPI   C6A 1740  17.502   6.862   7.267 -0.2486 -0.0160 -0.1808
  109loPI   C1B 1741  18.040   6.231   8.658 -0.0965 -0.0419  0.1441
  109loPI   C2B 1742  18.073   6.233   8.279  0.1730 -0.1081  0.1074
  109loPI   C3B 1743  17.918   6.279   7.888  0.0106 -0.0754  0.0385
  109loPI   C4B 1744  17.637   6.014   7.599 -0.1423  0.1154  0.2276
  110loPI    C1 1745  12.814   5.526   9.554 -0.0368  0.2184 -0.0292
  110loPI    C2 1746  12.789   5.392   9.930  0.1654  0.0044 -0.0899
  110loPI    C3 1747  12.629   5.746   9.833 -0.2551 -0.1264  0.1038
  110loPI   PO4 1748  12.746   5.292   9.335 -0.1432  0.0755 -0.0904
  110loPI   GL1 1749  12.698   5.386   8.848 -0.1047 -0.2389  0.1302
  110loPI   GL2 1750  12.448   5.163   8.911 -0.2865  0.2606 -0.0046
  110loPI   C1A 1751  12.791   5.013   8.549 -0.0339 -0.3430 -0.0547
  110loPI   C2A 1752  12.773   4.977   8.172 -0.1088  0.0686  0.0664
  110loPI   C3A 1753  12.709   4.895   7.788  0.1032 -0.0386  0.3318
  110loPI   C4A 1754  13.046   4.845   7.458  0.0086  0.1766  0.2681
  110loPI   C5A 1755  13.346   4.591   7.118 -0.2560 -0.2677  0.1737
  110loPI   C6A 1756  13.553   4.786   6.696  0.0515 -0.1934 -0.1351
  110loPI   C1B 1757  12.390   5.295   8.405  0.1871 -0.0227  0.1259
  110loPI   C2B 1758  12.332   5.155   8.019  0.0627  0.1139  0.1364
  110loPI   C3B 1759  12.488   5.379   7.658  0.2804 -0.0935 -0.0739
  110loPI   C4B 1760  12.589   5.285   7.353 -0.1076  0.0685 -0.2745
  111loPI    C1 1761  10.617  16.863   9.675 -0.0761  0.0108 -0.1328
  111loPI    C2 1762  10.495  16.981  10.037  0.0583 -0.1154 -0.0453
  111loPI    C3 1763  10.476  16.595   9.936  0.0008 -0.0775 -0.1815
  111loPI   PO4 1764  10.716  16.982   9.565  0.2419  0.2439  0.0249
  111loPI   GL1 1765  10.793  16.969   9.182 -0.0879  0.0529  0.4104
  111loPI   GL2 1766  10.903  16.728   9.188 -0.0015  0.0371  0.1444
  111loPI   C1A 1767  11.175  17.205   9.072 -0.0642  0.0263  0.1589
  111loPI   C2A 1768  11.300  17.363   8.661 -0.4215 -0.0141  0.0207
  111loPI   C3A 1769  11.278  17.428   8.187  0.0652 -0.0560 -0.0820
  111loPI   C4A 1770  11.125  17.745   7.941 -0.2341 -0.2189 -0.1949
  111loPI   C5A 1771  11.256  18.116   7.625 -0.1352 -0.1154 -0.0031
  111loPI   C6A 1772  11.121  17.987   7.199  0.0955  0.0924  0.0638
  111loPI   C1B 1773  11.105  16.844   8.739 -0.0667 -0.0375  0.0970
  111loPI   C2B 1774  11.383  16.926   8.428  0.3412 -0.2383  0.1471
  111loPI   C3B 1775  11.365  17.094   7.896  0.2669  0.2703  0.1830
  111loPI   C4B 1776  11.078  17.234   7.675 -0.0496  0.0974 -0.0061
  112loPI    C1 1777   8.785   5.613   9.107 -0.0278 -0.3518  0.2848
  112loPI    C2 1778   8.442   5.792   9.008  0.1207 -0.3544 -0.2647
  112loPI    C3 1779   8.451   5.533   9.313 -0.2152  0.1429  0.1860
  112loPI   PO4 1780   8.865   5.702   8.789  0.0491 -0.0560  0.0852
  112loPI   GL1 1781   8.971   5.803   8.395  0.4512 -0.1878  0.0521
  112loPI   GL2 1782   9.112   5.482   8.370  0.0880  0.2497  0.0583
  112loPI   C1A 1783   9.045   5.881   7.888  0.0799 -0.0154 -0.2370
  112loPI   C2A 1784   9.157   5.797   7.563 -0.1886  0.2130  0.0610
  112loPI   C3A 1785   9.393   5.774   7.211  0.1804  0.0193  0.0694
  112loPI   C4A 1786   9.396   5.986   6.876  0.3023  0.2397  0.0960
  112loPI   C5A 1787   9.449   6.129   6.503 -0.3908 -0.2426  0.1032
  112loPI   C6A 1788   9.522   6.066   6.045  0.0566  0.1084 -0.0155
  112loPI   C1B 1789   9.166   5.381   7.909  0.0941  0.2307 -0.0158
  112loPI   C2B 1790   9.295   5.246   7.575  0.1845 -0.0995 -0.0308
  112loPI   C3B 1791   9.527   5.325   7.115 -0.1105  0.0812 -0.0362
  112loPI   C4B 1792   9.648   5.563   6.740 -0.0227  0.2186 -0.2474
  113loPI    C1 1793   4.011  18.286   9.673  0.0309 -0.1087 -0.0057
  113loPI    C2 1794   3.703  18.381   9.910 -0.0820  0.0041 -0.1952
  113loPI    C3 1795   4.060  18.552   9.968 -0.1062  0.0227 -0.0995
  113loPI   PO4 1796   3.889  18.234   9.424 -0.0434  0.2184  0.0822
  113loPI   GL1 1797   3.624  18.083   9.076 -0.0538 -0.0176  0.4692
  113loPI   GL2 1798   3.794  17.764   9.062  0.3789  0.0254 -0.3572
  113loPI   C1A 1799   3.270  17.837   8.814 -0.0889  0.0569  0.0853
  113loPI   C2A 1800   3.232  17.530   8.570  0.1009 -0.1410 -0.1990
  113loPI   C3A 1801   3.112  17.445   8.301 -0.1222 -0.1173  0.1711
  113loPI   C4A 1802   2.820  17.443   8.045  0.1543  0.2017 -0.0666
  113loPI   C5A 1803   2.779  17.480   7.628 -0.0196  0.1052  0.0806
  113loPI   C6A 1804   3.115  17.561   7.436  0.3157 -0.2051 -0.2288
  113loPI   C1B 1805   3.745  17.814   8.551  0.2827 -0.2053  0.1960
  113loPI   C2B 1806   3.734  17.788   8.078 -0.1140 -0.1269  0.0910
  113loPI   C3B 1807   3.732  17.795   7.645  0.3020  0.1100  0.2693
  113loPI   C4B 1808   3.630  17.581   7.263 -0.2208 -0.1720  0.1786
  114loPI    C1 1809   6.087  12.160   9.975  0.0103  0.0093 -0.3502
  114loPI    C2 1810   5.771  11.920  10.027  0.1117 -0.0029  0.2896
  114loPI    C3 1811   6.140  11.783  10.100  0.1993  0.2421  0.3175
  114loPI   PO4 1812   6.089  12.291   9.802  0.0970  0.0222 -0.3506
  114loPI   GL1 1813   6.165  12.307   9.416 -0.0067  0.0483 -0.1057
  114loPI   GL2 1814   5.903  12.568   9.427 -0.2055  0.1964 -0.0483
  114loPI   C1A 1815   6.452  12.283   9.082  0.1670 -0.0992 -0.0619
  114loPI   C2A 1816   6.508  12.254   8.685 -0.1728 -0.1476  0.0473
  114loPI   C3A 1817   6.500  12.412   8.203  0.0631  0.1864 -0.2314
  114loPI   C4A 1818   6.603  12.442   7.767  0.1218  0.0953  0.0680
  114loPI   C5A 1819   6.793  12.629   7.466 -0.3238 -0.2189  0.1272
  114loPI   C6A 1820   6.967  12.948   7.119  0.1743  0.1305  0.2114
  114loPI   C1B 1821   6.186  12.732   9.017 -0.1280  0.1467 -0.1628
  114loPI   C2B 1822   6.306  12.717   8.552 -0.0607 -0.3436  0.0259
  114loPI   C3B 1823   6.294  12.917   8.293 -0.0241 -0.0139  0.4038
  114loPI   C4B 1824   6.361  12.918   7.884  0.1859 -0.1209 -0.0680
  115loPI    C1 1825  14.466  18.131  10.114  0.0501  0.1088  0.0438
  115loPI    C2 1826  14.170  18.029  10.364 -0.0410 -0.1538 -0.1655
  115loPI    C3 1827  14.250  17.801  10.045  0.1597  0.1061 -0.3054
  115loPI   PO4 1828  14.337  18.400   9.986  0.0057 -0.1394  0.2327
  115loPI   GL1 1829  14.169  18.270   9.616  0.0585 -0.1393  0.1546
  115loPI   GL2 1830  14.402  17.968   9.593  0.3889  0.1241 -0.0539
  115loPI   C1A 1831  13.955  18.089   9.367 -0.1967  0.2740 -0.0601
  115loPI   C2A 1832  13.998  18.053   8.954 -0.0678  0.0658  0.0848
  115loPI   C3A 1833  13.918  18.150   8.493 -0.3890 -0.2593  0.1787
  115loPI   C4A 1834  13.831  18.237   8.028  0.1364  0.1207  0.2826
  115loPI   C5A 1835  14.084  18.437   7.699  0.4230  0.1385  0.2026
  115loPI   C6A 1836  13.844  18.256   7.352  0.1407 -0.0579 -0.0312
  115loPI   C1B 1837  14.417  17.768   9.185 -0.0759 -0.3763  0.1176
  115loPI   C2B 1838  14.507  17.719   8.830 -0.2254  0.1525 -0.2330
  115loPI   C3B 1839  14.549  17.694   8.458  0.2732 -0.1033  0.2340
  115loPI   C4B 1840  14.627  17.825   8.078  0.2039 -0.0999  0.1556
  116loPI    C1 1841  17.461   0.290  10.055 -0.0967  0.1534  0.0651
  116loPI    C2 1842  17.275  -0.042  10.178 -0.0073  0.0810  0.0068
  116loPI    C3 1843  17.174   0.313  10.332 -0.0713  0.0212  0.1034
  116loPI   PO4 1844  17.480   0.332   9.773  0.0283  0.1103 -0.0339
  116loPI   GL1 1845  17.386   0.201   9.322 -0.1287  0.1675 -0.2643
  116loPI   GL2 1846  17.164   0.038   9.463  0.0532 -0.0703 -0.0977
  116loPI   C1A 1847  17.362  -0.275   9.136 -0.1978  0.0015  0.1023
  116loPI   C2A 1848  17.034  -0.587   9.163 -0.1896 -0.3466  0.1819
  116loPI   C3A 1849  16.662  -0.878   9.118  0.1723  0.0892 -0.3013
  116loPI   C4A 1850  16.287  -0.858   8.920  0.0086 -0.2321 -0.2009
  116loPI   C5A 1851  16.342  -0.850   8.538 -0.0547  0.1364 -0.1318
  116loPI   C6A 1852  16.432  -0.634   8.200 -0.2208  0.0648 -0.0328
  116loPI   C1B 1853  16.825  -0.102   9.256 -0.2843 -0.3011 -0.2396
  116loPI   C2B 1854  16.796  -0.262   8.876  0.1382  0.0585  0.2031
  116loPI   C3B 1855  16.750  -0.642   8.676  0.0908  0.0764  0.0015
  116loPI   C4B 1856  16.789  -1.094   8.474  0.0336 -0.2028  0.1305
  117loPI    C1 1857  10.502  12.303  10.130 -0.2478  0.0443 -0.0301
  117loPI    C2 1858  10.250  12.109  10.373  0.0411 -0.2581  0.0357
  117loPI    C3 1859  10.640  12.019  10.376  0.1550  0.2041 -0.0635
  117loPI   PO4 1860  10.443  12.233   9.875 -0.1154 -0.0046  0.0727
  117loPI   GL1 1861  10.172  12.005   9.498  0.1090 -0.0212  0.1574
  117loPI   GL2 1862  10.510  11.764   9.523  0.1975  0.1800  0.0891
  117loPI   C1A 1863  10.291  12.320   9.146 -0.2481 -0.3382  0.3672
  117loPI   C2A 1864  10.349  12.284   8.628 -0.1093 -0.0636 -0.1766
  117loPI   C3A 1865  10.518  12.217   8.284  0.2375  0.0051  0.1427
  117loPI   C4A 1866  10.363  12.276   7.865 -0.1430 -0.0528  0.2216
  117loPI   C5A 1867  10.038  12.256   7.470  0.0511 -0.2363  0.3537
  117loPI   C6A 1868   9.942  12.555   7.131 -0.4467 -0.0214  0.0054
  117loPI   C1B 1869  10.644  12.009   9.117 -0.0183  0.2920  0.0594
  117loPI   C2B 1870  10.825  12.204   8.847 -0.2010  0.3159 -0.0909
  117loPI   C3B 1871  11.060  12.228   8.436 -0.1395 -0.1414  0.1530
  117loPI   C4B 1872  11.008  12.220   8.059 -0.3595 -0.0231  0.1884
  118loPI    C1 1873   7.168   2.828   9.230  0.0915  0.0280  0.0137
  118loPI    C2 1874   7.182   3.122   9.501 -0.3400 -0.0694  0.1492
  118loPI    C3 1875   7.310   2.755   9.597  0.1998  0.0667 -0.0203
  118loPI   PO4 1876   6.933   2.790   9.011 -0.2053  0.1360 -0.0770
  118loPI   GL1 1877   6.895   2.703   8.521 -0.0428  0.0173  0.3212
  118loPI   GL2 1878   6.561   2.823   8.545  0.1175 -0.1334  0.2255
  118loPI   C1A 1879   7.015   2.636   8.135 -0.5427  0.2131 -0.1035
  118loPI   C2A 1880   7.053   2.586   7.699  0.5445  0.2154 -0.1151
  118loPI   C3A 1881   6.899   2.653   7.353 -0.0483 -0.0443  0.0543
  118loPI   C4A 1882   6.804   2.790   6.915 -0.1239 -0.0636  0.1361
  118loPI   C5A 1883   6.857   3.185   6.656 -0.1955  0.0056 -0.1520
  118loPI   C6A 1884   6.894   3.493   6.394 -0.0172  0.3626  0.1510
  118loPI   C1B 1885   6.539   2.613   8.116  0.3718 -0.0775 -0.3779
  118loPI   C2B 1886   6.466   2.531   7.670 -0.0414  0.1147 -0.0962
  118loPI   C3B 1887   6.399   2.666   7.286 -0.1831  0.0096 -0.0888
  118loPI   C4B 1888   6.366   2.504   6.957  0.0767  0.1319 -0.0461
  119loPI    C1 1889   7.762  19.343   9.864 -0.1069  0.2109  0.0237
  119loPI    C2 1890   8.059  19.529  10.056 -0.0172  0.0254  0.0674
  119loPI    C3 1891   7.726  19.428  10.253 -0.0037  0.0052  0.0796
  119loPI   PO4 1892   7.801  19.207   9.528  0.3233  0.0121  0.0977
  119loPI   GL1 1893   7.793  19.108   8.965  0.2611 -0.4732 -0.1041
  119loPI   GL2 1894   7.511  19.383   8.907  0.2586 -0.0840 -0.1274
  119loPI   C1A 1895   7.879  18.928   8.583  0.0120  0.1441  0.0446
  119loPI   C2A 1896   7.944  19.052   8.224 -0.1702 -0.1426 -0.1248
  119loPI   C3A 1897   8.162  19.189   7.724 -0.1871 -0.1756 -0.1976
  119loPI   C4A 1898   8.224  19.074   7.308  0.1836  0.1332  0.0506
  119loPI   C5A 1899   8.248  18.887   6.878  0.1947 -0.3030  0.2596
  119loPI   C6A 1900   8.328  18.670   6.491 -0.2596 -0.2222  0.0636
  119loPI   C1B 1901   7.495  19.517   8.420 -0.3497 -0.2329  0.1392
  119loPI   C2B 1902   7.628  19.462   7.993 -0.0538 -0.3310  0.3060
  119loPI   C3B 1903   7.545  19.212   7.650 -0.1237 -0.2739 -0.1750
  119loPI   C4B 1904   7.801  19.195   7.164  0.0590 -0.0343 -0.0399
  120loPI    C1 1905  15.445  11.779   9.800  0.0004 -0.0493 -0.0477
  120loPI    C2 1906  15.263  11.774  10.156  0.0350  0.3350 -0.0202
  120loPI    C3 1907  15.612  11.585  10.107 -0.1039  0.0489  0.0724
  120loPI   PO4 1908  15.385  11.948   9.670  0.0248  0.1699  0.1250
  120loPI   GL1 1909  15.576  11.991   9.271 -0.3610 -0.2887  0.2121
  120loPI   GL2 1910  15.204  11.922   9.213  0.3965  0.2647 -0.0966
  120loPI   C1A 1911  15.991  12.038   9.063  0.0690 -0.2101 -0.1258
  120loPI   C2A 1912  15.851  12.216   8.780 -0.2400 -0.1432  0.2263
  120loPI   C3A 1913  15.832  12.320   8.398  0.4118  0.1593 -0.0863
  120loPI   C4A 1914  15.958  12.408   7.964  0.0241  0.0259  0.1610
  120loPI   C5A 1915  15.858  12.379   7.547  0.1208 -0.0677 -0.1884
  120loPI   C6A 1916  16.004  12.156   7.283  0.2032 -0.1046 -0.3239
  120loPI   C1B 1917  15.322  12.264   8.961  0.1070  0.0206  0.2457
  120loPI   C2B 1918  15.370  12.338   8.451 -0.0870 -0.1397 -0.6697
  120loPI   C3B 1919  15.497  12.532   8.123  0.1440 -0.1940  0.4139
  120loPI   C4B 1920  15.614  12.700   7.762  0.1239  0.0254  0.0141
  121loPI    C1 1921  12.327   3.984   9.229  0.0778  0.0023 -0.2812
  121loPI    C2 1922  12.271   4.305   9.461  0.2615 -0.0957 -0.0971
  121loPI    C3 1923  12.612   4.264   9.257  0.2437 -0.1806 -0.1098
  121loPI   PO4 1924  12.096   3.831   9.198  0.2182  0.1052 -0.1651
  121loPI   GL1 1925  11.838   3.810   8.753  0.1850 -0.1697 -0.0741
  121loPI   GL2 1926  11.992   3.504   8.762 -0.0515  0.1794  0.1802
  121loPI   C1A 1927  11.855   3.911   8.273  0.0938  0.1462  0.3366
  121loPI   C2A 1928  11.647   3.928   7.876 -0.1316  0.3388  0.0214
  121loPI   C3A 1929  11.443   4.138   7.586  0.0166  0.0951 -0.4648
  121loPI   C4A 1930  11.435   4.349   7.230  0.1210 -0.1559 -0.2937
  121loPI   C5A 1931  11.371   4.726   7.010 -0.0789  0.4690  0.3602
  121loPI   C6A 1932  11.503   5.193   6.822 -0.4219  0.2711 -0.1236
  121loPI   C1B 1933  12.109   3.514   8.463 -0.0425 -0.0992  0.0940
  121loPI   C2B 1934  12.076   3.635   7.964 -0.1315  0.0035  0.0710
  121loPI   C3B 1935  12.055   3.548   7.589 -0.2069  0.1264 -0.0546
  121loPI   C4B 1936  11.874   3.581   7.197 -0.0137 -0.3976  0.2025
  122loPI    C1 1937   2.306  11.376  10.191 -0.0334 -0.0661 -0.0498
  122loPI    C2 1938   2.437  11.018  10.311 -0.2144 -0.0706  0.1409
  122loPI    C3 1939   2.635  11.349  10.416 -0.1623 -0.1005  0.1369
  122loPI   PO4 1940   2.197  11.253   9.947 -0.0520  0.0808  0.1050
  122loPI   GL1 1941   2.259  11.362   9.449 -0.1227 -0.0555 -0.3722
  122loPI   GL2 1942   2.682  11.344   9.376  0.0879 -0.2964  0.0115
  122loPI   C1A 1943   2.179  11.375   9.001 -0.2358 -0.1933  0.1421
  122loPI   C2A 1944   2.387  11.438   8.605  0.2933 -0.0106 -0.1566
  122loPI   C3A 1945   2.596  11.508   8.318  0.0109 -0.3285  0.1348
  122loPI   C4A 1946   3.026  11.394   8.053 -0.0310  0.2129  0.1834
  122loPI   C5A 1947   3.003  11.336   7.611 -0.3479 -0.2640  0.1601
  122loPI   C6A 1948   3.056  11.394   7.193  0.2062  0.0524 -0.0244
  122loPI   C1B 1949   2.604  11.120   9.004  0.0642  0.0705  0.0414
  122loPI   C2B 1950   2.435  10.940   8.640  0.2976 -0.2197  0.2385
  122loPI   C3B 1951   2.565  11.067   8.165 -0.1647  0.0397  0.1174
  122loPI   C4B 1952   2.495  11.237   7.772 -0.0597 -0.4200  0.1326
  123loPI    C1 1953   8.547  11.140  10.190 -0.1039 -0.2274 -0.2996
  123loPI    C2 1954   8.597  10.745  10.230 -0.1603 -0.1904  0.2090
  123loPI    C3 1955   8.902  10.993  10.303 -0.2189 -0.1225  0.2233
  123loPI   PO4 1956   8.410  11.135   9.920 -0.0065  0.1565  0.0847
  123loPI   GL1 1957   8.341  11.459   9.583 -0.0932  0.1066 -0.2270
  123loPI   GL2 1958   8.586  11.432   9.376  0.0051  0.0026 -0.0784
  123loPI   C1A 1959   8.187  11.492   9.128 -0.0022 -0.0158 -0.0039
  123loPI   C2A 1960   8.247  11.521   8.706 -0.2231  0.0296 -0.1847
  123loPI   C3A 1961   8.348  11.685   8.235  0.4084  0.0194 -0.0953
  123loPI   C4A 1962   8.188  11.843   7.827  0.0382  0.3937  0.1219
  123loPI   C5A 1963   8.023  12.034   7.390 -0.2293  0.2450 -0.0365
  123loPI   C6A 1964   8.109  12.276   7.051  0.1253  0.3458  0.0497
  123loPI   C1B 1965   8.615  11.725   9.052 -0.3933  0.0374 -0.1609
  123loPI   C2B 1966   8.344  11.995   8.761  0.1749 -0.0858  0.2893
  123loPI   C3B 1967   8.085  12.251   8.647 -0.0850 -0.0646 -0.0545
  123loPI   C4B 1968   7.954  12.640   8.702  0.1485  0.0399 -0.0331
  124loPI    C1 1969  12.785  10.152   9.736  0.0753 -0.1476  0.1660
  124loPI    C2 1970  12.503  10.284   9.987  0.0582  0.3433 -0.0971
  124loPI    C3 1971  12.885  10.389  10.043  0.0880  0.2601 -0.1433
  124loPI   PO4 1972  12.760  10.227   9.514 -0.0171 -0.0172  0.1931
  124loPI   GL1 1973  12.612  10.302   9.194  0.1048 -0.2510 -0.3458
  124loPI   GL2 1974  12.724  10.652   9.254 -0.3671  0.2639 -0.1481
  124loPI   C1A 1975  12.478  10.347   8.916 -0.0951 -0.3445  0.6660
  124loPI   C2A 1976  12.284  10.498   8.611 -0.3749 -0.0099  0.1123
  124loPI   C3A 1977  12.399  10.647   8.240  0.0595 -0.1456  0.2090
  124loPI   C4A 1978  12.380  10.874   7.786  0.0118 -0.1249  0.0082
  124loPI   C5A 1979  12.637  11.163   7.441 -0.1350  0.1451 -0.2609
  124loPI   C6A 1980  12.718  11.261   7.018  0.1673 -0.2142 -0.1977
  124loPI   C1B 1981  12.561  10.844   8.881  0.0383  0.1634  0.1265
  124loPI   C2B 1982  12.691  11.002   8.553 -0.0581 -0.2546  0.1543
  124loPI   C3B 1983  12.693  11.167   8.059 -0.2379  0.1275 -0.2791
  124loPI   C4B 1984  12.612  11.575   7.813 -0.3640 -0.2110 -0.1344
  125loPI    C1 1985  14.210  11.495  10.213 -0.0563 -0.1251  0.1283
  125loPI    C2 1986  14.503  11.319  10.420 -0.0337 -0.1790  0.0508
  125loPI    C3 1987  14.275  11.597  10.595 -0.1395 -0.3618  0.2071
  125loPI   PO4 1988  14.433  11.444   9.921  0.1949  0.1510 -0.1516
  125loPI   GL1 1989  14.503  11.556   9.482  0.2594 -0.0469 -0.1556
  125loPI   GL2 1990  14.274  11.642   9.514  0.3838 -0.4890 -0.2389
  125loPI   C1A 1991  14.790  11.398   9.163  0.1255  0.0372  0.0793
  125loPI   C2A 1992  14.658  11.467   8.692  0.2477 -0.0978  0.1411
  125loPI   C3A 1993  14.473  11.597   8.488 -0.1594  0.1547 -0.1536
  125loPI   C4A 1994  14.345  11.611   8.120 -0.3028  0.0249  0.1552
  125loPI   C5A 1995  14.050  11.431   7.747  0.4307  0.0814  0.1922
  125loPI   C6A 1996  13.961  11.167   7.364 -0.0952  0.1742 -0.3400
  125loPI   C1B 1997  14.141  11.928   9.210  0.2718 -0.1031 -0.0617
  125loPI   C2B 1998  14.142  11.972   8.701  0.3429 -0.1195 -0.1080
  125loPI   C3B 1999  14.427  12.134   8.359  0.3758 -0.0127 -0.4631
  125loPI   C4B 2000  14.564  12.127   7.949 -0.1250  0.0782 -0.2648
  126loPI    C1 2001  11.082   8.603   9.794 -0.1190 -0.0623 -0.0421
  126loPI    C2 2002  11.405   8.574  10.028  0.0357 -0.0374 -0.2503
  126loPI    C3 2003  11.153   8.265   9.996 -0.0208 -0.0184 -0.0027
  126loPI   PO4 2004  11.199   8.718   9.550  0.1706  0.2021 -0.0425
  126loPI   GL1 2005  11.381   8.879   9.195  0.0602 -0.0780 -0.1904
  126loPI   GL2 2006  11.817   8.991   9.131  0.0460  0.0429 -0.2853
  126loPI   C1A 2007  11.438   9.190   8.856  0.1473 -0.2392 -0.1688
  126loPI   C2A 2008  11.495   9.430   8.584 -0.0774 -0.2268  0.3047
  126loPI   C3A 2009  11.526   9.794   8.392  0.0543 -0.0320 -0.1446
  126loPI   C4A 2010  11.608  10.071   8.061  0.0630  0.1113 -0.1587
  126loPI   C5A 2011  11.657  10.212   7.581 -0.0961  0.0311  0.0414
  126loPI   C6A 2012  11.697  10.441   7.156 -0.0903  0.2380  0.1352
  126loPI   C1B 2013  11.812   8.922   8.753  0.0960 -0.3301 -0.2749
  126loPI   C2B 2014  11.839   9.105   8.387 -0.0592 -0.1952  0.1789
  126loPI   C3B 2015  11.790   9.425   7.989 -0.1178 -0.1948  0.2831
  126loPI   C4B 2016  12.102   9.554   7.574  0.2819 -0.2047  0.1895
  127loPI    C1 2017   5.753   0.325   9.147  0.1880  0.0161 -0.0079
  127loPI    C2 2018   5.555   0.489   9.453  0.2495 -0.1101  0.1007
  127loPI    C3 2019   5.756   0.722   9.197  0.1012  0.0049  0.0877
  127loPI   PO4 2020   5.625   0.148   9.026  0.1876 -0.0441  0.1933
  127loPI   GL1 2021   5.457   0.156   8.635 -0.2473  0.0391  0.1583
  127loPI   GL2 2022   5.362   0.437   8.486 -0.0586 -0.2524 -0.0663
  127loPI   C1A 2023   5.792   0.283   8.304 -0.0837  0.1796 -0.3250
  127loPI   C2A 2024   5.862   0.331   7.900  0.1138  0.0915 -0.2447
  127loPI   C3A 2025   5.841   0.627   7.587  0.0269 -0.0406  0.1268
  127loPI   C4A 2026   5.594   0.922   7.395  0.4771 -0.1464 -0.1508
  127loPI   C5A 2027   5.315   0.897   7.231  0.2846 -0.0427 -0.5116
  127loPI   C6A 2028   4.976   1.104   7.007  0.1161  0.0875 -0.0340
  127loPI   C1B 2029   5.292   0.377   8.149  0.0987  0.1927  0.2672
  127loPI   C2B 2030   5.145   0.136   7.836  0.1251 -0.2261 -0.0897
  127loPI   C3B 2031   5.072  -0.049   7.382  0.0250 -0.1084  0.2059
  127loPI   C4B 2032   5.153   0.133   6.884  0.0660  0.0426  0.0330
  128loPI    C1 2033  12.430   9.659   9.899  0.0569  0.0064 -0.1157
  128loPI    C2 2034  12.152   9.926  10.007  0.0029 -0.0592 -0.0916
  128loPI    C3 2035  12.415   9.791  10.276  0.0440 -0.0139 -0.1090
  128loPI   PO4 2036  12.420   9.600   9.670 -0.0795 -0.0778 -0.2182
  128loPI   GL1 2037  12.675   9.720   9.316  0.0462 -0.0789  0.1543
  128loPI   GL2 2038  12.886   9.913   9.065  0.0375 -0.0558  0.2177
  128loPI   C1A 2039  12.682   9.453   8.960 -0.4862  0.0552 -0.1525
  128loPI   C2A 2040  12.790   9.378   8.532 -0.0228  0.1502  0.1220
  128loPI   C3A 2041  12.835   9.595   8.135 -0.0177  0.3294  0.0831
  128loPI   C4A 2042  12.971   9.480   7.778  0.0651 -0.0923  0.2426
  128loPI   C5A 2043  13.035   9.770   7.499 -0.2074  0.2924  0.0130
  128loPI   C6A 2044  13.041   9.778   7.034 -0.2822  0.2076  0.3455
  128loPI   C1B 2045  12.914   9.892   8.694  0.0376 -0.0196 -0.1471
  128loPI   C2B 2046  12.978  10.090   8.284  0.0033  0.1216 -0.1857
  128loPI   C3B 2047  12.900  10.073   7.817  0.0531 -0.4845 -0.2886
  128loPI   C4B 2048  12.582   9.836   7.712 -0.0461  0.1946  0.2483
  129loPI    C1 2049  13.295  16.172  10.237 -0.0564  0.0584  0.0288
  129loPI    C2 2050  13.016  16.005  10.470 -0.1029  0.0718 -0.0171
  129loPI    C3 2051  13.022  16.401  10.418 -0.0578  0.0744  0.0063
  129loPI   PO4 2052  13.529  16.100  10.338  0.3690 -0.0318  0.0894
  129loPI   GL1 2053  13.809  16.259   9.959 -0.0612  0.3203 -0.0715
  129loPI   GL2 2054  13.547  16.276   9.814 -0.2176 -0.1062  0.0699
  129loPI   C1A 2055  14.008  16.473   9.538  0.1772 -0.1388  0.1385
  129loPI   C2A 2056  14.185  16.561   9.098 -0.0376 -0.0309  0.2827
  129loPI   C3A 2057  14.338  16.770   8.701 -0.0767 -0.2589  0.0752
  129loPI   C4A 2058  14.275  16.673   8.222  0.0839  0.1205 -0.1479
  129loPI   C5A 2059  14.520  16.849   7.842  0.0343 -0.4076  0.1026
  129loPI   C6A 2060  14.776  17.178   7.639  0.2825  0.0489 -0.0291
  129loPI   C1B 2061  13.607  16.244   9.388  0.0185  0.0032  0.0339
  129loPI   C2B 2062  13.720  16.348   8.983  0.1085  0.0181  0.0126
  129loPI   C3B 2063  13.868  16.489   8.638  0.1800  0.1123  0.0364
  129loPI   C4B 2064  13.768  16.515   8.157  0.1084  0.2944 -0.1043
  130loPI    C1 2065  14.921  12.254  10.214 -0.0336 -0.1589 -0.0461
  130loPI    C2 2066  15.279  12.347  10.365 -0.0676  0.2831 -0.2225
  130loPI    C3 2067  15.054  12.068  10.543  0.3472  0.0200 -0.0935
  130loPI   PO4 2068  14.978  12.129   9.955  0.1666 -0.0896 -0.1641
  130loPI   GL1 2069  14.773  12.220   9.632 -0.1311  0.1927  0.1609
  130loPI   GL2 2070  14.602  12.030   9.460  0.1831  0.0460  0.1668
  130loPI   C1A 2071  14.940  12.410   9.124 -0.0727  0.1260  0.1653
  130loPI   C2A 2072  14.928  12.489   8.689 -0.0067  0.2433  0.0668
  130loPI   C3A 2073  14.837  12.348   8.308 -0.0647  0.1493 -0.2122
  130loPI   C4A 2074  15.079  12.381   7.928 -0.1255 -0.1562  0.3066
  130loPI   C5A 2075  15.313  12.364   7.540 -0.0954 -0.1780 -0.0872
  130loPI   C6A 2076  15.511  12.518   7.167  0.1489  0.3565 -0.1788
  130loPI   C1B 2077  14.705  11.872   9.007  0.2442 -0.2890  0.4114
  130loPI   C2B 2078  14.816  11.944   8.579  0.1379  0.1920  0.1726
  130loPI   C3B 2079  15.111  11.979   8.235 -0.1183 -0.0004 -0.0085
  130loPI   C4B 2080  15.036  11.862   7.738 -0.2426  0.0061 -0.3808
  131loPI    C1 2081   1.296   2.480   9.397 -0.2387  0.2170 -0.0907
  131loPI    C2 2082   1.488   2.347   9.722  0.1063  0.2338 -0.2828
  131loPI    C3 2083   1.093   2.411   9.735  0.0402 -0.1934  0.0002
  131loPI   PO4 2084   1.413   2.280   9.185  0.1082 -0.1020 -0.2921
  131loPI   GL1 2085   1.197   1.878   8.969  0.1644  0.0493  0.0407
  131loPI   GL2 2086   1.131   1.525   8.975 -0.6938 -0.0902 -0.0893
  131loPI   C1A 2087   1.125   1.978   8.521  0.1461  0.0410 -0.0004
  131loPI   C2A 2088   1.229   1.916   8.088  0.0876 -0.0472 -0.1577
  131loPI   C3A 2089   1.252   1.940   7.681  0.0154  0.1492 -0.0551
  131loPI   C4A 2090   1.662   1.927   7.333  0.4715 -0.3191 -0.2440
  131loPI   C5A 2091   2.132   1.837   7.293  0.2545  0.2678  0.0083
  131loPI   C6A 2092   2.495   1.720   7.054  0.0658  0.1046  0.3815
  131loPI   C1B 2093   1.041   1.442   8.501 -0.0468  0.0226 -0.0466
  131loPI   C2B 2094   0.997   1.479   7.975  0.4460  0.1390  0.2573
  131loPI   C3B 2095   1.157   1.451   7.595 -0.1859 -0.1404  0.3180
  131loPI   C4B 2096   1.102   1.436   7.170  0.2580 -0.0491  0.2406
  132loPI    C1 2097  17.996   3.523   9.890 -0.1894 -0.1375  0.0723
  132loPI    C2 2098  17.872   3.848  10.088 -0.0219  0.1544 -0.2906
  132loPI    C3 2099  18.262   3.793  10.018 -0.0374 -0.1909 -0.1262
  132loPI   PO4 2100  17.836   3.516   9.645  0.1875  0.0358 -0.1140
  132loPI   GL1 2101  17.755   3.842   9.321  0.2266  0.2648  0.0846
  132loPI   GL2 2102  17.837   4.141   9.246  0.2558 -0.0930  0.4147
  132loPI   C1A 2103  17.651   3.645   8.957  0.0300 -0.0916  0.0650
  132loPI   C2A 2104  17.577   3.585   8.497  0.0961 -0.1343 -0.0850
  132loPI   C3A 2105  17.628   3.708   8.053  0.3184 -0.2969  0.2641
  132loPI   C4A 2106  17.484   3.625   7.568 -0.0196 -0.3030 -0.1869
  132loPI   C5A 2107  17.221   3.225   7.418  0.1933 -0.1713 -0.0571
  132loPI   C6A 2108  17.007   2.850   7.497 -0.2121  0.0551  0.2865
  132loPI   C1B 2109  17.867   4.065   8.774  0.2050  0.1071 -0.1991
  132loPI   C2B 2110  17.874   4.024   8.395 -0.0300  0.4163  0.2194
  132loPI   C3B 2111  17.808   4.186   8.010  0.2509 -0.2242 -0.2019
  132loPI   C4B 2112  17.684   4.069   7.703 -0.0071  0.0975  0.0440
  133loPI    C1 2113  13.464   8.542   9.801  0.0260 -0.1784  0.3186
  133loPI    C2 2114  13.686   8.836   9.957 -0.2317  0.1030  0.1674
  133loPI    C3 2115  13.523   8.560  10.197 -0.0175  0.1011  0.3146
  133loPI   PO4 2116  13.595   8.300   9.658 -0.0861 -0.2149 -0.4233
  133loPI   GL1 2117  13.556   8.318   9.245 -0.0104 -0.1579 -0.2752
  133loPI   GL2 2118  13.733   8.061   9.092 -0.0284 -0.1524  0.0295
  133loPI   C1A 2119  13.332   8.498   8.969  0.2457 -0.0353 -0.0061
  133loPI   C2A 2120  13.404   8.581   8.496 -0.2194  0.0945 -0.3376
  133loPI   C3A 2121  13.209   8.650   8.144  0.0123  0.0454 -0.0187
  133loPI   C4A 2122  12.911   8.696   7.821 -0.1988  0.1553 -0.3619
  133loPI   C5A 2123  12.427   8.617   7.762  0.1794 -0.3724 -0.1996
  133loPI   C6A 2124  11.973   8.545   7.612 -0.2898  0.1426  0.3465
  133loPI   C1B 2125  13.585   8.064   8.531 -0.1012 -0.1040 -0.0221
  133loPI   C2B 2126  13.493   8.089   8.058  0.2078 -0.0330 -0.1847
  133loPI   C3B 2127  13.322   8.378   7.738 -0.1238  0.1382  0.0703
  133loPI   C4B 2128  13.216   8.634   7.375 -0.1584  0.0294 -0.1183
  134loPI    C1 2129   5.202   9.461  10.102 -0.0924  0.0295 -0.0275
  134loPI    C2 2130   5.386   9.142   9.945 -0.0998 -0.0265  0.0764
  134loPI    C3 2131   5.552   9.339  10.251 -0.1264  0.0311  0.0540
  134loPI   PO4 2132   5.096   9.619   9.791  0.0697 -0.1420  0.0014
  134loPI   GL1 2133   5.199   9.472   9.411  0.0184  0.0178  0.0065
  134loPI   GL2 2134   4.897   9.607   9.342 -0.0759 -0.2091 -0.2572
  134loPI   C1A 2135   5.406   9.733   9.067  0.0139 -0.2098 -0.2077
  134loPI   C2A 2136   5.299   9.987   8.731 -0.0832 -0.1294  0.2817
  134loPI   C3A 2137   5.399  10.104   8.315  0.4293  0.0928 -0.1294
  134loPI   C4A 2138   5.384  10.054   7.879  0.0064 -0.0475 -0.2171
  134loPI   C5A 2139   5.151  10.118   7.535  0.2122 -0.1418  0.0295
  134loPI   C6A 2140   4.913  10.508   7.503 -0.0885  0.1399 -0.1136
  134loPI   C1B 2141   4.941   9.683   8.917 -0.1669  0.0910  0.4338
  134loPI   C2B 2142   4.847   9.856   8.521 -0.1491  0.0003  0.1500
  134loPI   C3B 2143   4.877  10.127   8.136  0.1398  0.3479 -0.2080
  134loPI   C4B 2144   4.721  10.625   8.050 -0.2742 -0.2181 -0.2165
  135loPI    C1 2145  18.225   8.600   9.929  0.0374  0.0019 -0.0634
  135loPI    C2 2146  18.452   8.925   9.875  0.2585 -0.1011  0.2177
  135loPI    C3 2147  18.459   8.733  10.225 -0.0385 -0.2821  0.1279
  135loPI   PO4 2148  18.205   8.536   9.683  0.0311  0.2052  0.0998
  135loPI   GL1 2149  18.293   8.581   9.238 -0.1509 -0.0342  0.1030
  135loPI   GL2 2150  18.246   8.843   9.226 -0.0766  0.1099  0.1962
  135loPI   C1A 2151  17.955   8.473   8.971 -0.2416 -0.0796 -0.0564
  135loPI   C2A 2152  17.884   8.471   8.507 -0.2955  0.2687  0.4055
  135loPI   C3A 2153  17.821   8.675   8.097 -0.2217 -0.0416  0.1927
  135loPI   C4A 2154  17.650   8.694   7.662 -0.0446 -0.0971 -0.0063
  135loPI   C5A 2155  17.767   8.925   7.326  0.5427 -0.0150  0.0529
  135loPI   C6A 2156  17.560   9.226   7.112  0.0540  0.3236 -0.0033
  135loPI   C1B 2157  18.188   8.910   8.771  0.3330 -0.0093 -0.0795
  135loPI   C2B 2158  18.109   9.016   8.368 -0.1477  0.0560 -0.1120
  135loPI   C3B 2159  17.741   9.173   7.968 -0.1159  0.0117 -0.3811
  135loPI   C4B 2160  17.371   9.375   7.971 -0.1399  0.0646 -0.0014
  136loPI    C1 2161   7.163   9.342   9.013  0.0932  0.1427 -0.1518
  136loPI    C2 2162   7.508   9.152   9.086 -0.0521 -0.1470 -0.2038
  136loPI    C3 2163   7.428   9.499   9.269  0.2400 -0.1068 -0.1472
  136loPI   PO4 2164   7.051   9.200   8.772 -0.3428  0.3294  0.0189
  136loPI   GL1 2165   6.864   8.872   8.565  0.0692  0.0822 -0.4342
  136loPI   GL2 2166   7.082   8.688   8.432 -0.1296  0.0845  0.0251
  136loPI   C1A 2167   7.011   9.177   8.150 -0.2533 -0.0587 -0.1620
  136loPI   C2A 2168   6.991   9.272   7.661  0.3738  0.0285  0.1245
  136loPI   C3A 2169   6.816   9.358   7.208 -0.1025  0.0787  0.3803
  136loPI   C4A 2170   6.580   9.368   6.799 -0.0422 -0.1025 -0.1127
  136loPI   C5A 2171   6.529   9.160   6.433 -0.0837 -0.0621  0.1991
  136loPI   C6A 2172   6.514   9.092   6.101  0.0006  0.0046  0.0040
  136loPI   C1B 2173   7.186   8.705   7.973 -0.2992 -0.2037  0.0870
  136loPI   C2B 2174   7.054   8.755   7.557 -0.2486 -0.0656  0.0535
  136loPI   C3B 2175   7.053   8.800   7.076  0.4418  0.0695  0.0237
  136loPI   C4B 2176   6.645   8.843   6.787 -0.0980  0.0315 -0.1261
  137loPI    C1 2177  17.033   4.318   9.287 -0.0231  0.2619  0.1242
  137loPI    C2 2178  17.090   4.147   9.645  0.1255 -0.3497 -0.1772
  137loPI    C3 2179  17.401   4.296   9.443  0.0316  0.0619 -0.0285
  137loPI   PO4 2180  16.759   4.391   9.346 -0.2250  0.0167  0.1178
  137loPI   GL1 2181  16.633   4.627   9.041 -0.0419  0.2196  0.0581
  137loPI   GL2 2182  16.900   4.811   9.030 -0.3372  0.1180 -0.0029
  137loPI   C1A 2183  16.624   4.643   8.596  0.0766 -0.1241 -0.0784
  137loPI   C2A 2184  16.645   4.723   8.212 -0.1887  0.3093  0.0925
  137loPI   C3A 2185  16.510   4.552   7.836 -0.1335 -0.0302 -0.0918
  137loPI   C4A 2186  16.376   4.565   7.427 -0.1809 -0.1062 -0.2406
  137loPI   C5A 2187  16.069   4.550   6.982 -0.1088 -0.0923  0.0317
  137loPI   C6A 2188  15.727   4.682   6.936  0.2070 -0.0905 -0.3782
  137loPI   C1B 2189  17.048   4.487   8.749 -0.4959 -0.0094 -0.1379
  137loPI   C2B 2190  17.175   4.495   8.412 -0.1305 -0.0521  0.0253
  137loPI   C3B 2191  17.055   4.608   7.949 -0.0586 -0.4886 -0.1680
  137loPI   C4B 2192  16.926   4.670   7.489  0.0523  0.1599 -0.0790
  138loPI    C1 2193  16.896  17.776   9.862  0.1377  0.0249 -0.1763
  138loPI    C2 2194  17.038  17.920  10.206 -0.0235 -0.2231 -0.0021
  138loPI    C3 2195  16.667  17.772  10.190  0.0053 -0.2704 -0.2686
  138loPI   PO4 2196  17.049  17.951   9.699  0.0408 -0.2814  0.0431
  138loPI   GL1 2197  16.894  18.236   9.320 -0.3081 -0.2191  0.1926
  138loPI   GL2 2198  16.660  17.948   9.267  0.1863 -0.0368 -0.1550
  138loPI   C1A 2199  16.942  18.123   8.903 -0.0929 -0.1447  0.0335
  138loPI   C2A 2200  16.896  17.914   8.451  0.0274 -0.3435  0.0104
  138loPI   C3A 2201  16.933  18.085   8.002  0.1320  0.2399 -0.2789
  138loPI   C4A 2202  17.032  18.480   7.795  0.0311 -0.0444  0.0504
  138loPI   C5A 2203  17.050  18.672   7.437 -0.2282  0.1141  0.2944
  138loPI   C6A 2204  17.059  18.807   7.020  0.2620  0.0887 -0.2931
  138loPI   C1B 2205  16.609  17.679   9.041 -0.1347  0.1989 -0.1330
  138loPI   C2B 2206  16.497  17.681   8.617 -0.0789  0.1606  0.0720
  138loPI   C3B 2207  16.192  17.625   8.392  0.1796 -0.2418  0.0853
  138loPI   C4B 2208  16.141  17.538   7.960  0.1457  0.0467 -0.2308
  139loPI    C1 2209  16.939   6.102   9.393  0.2056 -0.0601  0.0683
  139loPI    C2 2210  16.562   6.054   9.269  0.3274 -0.3267 -0.2108
  139loPI    C3 2211  16.637   6.138   9.653 -0.0315  0.0718 -0.2206
  139loPI   PO4 2212  17.095   5.992   9.143 -0.1301  0.4484 -0.0472
  139loPI   GL1 2213  16.867   5.961   8.773  0.1038  0.1746 -0.2442
  139loPI   GL2 2214  16.766   6.270   8.803  0.1157 -0.1500 -0.1089
  139loPI   C1A 2215  16.925   5.947   8.398 -0.1413  0.1600 -0.0180
  139loPI   C2A 2216  16.764   6.012   7.982 -0.0483 -0.2345 -0.1912
  139loPI   C3A 2217  16.494   5.961   7.675 -0.3451  0.0388 -0.1999
  139loPI   C4A 2218  16.445   6.008   7.172  0.0029  0.1661  0.0918
  139loPI   C5A 2219  16.283   6.318   6.764  0.1518 -0.2148 -0.3439
  139loPI   C6A 2220  16.208   6.752   6.720  0.1791 -0.2239 -0.1400
  139loPI   C1B 2221  16.588   6.408   8.329  0.0693  0.0711  0.0763
  139loPI   C2B 2222  16.455   6.452   7.853  0.1071 -0.0201 -0.0284
  139loPI   C3B 2223  16.246   6.358   7.548  0.2094 -0.0704 -0.0628
  139loPI   C4B 2224  15.983   6.297   7.198  0.3862  0.2971 -0.0331
  140loPI    C1 2225   1.459  11.543  10.091 -0.0312  0.0158 -0.1042
  140loPI    C2 2226   1.369  11.157  10.036 -0.1394  0.0369 -0.0783
  140loPI    C3 2227   1.741  11.264  10.140 -0.1366 -0.0694  0.0230
  140loPI   PO4 2228   1.375  11.663   9.915 -0.1667  0.0219  0.0115
  140loPI   GL1 2229   1.343  11.817   9.486  0.1093  0.4044 -0.1855
  140loPI   GL2 2230   1.709  11.994   9.473 -0.1912  0.2841 -0.0500
  140loPI   C1A 2231   1.510  11.908   8.969 -0.1573 -0.0586 -0.1989
  140loPI   C2A 2232   1.546  11.927   8.520  0.0659 -0.2039  0.1347
  140loPI   C3A 2233   1.504  12.083   8.150  0.1971  0.0490  0.1413
  140loPI   C4A 2234   1.382  12.049   7.706  0.1460  0.3033  0.1074
  140loPI   C5A 2235   0.962  12.129   7.518  0.0327  0.0591 -0.0122
  140loPI   C6A 2236   0.700  11.780   7.386  0.3176 -0.0274  0.1066
  140loPI   C1B 2237   1.931  12.295   9.119  0.4435  0.0771  0.1682
  140loPI   C2B 2238   2.033  12.292   8.576  0.2411 -0.0348  0.1582
  140loPI   C3B 2239   2.104  12.539   8.226 -0.1787  0.0059 -0.1690
  140loPI   C4B 2240   2.158  12.765   7.905 -0.4831  0.0140  0.1376
  141loPI    C1 2241   0.936  13.236  10.353  0.0423  0.0837 -0.0878
  141loPI    C2 2242   0.950  12.853  10.466 -0.2398  0.0846 -0.0416
  141loPI    C3 2243   0.651  13.087  10.591 -0.0117  0.3491  0.0171
  141loPI   PO4 2244   1.017  13.283   9.973 -0.1057  0.0634 -0.0083
  141loPI   GL1 2245   0.837  13.558   9.630 -0.1050  0.1678  0.1828
  141loPI   GL2 2246   1.121  13.571   9.498 -0.0071 -0.0255 -0.1756
  141loPI   C1A 2247   0.662  13.672   9.263  0.2856 -0.0077 -0.1476
  141loPI   C2A 2248   0.731  13.599   8.739  0.0137 -0.0505  0.1788
  141loPI   C3A 2249   0.844  13.476   8.325 -0.0493  0.0647  0.3523
  141loPI   C4A 2250   1.081  13.559   7.993  0.0247  0.2015  0.0211
  141loPI   C5A 2251   1.102  13.886   7.810 -0.1888 -0.2281  0.0663
  141loPI   C6A 2252   1.385  14.276   7.552 -0.2750 -0.3100  0.1738
  141loPI   C1B 2253   1.230  13.752   9.117 -0.4098 -0.0488 -0.5523
  141loPI   C2B 2254   1.249  13.731   8.631  0.0095  0.3447  0.3294
  141loPI   C3B 2255   1.277  13.914   8.302 -0.1343 -0.0030 -0.3652
  141loPI   C4B 2256   1.599  13.987   8.013 -0.0861  0.0056 -0.1319
  142loPI    C1 2257   5.737   8.086   9.354 -0.1744  0.0935  0.0017
  142loPI    C2 2258   6.008   8.311   9.543  0.1075 -0.1324 -0.1263
  142loPI    C3 2259   5.858   7.986   9.722 -0.1105  0.0134 -0.0406
  142loPI   PO4 2260   5.756   8.171   9.077  0.0766  0.2435 -0.0629
  142loPI   GL1 2261   5.640   8.208   8.702 -0.1332  0.0089 -0.0931
  142loPI   GL2 2262   5.603   8.614   8.754 -0.2619 -0.1881  0.1448
  142loPI   C1A 2263   5.688   8.339   8.374 -0.2604  0.1849 -0.3740
  142loPI   C2A 2264   5.549   8.375   8.051 -0.1967 -0.3776  0.0923
  142loPI   C3A 2265   5.438   8.320   7.578  0.1971  0.0841  0.1306
  142loPI   C4A 2266   5.369   8.434   7.172 -0.0929  0.0801  0.1013
  142loPI   C5A 2267   5.497   8.739   6.851  0.1440  0.0797 -0.0195
  142loPI   C6A 2268   5.705   9.143   6.921  0.0804 -0.0951 -0.0547
  142loPI   C1B 2269   5.342   8.690   8.473  0.2882 -0.0950 -0.0229
  142loPI   C2B 2270   5.196   8.737   8.024 -0.1424 -0.0801  0.0256
  142loPI   C3B 2271   5.153   9.085   7.661  0.4137  0.3210 -0.1835
  142loPI   C4B 2272   5.567   9.221   7.389 -0.1648 -0.0125 -0.2199
  143loPI    C1 2273   5.463   8.544   9.367 -0.2473 -0.1573  0.1094
  143loPI    C2 2274   5.453   8.715   9.728 -0.0568 -0.0729  0.0757
  143loPI    C3 2275   5.446   8.317   9.696 -0.2574 -0.0776  0.1641
  143loPI   PO4 2276   5.286   8.594   9.177 -0.0722 -0.1048  0.1087
  143loPI   GL1 2277   4.900   8.667   8.999 -0.2219 -0.3380 -0.0491
  143loPI   GL2 2278   4.796   8.350   9.038 -0.2473  0.0271  0.0186
  143loPI   C1A 2279   4.881   8.631   8.565  0.1191  0.0455  0.1349
  143loPI   C2A 2280   4.713   8.635   8.207 -0.1330 -0.1569 -0.2383
  143loPI   C3A 2281   4.647   8.712   7.816  0.0899  0.1022 -0.0038
  143loPI   C4A 2282   4.686   8.973   7.526 -0.0964 -0.3732 -0.1127
  143loPI   C5A 2283   4.912   9.337   7.202 -0.1334 -0.1437  0.2457
  143loPI   C6A 2284   4.889   9.705   7.021  0.0687 -0.1052  0.0359
  143loPI   C1B 2285   4.415   8.363   8.694  0.1601 -0.2190 -0.0424
  143loPI   C2B 2286   4.233   8.494   8.260  0.3668 -0.1499 -0.0153
  143loPI   C3B 2287   4.100   8.571   7.886  0.0581  0.0637  0.3318
  143loPI   C4B 2288   4.272   8.604   7.505 -0.0847  0.3890 -0.3775
  144loPI    C1 2289   4.750  18.574   9.507  0.0247  0.1550 -0.1356
  144loPI    C2 2290   5.063  18.815   9.569  0.0961 -0.0898  0.5551
  144loPI    C3 2291   4.732  18.858   9.789 -0.1990 -0.1133  0.1276
  144loPI   PO4 2292   4.778  18.475   9.271 -0.2746  0.0887 -0.0977
  144loPI   GL1 2293   4.919  18.451   8.886 -0.1545 -0.4341 -0.1014
  144loPI   GL2 2294   5.119  18.670   8.674 -0.0717  0.0523 -0.0478
  144loPI   C1A 2295   4.965  18.205   8.622 -0.0680 -0.1093 -0.2254
  144loPI   C2A 2296   4.965  18.295   8.233  0.3621  0.3987 -0.1610
  144loPI   C3A 2297   5.223  18.415   7.839 -0.2119  0.2097 -0.0399
  144loPI   C4A 2298   5.640  18.280   7.457  0.0412 -0.2828  0.4147
  144loPI   C5A 2299   5.952  18.452   7.205  0.0486  0.0251  0.1528
  144loPI   C6A 2300   5.958  18.759   6.865  0.2457 -0.3920 -0.0297
  144loPI   C1B 2301   5.093  18.835   8.317  0.2522 -0.2204 -0.0714
  144loPI   C2B 2302   4.858  18.783   7.949 -0.0892  0.0764  0.1048
  144loPI   C3B 2303   4.758  18.731   7.509  0.1111 -0.1575 -0.3566
  144loPI   C4B 2304   4.590  18.495   7.126  0.0619 -0.0406  0.1029
  145loPI    C1 2305  18.785   0.820   9.725  0.1927 -0.2156 -0.0894
  145loPI    C2 2306  18.704   1.201   9.815  0.2092 -0.1861 -0.1991
  145loPI    C3 2307  18.516   0.906  10.008  0.2259 -0.1229 -0.0858
  145loPI   PO4 2308  18.806   0.818   9.538  0.1929 -0.0517 -0.1135
  145loPI   GL1 2309  18.704   0.893   9.167  0.0829  0.1359  0.4378
  145loPI   GL2 2310  18.636   0.547   8.900 -0.0274  0.0409 -0.1485
  145loPI   C1A 2311  18.479   1.086   8.719 -0.2392 -0.0846 -0.2364
  145loPI   C2A 2312  18.287   1.009   8.270  0.0337 -0.1702 -0.2231
  145loPI   C3A 2313  18.133   1.047   7.849  0.5753  0.2765 -0.0556
  145loPI   C4A 2314  17.966   0.777   7.579  0.1803  0.2427 -0.0719
  145loPI   C5A 2315  17.617   0.522   7.373  0.3173 -0.0661  0.1211
  145loPI   C6A 2316  17.283   0.418   7.026 -0.1227 -0.0819  0.4551
  145loPI   C1B 2317  18.499   0.606   8.490 -0.1212 -0.1339 -0.0652
  145loPI   C2B 2318  18.378   0.594   8.034 -0.0106 -0.1149 -0.0137
  145loPI   C3B 2319  18.368   0.493   7.593  0.0890 -0.1738  0.2166
  145loPI   C4B 2320  18.538   0.399   7.267  0.2912  0.0203  0.2491
  146loPI    C1 2321  10.204   1.682   9.609 -0.1203  0.2221  0.0352
  146loPI    C2 2322   9.987   1.445   9.847  0.2258 -0.2157 -0.0710
  146loPI    C3 2323  10.194   1.750  10.003 -0.1961  0.0061  0.0717
  146loPI   PO4 2324  10.088   1.701   9.355  0.1606 -0.1030  0.1793
  146loPI   GL1 2325  10.126   1.559   9.068  0.1500 -0.1255  0.0166
  146loPI   GL2 2326  10.478   1.587   9.072  0.0626  0.0283  0.1632
  146loPI   C1A 2327  10.126   1.557   8.579 -0.1481 -0.0000 -0.1351
  146loPI   C2A 2328  10.100   1.572   8.139  0.2110 -0.0157  0.1597
  146loPI   C3A 2329  10.010   1.804   7.733  0.2058 -0.0294 -0.3452
  146loPI   C4A 2330   9.962   1.834   7.268  0.2676  0.0457  0.0941
  146loPI   C5A 2331  10.328   1.911   6.965  0.3086 -0.0625 -0.1292
  146loPI   C6A 2332  10.751   1.639   7.108 -0.2612 -0.1932  0.4417
  146loPI   C1B 2333  10.602   1.421   8.639 -0.1172 -0.0406 -0.3404
  146loPI   C2B 2334  10.569   1.380   8.207  0.3052 -0.2410 -0.1225
  146loPI   C3B 2335  10.856   1.570   7.873  0.1111 -0.1372 -0.1623
  146loPI   C4B 2336  11.111   1.328   7.518 -0.2588  0.2181  0.0036
  147loPI    C1 2337  17.071   7.059   9.887  0.1761  0.0500 -0.1311
  147loPI    C2 2338  17.136   7.207  10.253 -0.0769  0.1643 -0.1305
  147loPI    C3 2339  17.019   6.828  10.210 -0.0875  0.1631 -0.0904
  147loPI   PO4 2340  17.310   7.249   9.744  0.2832 -0.0585  0.0595
  147loPI   GL1 2341  17.630   7.447   9.474 -0.1370  0.4019  0.1149
  147loPI   GL2 2342  17.815   7.599   9.253  0.1787 -0.0775  0.0144
  147loPI   C1A 2343  17.762   7.113   9.108 -0.1137 -0.1313  0.0074
  147loPI   C2A 2344  17.798   7.056   8.591  0.0502 -0.0025  0.0481
  147loPI   C3A 2345  17.780   7.113   8.157 -0.1146  0.1108 -0.2236
  147loPI   C4A 2346  17.916   7.446   7.834 -0.2606 -0.0710  0.0308
  147loPI   C5A 2347  18.272   7.754   7.783  0.0688 -0.3711 -0.2972
  147loPI   C6A 2348  18.677   7.746   7.636 -0.0063  0.2871  0.0982
  147loPI   C1B 2349  17.874   7.539   8.780 -0.1521 -0.0049  0.0997
  147loPI   C2B 2350  17.956   7.560   8.305  0.2543 -0.2924 -0.1377
  147loPI   C3B 2351  18.388   7.619   8.240 -0.1607 -0.2676 -0.1956
  147loPI   C4B 2352  18.697   7.534   8.101  0.1781  0.2170 -0.1184
  148loPI    C1 2353  10.938  15.430   9.853 -0.0095 -0.1190  0.1610
  148loPI    C2 2354  10.742  15.365   9.510  0.3097  0.0250 -0.0527
  148loPI    C3 2355  10.632  15.173   9.843  0.0961 -0.2351 -0.2698
  148loPI   PO4 2356  10.993  15.741   9.782  0.0347 -0.2632  0.3496
  148loPI   GL1 2357  10.802  16.014   9.516 -0.4536 -0.2050  0.2026
  148loPI   GL2 2358  10.594  16.332   9.518 -0.1512 -0.0183  0.2982
  148loPI   C1A 2359  11.048  16.189   9.262 -0.0475 -0.0179  0.2466
  148loPI   C2A 2360  11.479  15.979   8.986 -0.0319 -0.1388 -0.0380
  148loPI   C3A 2361  11.662  15.634   8.701  0.0076 -0.3086  0.2352
  148loPI   C4A 2362  11.658  15.582   8.323  0.0001 -0.1074  0.2074
  148loPI   C5A 2363  11.907  15.837   8.059 -0.0446 -0.2063 -0.6236
  148loPI   C6A 2364  12.108  16.143   7.715 -0.0539  0.1382 -0.1146
  148loPI   C1B 2365  10.562  16.324   9.143  0.2073  0.2612 -0.0623
  148loPI   C2B 2366  10.859  16.402   8.848 -0.2072  0.1445  0.4671
  148loPI   C3B 2367  11.202  16.221   8.685  0.2338  0.1132  0.4241
  148loPI   C4B 2368  11.551  16.100   8.474 -0.2985  0.2290  0.1114
  149loPI    C1 2369  15.475   3.965  10.066  0.0911 -0.1078 -0.1415
  149loPI    C2 2370  15.523   3.585  10.181  0.0195 -0.0889 -0.0485
  149loPI    C3 2371  15.798   3.859  10.276 -0.1021 -0.0477  0.1936
  149loPI   PO4 2372  15.380   3.891   9.745 -0.0441  0.4487 -0.1115
  149loPI   GL1 2373  15.613   3.929   9.327  0.3058 -0.0993  0.0307
  149loPI   GL2 2374  15.883   3.897   9.236  0.0317 -0.1291  0.0297
  149loPI   C1A 2375  15.553   3.521   9.105 -0.2314  0.0937 -0.0115
  149loPI   C2A 2376  15.734   3.304   8.652  0.0054  0.0675 -0.1497
  149loPI   C3A 2377  15.689   3.189   8.126  0.0782 -0.3710 -0.4236
  149loPI   C4A 2378  15.633   3.058   7.624 -0.0371 -0.1025  0.2774
  149loPI   C5A 2379  16.015   3.199   7.318  0.2202  0.0719 -0.1648
  149loPI   C6A 2380  16.395   2.938   7.122 -0.3234 -0.3915  0.0788
  149loPI   C1B 2381  15.855   3.806   8.822 -0.1850 -0.1046 -0.0145
  149loPI   C2B 2382  15.828   3.713   8.443  0.1591  0.0864 -0.1869
  149loPI   C3B 2383  15.785   3.761   7.994 -0.0427 -0.0609 -0.3338
  149loPI   C4B 2384  15.708   3.524   7.664 -0.0989  0.1885 -0.1771
  150loPI    C1 2385   4.740  12.288   9.676  0.1600 -0.0587 -0.0866
  150loPI    C2 2386   4.705  11.907   9.793  0.0618 -0.0743 -0.1658
  150loPI    C3 2387   4.764  12.195  10.064  0.0949 -0.1407 -0.1022
  150loPI   PO4 2388   4.797  12.295   9.514  0.3210 -0.1163  0.1292
  150loPI   GL1 2389   4.548  12.112   9.271 -0.1863  0.1873 -0.2649
  150loPI   GL2 2390   4.623  11.790   9.021 -0.1142  0.0485  0.0735
  150loPI   C1A 2391   4.158  12.041   9.004 -0.1480  0.1985 -0.1188
  150loPI   C2A 2392   3.997  11.894   8.589  0.0153  0.0540  0.1513
  150loPI   C3A 2393   3.789  11.688   8.156 -0.0419 -0.1769  0.4585
  150loPI   C4A 2394   3.719  11.928   7.767  0.0149 -0.2652 -0.0133
  150loPI   C5A 2395   3.787  12.276   7.516  0.0892  0.1347  0.0353
  150loPI   C6A 2396   3.727  12.262   7.075  0.0223  0.0481  0.1032
  150loPI   C1B 2397   4.395  11.596   8.695 -0.1776  0.1750  0.0212
  150loPI   C2B 2398   4.481  11.512   8.236  0.0273 -0.0221  0.3050
  150loPI   C3B 2399   4.464  11.618   7.853  0.0802 -0.0888  0.3455
  150loPI   C4B 2400   4.534  11.260   7.558  0.4642 -0.2004 -0.0715
  151loPI    C1 2401   0.415   7.151   8.891  0.0317  0.0779 -0.0962
  151loPI    C2 2402   0.441   7.223   9.284  0.0912  0.0809 -0.1006
  151loPI    C3 2403   0.154   7.398   9.067  0.0151  0.0249 -0.0460
  151loPI   PO4 2404   0.393   6.898   8.831 -0.0652  0.2208  0.0802
  151loPI   GL1 2405   0.242   6.502   8.612  0.3701  0.0285 -0.1225
  151loPI   GL2 2406  -0.058   6.673   8.441 -0.1137 -0.3880  0.1233
  151loPI   C1A 2407   0.596   6.263   8.366 -0.1841  0.0055  0.2503
  151loPI   C2A 2408   0.653   6.151   7.994 -0.0383  0.0287 -0.1273
  151loPI   C3A 2409   0.750   6.153   7.566  0.1611  0.0377  0.0423
  151loPI   C4A 2410   0.950   6.224   7.157  0.0472 -0.0551 -0.2194
  151loPI   C5A 2411   1.250   6.505   6.992 -0.0759  0.1838  0.1273
  151loPI   C6A 2412   1.601   6.902   7.107  0.1432 -0.0691  0.0116
  151loPI   C1B 2413   0.245   6.658   8.063  0.3852  0.1603 -0.2265
  151loPI   C2B 2414   0.643   6.645   8.013  0.1493  0.0425  0.1376
  151loPI   C3B 2415   1.066   6.749   7.765  0.0453 -0.0883  0.0959
  151loPI   C4B 2416   1.175   6.853   7.383 -0.1317 -0.0818 -0.1344
  152loPI    C1 2417  18.671  19.411   9.476  0.0550 -0.0603  0.1295
  152loPI    C2 2418  18.482  19.066   9.550 -0.0775 -0.0398 -0.1037
  152loPI    C3 2419  18.323  19.412   9.673 -0.1377 -0.0317 -0.2036
  152loPI   PO4 2420  18.926  19.354   9.338  0.3281 -0.1027 -0.1219
  152loPI   GL1 2421  18.865  19.586   8.989  0.0460  0.1225 -0.0360
  152loPI   GL2 2422  18.842  19.247   8.859  0.0799 -0.0200 -0.1706
  152loPI   C1A 2423  18.777  19.673   8.491 -0.0460  0.0788 -0.1519
  152loPI   C2A 2424  18.752  19.798   8.136 -0.2048  0.1816  0.1478
  152loPI   C3A 2425  18.718  19.599   7.724 -0.1618  0.0715 -0.3204
  152loPI   C4A 2426  18.752  19.374   7.341 -0.0150  0.2511  0.0173
  152loPI   C5A 2427  18.769  19.080   6.968  0.4119  0.3024 -0.0786
  152loPI   C6A 2428  18.608  18.981   6.536  0.1145 -0.3937 -0.0648
  152loPI   C1B 2429  18.761  19.158   8.377  0.1342 -0.0815  0.0680
  152loPI   C2B 2430  18.521  19.261   8.085 -0.0393  0.1916  0.1129
  152loPI   C3B 2431  18.339  19.137   7.691  0.0578 -0.1127 -0.2529
  152loPI   C4B 2432  18.272  19.466   7.486  0.0013 -0.0640  0.1642
  153loPI    C1 2433   0.034   6.256   9.602 -0.0215  0.2124 -0.0190
  153loPI    C2 2434   0.348   6.445   9.763  0.0799 -0.0182  0.0584
  153loPI    C3 2435   0.131   6.192   9.985 -0.0293 -0.0252 -0.0552
  153loPI   PO4 2436   0.213   6.205   9.349  0.0028  0.0565  0.2165
  153loPI   GL1 2437  -0.001   6.068   8.953  0.1303  0.1314  0.3119
  153loPI   GL2 2438  -0.227   6.005   8.754 -0.1467 -0.0770  0.0846
  153loPI   C1A 2439   0.245   5.885   8.574  0.1870 -0.3419  0.2127
  153loPI   C2A 2440   0.279   5.846   8.138  0.0259  0.2044 -0.3499
  153loPI   C3A 2441   0.185   6.154   7.839 -0.2254 -0.0397 -0.2725
  153loPI   C4A 2442   0.357   6.491   7.606  0.3537  0.2291  0.1372
  153loPI   C5A 2443   0.723   6.703   7.341  0.1420  0.1312  0.2152
  153loPI   C6A 2444   0.722   6.558   6.823  0.1747  0.1301 -0.1950
  153loPI   C1B 2445  -0.133   6.171   8.311  0.0215  0.0718 -0.4014
  153loPI   C2B 2446  -0.221   6.421   7.988  0.2617  0.1289 -0.2353
  153loPI   C3B 2447  -0.247   6.584   7.525  0.0918 -0.0629  0.2643
  153loPI   C4B 2448  -0.398   6.950   7.345 -0.0309 -0.0525 -0.3069
  154loPI    C1 2449  12.717   2.899   9.724 -0.1978 -0.0728  0.0716
  154loPI    C2 2450  13.043   2.938   9.953  0.0477 -0.2171 -0.2457
  154loPI    C3 2451  12.720   2.749  10.095  0.0404  0.0651  0.1274
  154loPI   PO4 2452  12.756   3.188   9.622 -0.1992  0.0018 -0.0956
  154loPI   GL1 2453  12.846   3.336   9.263  0.0450 -0.1119  0.0451
  154loPI   GL2 2454  12.564   3.442   9.003 -0.2159 -0.0422  0.0264
  154loPI   C1A 2455  12.882   3.063   8.863 -0.0949  0.1884 -0.1695
  154loPI   C2A 2456  12.876   3.043   8.424 -0.1340  0.2502  0.3613
  154loPI   C3A 2457  13.110   3.116   8.114  0.0072 -0.0214  0.1128
  154loPI   C4A 2458  13.489   3.131   7.695 -0.2535 -0.1449 -0.2623
  154loPI   C5A 2459  13.492   3.339   7.305  0.0657 -0.0365 -0.1594
  154loPI   C6A 2460  13.451   3.841   7.136 -0.2526  0.2610  0.2819
  154loPI   C1B 2461  12.504   3.670   8.658  0.0617  0.1464 -0.0704
  154loPI   C2B 2462  12.532   3.957   8.269  0.4194 -0.1356  0.2217
  154loPI   C3B 2463  12.507   3.866   7.788 -0.0450  0.0010 -0.2495
  154loPI   C4B 2464  12.548   3.689   7.324 -0.1744  0.2766  0.1644
  155loPI    C1 2465  15.170  18.883  10.376  0.0674  0.2354  0.2004
  155loPI    C2 2466  15.124  19.153  10.667  0.0786  0.1558  0.2767
  155loPI    C3 2467  14.808  18.949  10.532  0.1214 -0.0219  0.4426
  155loPI   PO4 2468  15.417  18.936  10.257 -0.2211  0.1876 -0.0895
  155loPI   GL1 2469  15.462  18.860   9.844 -0.3621 -0.1307  0.1946
  155loPI   GL2 2470  15.250  18.653   9.633 -0.3493 -0.0947 -0.0865
  155loPI   C1A 2471  15.636  19.004   9.451  0.0351  0.2111  0.1411
  155loPI   C2A 2472  15.834  19.035   9.051  0.2413  0.4240  0.0875
  155loPI   C3A 2473  15.794  18.845   8.648 -0.1451 -0.1752  0.0476
  155loPI   C4A 2474  15.972  18.991   8.268  0.0463 -0.0753  0.0237
  155loPI   C5A 2475  16.098  19.018   7.842  0.0097 -0.0462 -0.0581
  155loPI   C6A 2476  16.096  18.885   7.471  0.0570  0.1309 -0.0314
  155loPI   C1B 2477  15.021  18.578   9.227  0.1625  0.1893 -0.3126
  155loPI   C2B 2478  14.936  18.610   8.776 -0.2649 -0.0222  0.0409
  155loPI   C3B 2479  14.969  18.652   8.364  0.1344 -0.2483 -0.1813
  155loPI   C4B 2480  15.010  18.668   7.929 -0.0517 -0.2371  0.1369
  156loPI    C1 2481   6.647   1.333   9.722  0.0774  0.2998  0.0860
  156loPI    C2 2482   6.819   0.981   9.645  0.0336  0.3320 -0.1655
  156loPI    C3 2483   6.626   1.037   9.991  0.1051  0.1348 -0.0919
  156loPI   PO4 2484   6.557   1.411   9.386 -0.1745 -0.2584 -0.1019
  156loPI   GL1 2485   6.540   1.402   8.975 -0.1792 -0.0076  0.3293
  156loPI   GL2 2486   6.728   1.328   8.657 -0.4428  0.0403  0.1209
  156loPI   C1A 2487   6.333   1.620   8.500 -0.0241 -0.1740 -0.0699
  156loPI   C2A 2488   6.192   1.508   8.049  0.1828 -0.2568  0.0689
  156loPI   C3A 2489   6.229   1.561   7.617  0.2355 -0.1416  0.0465
  156loPI   C4A 2490   6.078   1.564   7.210 -0.0885  0.2524  0.4159
  156loPI   C5A 2491   6.102   1.621   6.847  0.1524  0.1261  0.1101
  156loPI   C6A 2492   6.172   1.919   6.669 -0.0195  0.0843 -0.1971
  156loPI   C1B 2493   6.926   1.241   8.314  0.1348  0.0458 -0.0231
  156loPI   C2B 2494   7.030   1.143   7.939  0.2059 -0.1255  0.2609
  156loPI   C3B 2495   7.077   1.249   7.503  0.4283  0.1583  0.2715
  156loPI   C4B 2496   7.012   1.344   7.027  0.0034 -0.1746  0.0105
  157loPI    C1 2497   5.357  12.547   9.466  0.0710  0.0195  0.0265
  157loPI    C2 2498   5.197  12.600   9.829  0.1416 -0.0447  0.0675
  157loPI    C3 2499   5.585  12.509   9.793  0.2233  0.3275 -0.0399
  157loPI   PO4 2500   5.248  12.422   9.330 -0.0127 -0.1326  0.1339
  157loPI   GL1 2501   5.042  12.207   9.061 -0.2274  0.1958  0.1243
  157loPI   GL2 2502   5.179  11.939   8.923 -0.0385  0.0968  0.1051
  157loPI   C1A 2503   4.753  12.262   8.865 -0.0548 -0.1136 -0.0844
  157loPI   C2A 2504   4.482  12.070   8.530  0.1155  0.0657  0.1119
  157loPI   C3A 2505   4.281  11.975   8.119  0.0885 -0.0130 -0.2236
  157loPI   C4A 2506   4.193  12.017   7.660  0.2279  0.4032  0.3801
  157loPI   C5A 2507   4.018  11.638   7.522  0.2559  0.1747 -0.3231
  157loPI   C6A 2508   4.074  11.197   7.299  0.2253  0.0538  0.2140
  157loPI   C1B 2509   5.438  12.330   8.729 -0.2142  0.1798  0.0026
  157loPI   C2B 2510   5.367  12.497   8.346 -0.0050  0.4572  0.3774
  157loPI   C3B 2511   5.315  12.394   7.940  0.0358  0.2638 -0.1508
  157loPI   C4B 2512   5.208  12.087   7.567 -0.4415  0.2216 -0.0666
  158loPI    C1 2513   9.442  17.407   9.587 -0.1973  0.2561 -0.1519
  158loPI    C2 2514   9.486  17.052   9.766 -0.1670  0.2556 -0.1603
  158loPI    C3 2515   9.746  17.168   9.485 -0.0594  0.3708 -0.0139
  158loPI   PO4 2516   9.107  17.357   9.474 -0.2883 -0.1513 -0.2488
  158loPI   GL1 2517   8.929  17.239   9.052 -0.0307 -0.2251  0.2143
  158loPI   GL2 2518   9.069  17.684   9.080 -0.2481 -0.0628 -0.1683
  158loPI   C1A 2519   9.024  16.995   8.727  0.0487 -0.3067 -0.0188
  158loPI   C2A 2520   9.015  16.884   8.308  0.0591  0.1598  0.2702
  158loPI   C3A 2521   8.929  16.575   7.999  0.0102  0.2988 -0.0529
  158loPI   C4A 2522   8.957  16.490   7.528  0.1128 -0.0735 -0.2074
  158loPI   C5A 2523   9.054  16.764   7.152 -0.0160  0.2573  0.0773
  158loPI   C6A 2524   9.430  16.925   6.894  0.0816 -0.1189 -0.1916
  158loPI   C1B 2525   9.058  17.686   8.630  0.0444 -0.1298 -0.0249
  158loPI   C2B 2526   9.062  17.445   8.252 -0.0759 -0.1902  0.0145
  158loPI   C3B 2527   9.235  17.343   7.890  0.2365  0.3818 -0.0184
  158loPI   C4B 2528   9.430  17.260   7.466  0.2533 -0.2744  0.4761
  159loPI    C1 2529   4.330  17.361   9.862 -0.0980 -0.1655  0.0955
  159loPI    C2 2530   3.967  17.486   9.974  0.0568  0.2682  0.1346
  159loPI    C3 2531   4.257  17.447  10.246  0.1934  0.4757  0.0213
  159loPI   PO4 2532   4.267  17.161   9.700 -0.3036 -0.0388 -0.1424
  159loPI   GL1 2533   4.233  17.022   9.244  0.2618  0.1733 -0.0321
  159loPI   GL2 2534   4.226  17.173   9.055  0.3625 -0.1015 -0.0461
  159loPI   C1A 2535   3.987  16.797   8.859  0.0192 -0.0560 -0.0338
  159loPI   C2A 2536   3.766  16.774   8.653  0.3507  0.0692  0.3809
  159loPI   C3A 2537   3.748  16.752   8.244 -0.2808 -0.1431  0.0425
  159loPI   C4A 2538   3.808  16.695   7.791  0.0891 -0.0010 -0.4319
  159loPI   C5A 2539   3.789  16.821   7.347  0.0802  0.0652  0.0721
  159loPI   C6A 2540   3.768  16.902   6.914  0.4015  0.1564  0.2278
  159loPI   C1B 2541   4.482  17.340   8.726 -0.0667 -0.0372 -0.0686
  159loPI   C2B 2542   4.492  17.373   8.308 -0.1085 -0.3506  0.1326
  159loPI   C3B 2543   4.646  17.379   7.907  0.0772  0.2071 -0.1521
  159loPI   C4B 2544   4.535  17.255   7.509  0.0778 -0.1488  0.0041
  160loPI    C1 2545  16.345   3.785   9.667 -0.0149  0.0979  0.1130
  160loPI    C2 2546  16.300   3.893  10.049 -0.2949 -0.2044  0.1701
  160loPI    C3 2547  16.656   3.767   9.917 -0.1908 -0.0735  0.3228
  160loPI   PO4 2548  16.260   4.003   9.523  0.4658  0.1297 -0.0148
  160loPI   GL1 2549  16.312   4.133   9.126  0.2017  0.2698  0.3193
  160loPI   GL2 2550  16.310   3.975   8.960  0.1185  0.0959 -0.2795
  160loPI   C1A 2551  16.203   4.448   8.853 -0.1072  0.1910 -0.3270
  160loPI   C2A 2552  16.107   4.562   8.446  0.2246  0.3390  0.1058
  160loPI   C3A 2553  16.139   4.684   8.137  0.2811 -0.1816  0.0959
  160loPI   C4A 2554  15.983   4.455   7.741  0.0755 -0.3836  0.1013
  160loPI   C5A 2555  15.662   4.392   7.343 -0.0410 -0.0713 -0.0153
  160loPI   C6A 2556  15.709   4.178   6.968 -0.1396  0.0111  0.1386
  160loPI   C1B 2557  16.282   3.803   8.547 -0.1031 -0.1438  0.0544
  160loPI   C2B 2558  16.265   3.585   8.182  0.0476 -0.1018  0.2261
  160loPI   C3B 2559  16.137   3.255   7.909  0.0593 -0.1929  0.2186
  160loPI   C4B 2560  16.234   2.864   7.659  0.2556  0.3891 -0.2084
  161loPI    C1 2561  12.356   7.172   9.313  0.1043  0.2234 -0.2034
  161loPI    C2 2562  12.195   7.506   9.462  0.0014  0.0990 -0.0305
  161loPI    C3 2563  12.309   7.213   9.708  0.3082  0.1013 -0.1647
  161loPI   PO4 2564  12.496   7.220   9.142  0.1647 -0.1190  0.0051
  161loPI   GL1 2565  12.385   7.308   8.666 -0.0013 -0.0316 -0.0898
  161loPI   GL2 2566  12.264   7.076   8.768 -0.1560  0.4901  0.4861
  161loPI   C1A 2567  12.502   7.264   8.211  0.0372  0.0927  0.0462
  161loPI   C2A 2568  12.828   7.323   7.759  0.2000  0.0611  0.1192
  161loPI   C3A 2569  12.962   7.471   7.375  0.0800 -0.3904 -0.0680
  161loPI   C4A 2570  13.220   7.481   7.023 -0.1975 -0.3440 -0.0958
  161loPI   C5A 2571  13.597   7.454   6.942 -0.3351  0.2120 -0.1124
  161loPI   C6A 2572  14.103   7.434   6.840 -0.0299 -0.1379 -0.3480
  161loPI   C1B 2573  12.113   6.942   8.423  0.0178 -0.3329 -0.1235
  161loPI   C2B 2574  11.846   7.324   8.313 -0.0627  0.0898  0.2375
  161loPI   C3B 2575  11.700   7.672   8.250  0.1100  0.1120 -0.3019
  161loPI   C4B 2576  11.382   7.882   8.077  0.1275  0.1047 -0.2368
  162loPI    C1 2577  10.143   8.320   9.329  0.1460  0.2257 -0.0765
  162loPI    C2 2578  10.369   8.148   9.610  0.1509  0.1265 -0.1409
  162loPI    C3 2579  10.251   8.527   9.654  0.1517  0.1117 -0.0051
  162loPI   PO4 2580  10.111   8.107   9.173  0.0167 -0.1410  0.1031
  162loPI   GL1 2581  10.198   8.108   8.718 -0.1103  0.0862  0.2932
  162loPI   GL2 2582   9.903   8.208   8.601 -0.0828  0.2618 -0.2858
  162loPI   C1A 2583  10.291   8.427   8.402 -0.0144  0.3914 -0.0108
  162loPI   C2A 2584   9.980   8.383   8.102 -0.1573 -0.0316 -0.1272
  162loPI   C3A 2585   9.858   8.293   7.765 -0.0713 -0.1941 -0.1113
  162loPI   C4A 2586   9.847   8.293   7.295 -0.2730  0.3792 -0.0554
  162loPI   C5A 2587   9.968   8.574   6.910  0.1335 -0.0644  0.0684
  162loPI   C6A 2588  10.068   8.831   6.647 -0.0645 -0.1278 -0.1267
  162loPI   C1B 2589   9.802   7.953   8.337  0.0434 -0.1884 -0.0524
  162loPI   C2B 2590   9.696   7.861   7.924 -0.1421 -0.2693 -0.0188
  162loPI   C3B 2591   9.683   7.876   7.535 -0.2190  0.2525 -0.0071
  162loPI   C4B 2592   9.478   7.882   7.110 -0.2324  0.4192  0.0908
  163loPI    C1 2593   2.575   8.426   9.644  0.2937  0.1323  0.1338
  163loPI    C2 2594   2.457   8.799   9.559 -0.0306 -0.0039 -0.0303
  163loPI    C3 2595   2.280   8.596   9.854 -0.1880 -0.1976 -0.2542
  163loPI   PO4 2596   2.811   8.509   9.681 -0.2033  0.1184 -0.0197
  163loPI   GL1 2597   3.065   8.798   9.365  0.1625  0.3129  0.0034
  163loPI   GL2 2598   3.128   9.094   9.200  0.3016  0.0956  0.5319
  163loPI   C1A 2599   3.296   8.666   8.961  0.2665  0.0758  0.2880
  163loPI   C2A 2600   3.282   8.555   8.432  0.2044  0.1159 -0.1083
  163loPI   C3A 2601   3.159   8.707   8.013 -0.2602  0.1881 -0.0828
  163loPI   C4A 2602   2.919   8.654   7.741 -0.0835  0.0268  0.2950
  163loPI   C5A 2603   2.866   8.589   7.349 -0.3900 -0.0670 -0.0586
  163loPI   C6A 2604   2.454   8.469   7.202 -0.0798 -0.1054 -0.0168
  163loPI   C1B 2605   3.224   9.170   8.719  0.1133  0.0343 -0.0458
  163loPI   C2B 2606   3.272   9.041   8.343  0.1882  0.1166 -0.0128
  163loPI   C3B 2607   3.487   9.132   7.918 -0.2092  0.0890 -0.0774
  163loPI   C4B 2608   3.311   8.944   7.523 -0.0664  0.1496 -0.2237
  164loPI    C1 2609  17.713  16.187   9.972  0.1242 -0.1006 -0.0963
  164loPI    C2 2610  17.730  16.388  10.317  0.1286  0.0119 -0.1616
  164loPI    C3 2611  17.942  16.052  10.271  0.3196  0.1277 -0.1395
  164loPI   PO4 2612  17.462  16.222   9.953 -0.0153  0.3587  0.0129
  164loPI   GL1 2613  17.294  16.487   9.607 -0.0781  0.0582  0.0757
  164loPI   GL2 2614  17.183  16.112   9.486 -0.2508  0.0328 -0.1625
  164loPI   C1A 2615  17.263  16.459   9.159  0.1842 -0.1155  0.2606
  164loPI   C2A 2616  17.218  16.366   8.701 -0.2182 -0.3289  0.0046
  164loPI   C3A 2617  17.148  16.391   8.229 -0.0438 -0.3066  0.1766
  164loPI   C4A 2618  17.091  16.425   7.806  0.0424 -0.2378  0.1511
  164loPI   C5A 2619  17.070  16.380   7.462 -0.1330 -0.1765  0.0637
  164loPI   C6A 2620  17.121  16.319   7.093  0.5890 -0.1962  0.3510
  164loPI   C1B 2621  17.498  16.053   9.161  0.2761  0.0682  0.2692
  164loPI   C2B 2622  17.535  15.970   8.810 -0.0916  0.1009  0.0601
  164loPI   C3B 2623  17.435  16.021   8.395 -0.0411 -0.1633 -0.0798
  164loPI   C4B 2624  17.462  16.046   7.975 -0.1977 -0.0058  0.1330
  165loPI    C1 2625  16.570   3.353  10.070 -0.1584  0.1701  0.0461
  165loPI    C2 2626  16.933   3.460  10.199 -0.0987  0.0316 -0.0047
  165loPI    C3 2627  16.693   3.243  10.434 -0.0541 -0.0811 -0.0628
  165loPI   PO4 2628  16.565   3.276   9.758  0.0656  0.1613  0.0638
  165loPI   GL1 2629  16.605   3.438   9.369  0.1914  0.3267  0.1372
  165loPI   GL2 2630  16.633   3.131   9.125 -0.1888  0.2303 -0.1345
  165loPI   C1A 2631  16.643   3.537   8.934  0.2223  0.0294 -0.0454
  165loPI   C2A 2632  16.686   3.536   8.466 -0.0148 -0.0999 -0.2338
  165loPI   C3A 2633  16.714   3.501   8.017 -0.0577  0.3778 -0.0694
  165loPI   C4A 2634  17.016   3.570   7.720  0.0973 -0.4550 -0.4909
  165loPI   C5A 2635  16.892   3.712   7.283  0.1330  0.1712 -0.0919
  165loPI   C6A 2636  16.768   3.925   7.053 -0.0028 -0.1840 -0.2962
  165loPI   C1B 2637  16.223   3.001   9.127  0.1466  0.0959 -0.1910
  165loPI   C2B 2638  15.993   2.874   8.818  0.1376  0.1945  0.0963
  165loPI   C3B 2639  16.025   2.853   8.411 -0.2817  0.0065  0.0600
  165loPI   C4B 2640  15.961   2.760   8.026 -0.1347  0.1868 -0.1535
  166loPI    C1 2641   9.861  12.958  10.022  0.0831 -0.2040 -0.0216
  166loPI    C2 2642   9.618  12.743   9.788  0.0602  0.2140 -0.3961
  166loPI    C3 2643   9.470  13.039  10.012  0.0911 -0.1460  0.1194
  166loPI   PO4 2644  10.082  12.952   9.813  0.2429  0.1316 -0.2330
  166loPI   GL1 2645  10.206  13.155   9.519  0.2142  0.3630  0.0568
  166loPI   GL2 2646  10.138  13.508   9.541 -0.2598 -0.2193  0.0436
  166loPI   C1A 2647  10.270  12.863   9.129  0.1357  0.1218  0.1935
  166loPI   C2A 2648  10.298  12.868   8.657  0.3156 -0.0576  0.0893
  166loPI   C3A 2649  10.284  12.829   8.311  0.1965 -0.4293 -0.1751
  166loPI   C4A 2650  10.424  12.795   7.832 -0.1252  0.0500  0.1836
  166loPI   C5A 2651  10.396  12.587   7.450  0.1923 -0.0562 -0.2724
  166loPI   C6A 2652  10.527  12.237   7.209 -0.4281  0.0518 -0.0194
  166loPI   C1B 2653  10.248  13.445   9.129  0.0579  0.0628  0.1326
  166loPI   C2B 2654  10.247  13.383   8.643  0.1378  0.0709 -0.2150
  166loPI   C3B 2655  10.277  13.313   8.197  0.3956 -0.0458 -0.1909
  166loPI   C4B 2656  10.215  13.249   7.805 -0.4098  0.4658 -0.1980
  167loPI    C1 2657  13.526   5.878   9.771 -0.0283  0.2569  0.0008
  167loPI    C2 2658  13.224   5.627   9.845  0.0254  0.1464 -0.1506
  167loPI    C3 2659  13.469   5.738  10.141 -0.1516  0.2220 -0.0311
  167loPI   PO4 2660  13.405   5.792   9.427  0.1982  0.0609  0.1286
  167loPI   GL1 2661  13.019   5.716   9.119  0.1724 -0.2870  0.2229
  167loPI   GL2 2662  12.897   5.944   8.866  0.0376 -0.0103  0.1790
  167loPI   C1A 2663  13.342   5.700   8.785 -0.3530 -0.2800 -0.1950
  167loPI   C2A 2664  13.450   5.671   8.311 -0.2439  0.1613  0.0478
  167loPI   C3A 2665  13.402   5.748   7.801  0.0236 -0.0410  0.1382
  167loPI   C4A 2666  13.427   5.638   7.418  0.1355  0.0044 -0.0907
  167loPI   C5A 2667  13.702   5.519   7.057 -0.3379  0.2408 -0.1448
  167loPI   C6A 2668  13.597   5.794   6.710  0.2137  0.2500 -0.1883
  167loPI   C1B 2669  12.907   5.640   8.501  0.4425  0.0173  0.0288
  167loPI   C2B 2670  13.006   5.662   8.085  0.1401  0.2272  0.0575
  167loPI   C3B 2671  12.985   5.331   7.711 -0.1653 -0.0591  0.3171
  167loPI   C4B 2672  13.060   5.357   7.185  0.3657 -0.0864  0.2638
  168loPI    C1 2673   1.954  16.506  10.044  0.0765 -0.0110  0.2074
  168loPI    C2 2674   2.258  16.262   9.958  0.0635  0.0634 -0.0579
  168loPI    C3 2675   1.926  16.115  10.125  0.2034 -0.0347  0.1390
  168loPI   PO4 2676   1.865  16.672   9.807  0.2686 -0.1192 -0.2596
  168loPI   GL1 2677   1.737  16.657   9.390  0.1965 -0.2591  0.0116
  168loPI   GL2 2678   1.524  16.441   9.491 -0.0288 -0.1638 -0.2513
  168loPI   C1A 2679   1.550  16.826   9.026 -0.3397  0.2276  0.0663
  168loPI   C2A 2680   1.544  16.836   8.576 -0.0161  0.1329 -0.2031
  168loPI   C3A 2681   1.554  16.526   8.205 -0.2918 -0.1618 -0.1186
  168loPI   C4A 2682   1.480  16.405   7.836 -0.1340  0.4799  0.2741
  168loPI   C5A 2683   1.342  16.229   7.441 -0.1836  0.0807  0.1260
  168loPI   C6A 2684   1.229  16.311   6.942  0.3119 -0.3158 -0.1842
  168loPI   C1B 2685   1.233  16.303   9.146  0.3316 -0.4413  0.2698
  168loPI   C2B 2686   1.068  16.536   8.796  0.3626  0.0848 -0.0845
  168loPI   C3B 2687   1.030  16.559   8.388 -0.1524 -0.1534 -0.1175
  168loPI   C4B 2688   1.094  16.277   8.079  0.4727  0.4438  0.1635
  169loPI    C1 2689  17.051  17.286   9.825  0.0463 -0.0378  0.0834
  169loPI    C2 2690  17.017  17.397  10.207 -0.1695  0.1529  0.0115
  169loPI    C3 2691  17.312  17.544   9.982 -0.0159  0.0066  0.1145
  169loPI   PO4 2692  17.030  17.009   9.779 -0.3703 -0.1920  0.0785
  169loPI   GL1 2693  16.874  16.635   9.488 -0.0484  0.2773 -0.0504
  169loPI   GL2 2694  16.642  16.842   9.490 -0.0664  0.2216 -0.0834
  169loPI   C1A 2695  16.761  16.633   9.084 -0.3666  0.1719 -0.1535
  169loPI   C2A 2696  16.703  16.709   8.549 -0.3879 -0.0796  0.0571
  169loPI   C3A 2697  16.711  16.683   8.039  0.1591  0.3987  0.1444
  169loPI   C4A 2698  16.917  16.860   7.628 -0.1525  0.0059 -0.0264
  169loPI   C5A 2699  16.961  16.792   7.169  0.0596 -0.0967 -0.1583
  169loPI   C6A 2700  16.978  16.663   6.723 -0.0899  0.1215  0.2126
  169loPI   C1B 2701  16.276  16.748   9.384 -0.2062 -0.0274  0.1933
  169loPI   C2B 2702  16.208  16.696   8.913 -0.0015 -0.3792 -0.1097
  169loPI   C3B 2703  16.020  16.487   8.434  0.2293 -0.1434 -0.0701
  169loPI   C4B 2704  16.007  16.405   8.008 -0.1569 -0.3152  0.2159
  170loPI    C1 2705  13.976  12.335  10.261  0.1409  0.1375 -0.0340
  170loPI    C2 2706  13.607  12.207  10.345  0.1483  0.0544 -0.1264
  170loPI    C3 2707  13.902  11.943  10.292  0.2940  0.1300  0.2742
  170loPI   PO4 2708  13.949  12.461  10.054 -0.0322 -0.2512 -0.2773
  170loPI   GL1 2709  13.647  12.563   9.805  0.0163 -0.2684  0.0437
  170loPI   GL2 2710  13.394  12.426   9.664  0.1696  0.1083 -0.0490
  170loPI   C1A 2711  13.438  12.921   9.528  0.0563  0.2312  0.2325
  170loPI   C2A 2712  13.159  13.049   9.198  0.2290  0.0805 -0.0785
  170loPI   C3A 2713  12.786  13.097   9.027  0.0711 -0.1669 -0.0518
  170loPI   C4A 2714  12.603  12.775   8.761  0.2319 -0.1925  0.0985
  170loPI   C5A 2715  12.412  12.792   8.269  0.3606 -0.1667 -0.1390
  170loPI   C6A 2716  12.173  12.920   7.971 -0.0890  0.3224  0.2203
  170loPI   C1B 2717  13.417  12.534   9.176  0.0378 -0.1805 -0.3548
  170loPI   C2B 2718  13.520  12.786   8.745  0.0986 -0.0455  0.0308
  170loPI   C3B 2719  13.640  12.845   8.396 -0.4000 -0.3982  0.0804
  170loPI   C4B 2720  13.893  12.893   8.046 -0.1948  0.3233 -0.0729
  171loPI    C1 2721  15.933  12.835   9.940 -0.0159 -0.0459 -0.0950
  171loPI    C2 2722  15.868  12.567  10.230  0.0851  0.2569  0.2150
  171loPI    C3 2723  16.193  12.799  10.242  0.0961  0.2663 -0.1503
  171loPI   PO4 2724  15.732  12.789   9.732 -0.0651  0.2893 -0.2496
  171loPI   GL1 2725  15.404  12.892   9.403 -0.0268 -0.1284 -0.2847
  171loPI   GL2 2726  15.490  13.073   9.420  0.1932 -0.3899 -0.0606
  171loPI   C1A 2727  15.226  12.775   9.023 -0.2392 -0.1040 -0.0989
  171loPI   C2A 2728  15.233  12.870   8.572 -0.0089 -0.0222  0.1744
  171loPI   C3A 2729  15.099  12.856   8.137  0.3129 -0.2883  0.1420
  171loPI   C4A 2730  14.722  12.738   7.922 -0.4973 -0.1383 -0.1011
  171loPI   C5A 2731  14.606  12.521   7.634  0.0657  0.1520  0.3572
  171loPI   C6A 2732  14.837  12.219   7.435  0.0733 -0.2133 -0.1130
  171loPI   C1B 2733  15.558  13.103   8.902 -0.1127  0.2737  0.0922
  171loPI   C2B 2734  15.579  13.336   8.540  0.3518  0.2829 -0.0477
  171loPI   C3B 2735  15.437  13.610   8.235  0.3993  0.1500 -0.1698
  171loPI   C4B 2736  15.393  13.805   7.940  0.1590  0.0355  0.3710
  172loPI    C1 2737   7.072  14.137  10.039  0.4769 -0.1435 -0.0052
  172loPI    C2 2738   6.784  14.046   9.776  0.1233 -0.0770  0.3481
  172loPI    C3 2739   7.099  13.803   9.821  0.1000 -0.1783 -0.0058
  172loPI   PO4 2740   7.133  14.302  10.036 -0.0323 -0.1760  0.4065
  172loPI   GL1 2741   7.251  14.271   9.499 -0.2041  0.3116 -0.2668
  172loPI   GL2 2742   7.103  14.046   9.347 -0.0111  0.1095  0.0652
  172loPI   C1A 2743   7.436  14.309   9.108  0.0302 -0.0221 -0.0656
  172loPI   C2A 2744   7.588  14.124   8.707  0.0176 -0.0537  0.2145
  172loPI   C3A 2745   7.699  13.977   8.304 -0.1091 -0.0516 -0.2820
  172loPI   C4A 2746   7.536  13.921   7.964 -0.2518 -0.0532  0.0957
  172loPI   C5A 2747   7.575  14.187   7.508 -0.2518 -0.1398 -0.1956
  172loPI   C6A 2748   7.668  14.233   7.099 -0.0557  0.2491 -0.2127
  172loPI   C1B 2749   7.287  13.823   9.123  0.1181 -0.0513  0.0344
  172loPI   C2B 2750   7.723  13.819   9.066 -0.1604  0.2214  0.0277
  172loPI   C3B 2751   7.965  13.731   8.650  0.0130  0.1050  0.2153
  172loPI   C4B 2752   8.198  13.857   8.263 -0.0656  0.0980 -0.0502
  173loPI    C1 2753   9.300   6.387   9.105  0.1652  0.0349 -0.0668
  173loPI    C2 2754   9.567   6.600   9.314 -0.0251  0.3362 -0.1232
  173loPI    C3 2755   9.177   6.676   9.353 -0.1181 -0.1940  0.0649
  173loPI   PO4 2756   9.340   6.384   8.945  0.2349 -0.2839  0.0405
  173loPI   GL1 2757   9.417   6.493   8.532 -0.1495  0.2477 -0.0786
  173loPI   GL2 2758   9.297   6.791   8.612 -0.2194  0.3424 -0.1685
  173loPI   C1A 2759   9.428   6.546   8.191 -0.2940 -0.1311 -0.1407
  173loPI   C2A 2760   9.642   6.712   7.724  0.1090  0.2663 -0.3914
  173loPI   C3A 2761   9.587   6.871   7.400  0.0526  0.0559 -0.1787
  173loPI   C4A 2762   9.746   6.883   7.034 -0.0654 -0.2573  0.1407
  173loPI   C5A 2763   9.932   6.901   6.661 -0.1348  0.0839  0.0252
  173loPI   C6A 2764  10.033   6.838   6.227  0.3482  0.0338 -0.0549
  173loPI   C1B 2765   9.091   6.906   8.304 -0.3386 -0.1847 -0.1085
  173loPI   C2B 2766   9.229   6.882   7.873  0.3367 -0.3491 -0.0958
  173loPI   C3B 2767   9.074   6.733   7.456 -0.0716 -0.4247 -0.4522
  173loPI   C4B 2768   8.845   6.492   7.151 -0.0361 -0.0658 -0.0229
  174loPI    C1 2769  10.944  16.673  10.042  0.3034 -0.0864  0.0554
  174loPI    C2 2770  11.116  16.519   9.715 -0.1956  0.0003 -0.2578
  174loPI    C3 2771  10.883  16.290   9.946 -0.2203  0.0579 -0.2256
  174loPI   PO4 2772  11.018  17.007  10.004 -0.0700 -0.2490  0.0726
  174loPI   GL1 2773  11.233  17.127   9.666  0.1254 -0.3149  0.0574
  174loPI   GL2 2774  11.193  16.940   9.504 -0.1068 -0.1417 -0.1122
  174loPI   C1A 2775  11.598  17.133   9.280 -0.0006  0.1812  0.3266
  174loPI   C2A 2776  11.675  17.003   8.848 -0.3013 -0.0535 -0.1291
  174loPI   C3A 2777  11.849  17.099   8.473 -0.1492 -0.0049  0.0191
  174loPI   C4A 2778  12.078  17.189   8.056 -0.1269 -0.0663  0.0717
  174loPI   C5A 2779  12.013  16.936   7.680  0.0951 -0.4784 -0.2791
  174loPI   C6A 2780  11.767  16.551   7.574 -0.1915 -0.0406  0.1120
  174loPI   C1B 2781  11.433  16.633   9.230  0.0107  0.0540 -0.0669
  174loPI   C2B 2782  11.600  16.507   8.806 -0.0242 -0.0836 -0.2363
  174loPI   C3B 2783  11.826  16.579   8.485 -0.0699  0.0349 -0.0334
  174loPI   C4B 2784  11.779  16.788   8.116  0.0816  0.0944  0.0519
  175loPI    C1 2785   5.893  14.499   9.885  0.0360  0.0045  0.1727
  175loPI    C2 2786   6.055  14.224  10.125  0.2013 -0.0731 -0.0251
  175loPI    C3 2787   6.183  14.602  10.140  0.1964 -0.0735  0.0236
  175loPI   PO4 2788   5.902  14.463   9.645  0.0163 -0.1188 -0.3203
  175loPI   GL1 2789   6.069  14.556   9.326  0.1233 -0.1377  0.1523
  175loPI   GL2 2790   6.393  14.653   9.313  0.3854 -0.0144 -0.2489
  175loPI   C1A 2791   6.267  14.263   8.964  0.1621  0.1214  0.2595
  175loPI   C2A 2792   6.221  14.369   8.452  0.2337 -0.3855  0.0955
  175loPI   C3A 2793   6.347  14.562   8.111  0.2264 -0.2011  0.4502
  175loPI   C4A 2794   6.163  14.377   7.820 -0.3370  0.0067 -0.0622
  175loPI   C5A 2795   6.087  14.307   7.398 -0.1889 -0.0861 -0.2267
  175loPI   C6A 2796   5.719  13.913   7.287 -0.2745  0.4544  0.0841
  175loPI   C1B 2797   6.535  14.758   8.866  0.1309  0.0566  0.0070
  175loPI   C2B 2798   6.482  14.982   8.435 -0.0182  0.0251  0.0393
  175loPI   C3B 2799   6.827  15.148   8.029 -0.0307  0.2193  0.1785
  175loPI   C4B 2800   6.806  15.543   7.819 -0.3031  0.2021  0.1154
  176loPI    C1 2801   9.177   4.069   9.032 -0.1697  0.0857 -0.1397
  176loPI    C2 2802   9.082   3.750   9.253  0.0602 -0.0063 -0.1703
  176loPI    C3 2803   9.092   4.113   9.421  0.0122 -0.0447 -0.0835
  176loPI   PO4 2804   9.045   4.073   8.839 -0.0168 -0.0309 -0.1603
  176loPI   GL1 2805   8.829   4.059   8.414 -0.0544 -0.0060 -0.2253
  176loPI   GL2 2806   9.143   4.255   8.424 -0.2081 -0.1783  0.1301
  176loPI   C1A 2807   8.908   3.914   8.024  0.0205  0.0828 -0.1841
  176loPI   C2A 2808   8.773   3.893   7.563  0.0030 -0.2597 -0.1744
  176loPI   C3A 2809   8.862   3.657   7.230 -0.1802  0.0689  0.0319
  176loPI   C4A 2810   8.821   3.558   6.745 -0.0996 -0.1414  0.0640
  176loPI   C5A 2811   9.123   3.545   6.343  0.3191 -0.0045  0.2652
  176loPI   C6A 2812   9.199   3.282   6.233 -0.3318  0.1267 -0.1580
  176loPI   C1B 2813   9.159   4.337   8.018 -0.1371  0.1742 -0.1297
  176loPI   C2B 2814   9.200   4.215   7.572 -0.0489  0.1105 -0.1754
  176loPI   C3B 2815   9.172   4.234   7.168  0.2938 -0.2264 -0.0821
  176loPI   C4B 2816   9.136   4.649   6.868 -0.2207  0.1653 -0.1751
  177loPI    C1 2817   3.626  17.649   9.550 -0.1399 -0.2178 -0.0126
  177loPI    C2 2818   3.929  17.412   9.439 -0.0338 -0.1264  0.0789
  177loPI    C3 2819   4.003  17.780   9.579 -0.1861 -0.1120  0.1234
  177loPI   PO4 2820   3.433  17.554   9.350 -0.2887 -0.2086 -0.4884
  177loPI   GL1 2821   3.091  17.306   9.220 -0.2579  0.2292 -0.0778
  177loPI   GL2 2822   3.146  16.968   9.168 -0.2515 -0.1645  0.1649
  177loPI   C1A 2823   2.849  17.307   8.905  0.1437  0.1583  0.0567
  177loPI   C2A 2824   2.775  17.195   8.478  0.2313 -0.2174  0.2684
  177loPI   C3A 2825   2.464  17.040   8.181 -0.2412 -0.0095  0.3743
  177loPI   C4A 2826   2.122  16.945   7.940  0.0467 -0.1419  0.0774
  177loPI   C5A 2827   1.982  16.561   7.702 -0.1391  0.0606  0.0231
  177loPI   C6A 2828   2.072  16.186   7.439 -0.3569 -0.2780  0.0654
  177loPI   C1B 2829   3.269  17.086   8.633  0.0709 -0.1366  0.0696
  177loPI   C2B 2830   3.361  17.065   8.167  0.1113  0.0352 -0.0330
  177loPI   C3B 2831   3.315  17.229   7.832  0.2220 -0.0558 -0.1739
  177loPI   C4B 2832   3.182  17.082   7.464 -0.0082  0.4451  0.2474
  178loPI    C1 2833   4.419   5.030   8.854  0.1069  0.0827  0.0482
  178loPI    C2 2834   4.656   4.716   8.926  0.1310  0.0968  0.0302
  178loPI    C3 2835   4.497   4.921   9.231  0.3662  0.2576  0.0477
  178loPI   PO4 2836   4.591   5.213   8.719  0.2341  0.0419  0.3239
  178loPI   GL1 2837   4.479   5.360   8.347  0.1202  0.2278  0.1312
  178loPI   GL2 2838   4.708   5.635   8.361  0.1691  0.1468  0.0977
  178loPI   C1A 2839   4.490   5.097   7.933 -0.2232 -0.0592 -0.2339
  178loPI   C2A 2840   4.330   5.129   7.485  0.0179  0.0826 -0.1957
  178loPI   C3A 2841   4.306   5.257   7.084  0.1918  0.0531  0.4408
  178loPI   C4A 2842   4.155   4.885   6.860  0.1229 -0.1289  0.1564
  178loPI   C5A 2843   3.979   4.515   6.554 -0.1078 -0.0508 -0.0986
  178loPI   C6A 2844   3.620   4.183   6.480  0.3240 -0.1476 -0.1690
  178loPI   C1B 2845   4.250   5.741   8.118  0.1711  0.1935  0.0197
  178loPI   C2B 2846   4.121   6.000   7.645  0.1140  0.1658 -0.2138
  178loPI   C3B 2847   3.796   5.850   7.346  0.0683 -0.2056 -0.1755
  178loPI   C4B 2848   3.700   5.958   6.975 -0.1409 -0.0479 -0.0686
  179loPI    C1 2849   0.022   4.285   9.815  0.0476 -0.0740 -0.1359
  179loPI    C2 2850   0.016   3.897   9.910  0.1694 -0.0770 -0.1399
  179loPI    C3 2851   0.214   4.157  10.141  0.0182 -0.0042 -0.0908
  179loPI   PO4 2852  -0.008   4.392   9.545 -0.4562 -0.2197 -0.2556
  179loPI   GL1 2853   0.364   4.392   9.208 -0.3241  0.1017 -0.2138
  179loPI   GL2 2854   0.046   4.410   9.025  0.2369  0.1312 -0.1744
  179loPI   C1A 2855   0.625   4.429   8.910  0.1724  0.0291  0.1033
  179loPI   C2A 2856   0.678   4.385   8.474  0.0352  0.1370  0.2131
  179loPI   C3A 2857   0.469   4.444   7.997  0.1614  0.0767 -0.0399
  179loPI   C4A 2858   0.361   4.404   7.569  0.1758 -0.1213  0.1423
  179loPI   C5A 2859   0.452   4.608   7.084 -0.0218  0.0362 -0.3509
  179loPI   C6A 2860   0.681   4.635   6.811  0.0359  0.0045  0.0757
  179loPI   C1B 2861   0.267   4.271   8.677 -0.0500 -0.0072 -0.0220
  179loPI   C2B 2862   0.244   4.104   8.294  0.1516  0.2297 -0.4216
  179loPI   C3B 2863   0.241   3.996   7.871 -0.1607 -0.0127  0.1772
  179loPI   C4B 2864   0.236   3.891   7.440 -0.1396 -0.0020 -0.0810
  180loPI    C1 2865  10.133  10.063   9.635  0.1493 -0.2816 -0.1629
  180loPI    C2 2866  10.483   9.871   9.663  0.3038  0.0412  0.2292
  180loPI    C3 2867  10.420  10.204   9.875 -0.1634  0.1141 -0.0095
  180loPI   PO4 2868  10.093  10.147   9.341  0.3064  0.2484 -0.1165
  180loPI   GL1 2869   9.882  10.582   9.110  0.1710  0.1574 -0.1051
  180loPI   GL2 2870   9.910  10.822   9.177 -0.0885  0.0788 -0.1745
  180loPI   C1A 2871   9.778  10.462   8.715  0.1661  0.0064  0.0519
  180loPI   C2A 2872   9.707  10.423   8.316 -0.3652 -0.0739 -0.0630
  180loPI   C3A 2873   9.762  10.279   7.902 -0.1443 -0.0085 -0.1284
  180loPI   C4A 2874   9.616   9.845   7.705 -0.0251  0.2622 -0.1333
  180loPI   C5A 2875   9.313   9.889   7.317  0.0203  0.1152 -0.1580
  180loPI   C6A 2876   9.084   9.900   6.896 -0.0312 -0.2489 -0.2860
  180loPI   C1B 2877  10.197  10.793   8.769 -0.3386 -0.0788 -0.0177
  180loPI   C2B 2878  10.474  10.740   8.402  0.0251 -0.0933  0.0509
  180loPI   C3B 2879  10.658  10.609   7.962 -0.1899 -0.0485  0.0739
  180loPI   C4B 2880  10.928  10.699   7.599 -0.3584  0.2734 -0.1942
  181loPI    C1 2881   2.320   3.562   9.101 -0.0818 -0.0563  0.1372
  181loPI    C2 2882   1.958   3.632   9.255 -0.1639 -0.2534  0.0368
  181loPI    C3 2883   2.229   3.428   9.467 -0.1465 -0.1951  0.0708
  181loPI   PO4 2884   2.353   3.481   8.964 -0.2538 -0.1607 -0.0227
  181loPI   GL1 2885   2.001   3.346   8.670 -0.2753  0.0070 -0.1429
  181loPI   GL2 2886   1.898   3.578   8.733 -0.1077 -0.2095 -0.0348
  181loPI   C1A 2887   1.811   3.339   8.249  0.3055  0.0190 -0.2513
  181loPI   C2A 2888   1.406   3.195   7.955 -0.0788 -0.4153 -0.2821
  181loPI   C3A 2889   1.339   3.343   7.515  0.0313 -0.0850 -0.1340
  181loPI   C4A 2890   1.223   3.549   7.044  0.2353  0.0750  0.0516
  181loPI   C5A 2891   1.208   3.970   6.967 -0.1000 -0.4053  0.0405
  181loPI   C6A 2892   1.307   4.377   7.195 -0.0269  0.0595  0.1873
  181loPI   C1B 2893   1.489   3.681   8.516  0.0668  0.0606 -0.0010
  181loPI   C2B 2894   1.429   3.675   8.187 -0.0139 -0.2550  0.0216
  181loPI   C3B 2895   1.103   3.775   7.910  0.3273 -0.1116 -0.0409
  181loPI   C4B 2896   1.158   3.990   7.498  0.1215  0.2340  0.0623
  182loPI    C1 2897   7.545   4.541   8.707  0.0806  0.0122 -0.2242
  182loPI    C2 2898   7.721   4.251   8.919 -0.0437  0.0869 -0.0151
  182loPI    C3 2899   7.941   4.491   8.686  0.1118  0.0871  0.1305
  182loPI   PO4 2900   7.381   4.465   8.646  0.2518 -0.2373  0.0414
  182loPI   GL1 2901   7.006   4.601   8.392 -0.1487  0.1940 -0.1993
  182loPI   GL2 2902   7.000   4.300   8.274 -0.1350  0.0494  0.0143
  182loPI   C1A 2903   6.721   4.629   8.151  0.4563 -0.2897  0.0577
  182loPI   C2A 2904   6.675   4.633   7.697  0.0473 -0.1805  0.2926
  182loPI   C3A 2905   6.663   4.608   7.205 -0.0235 -0.0185 -0.0414
  182loPI   C4A 2906   6.600   4.762   6.818  0.0565  0.1347  0.0095
  182loPI   C5A 2907   6.506   4.791   6.339 -0.1771 -0.6261 -0.0136
  182loPI   C6A 2908   6.298   4.898   5.905  0.0117  0.0293  0.0172
  182loPI   C1B 2909   7.288   4.185   7.921 -0.3980 -0.0940 -0.1262
  182loPI   C2B 2910   7.378   4.102   7.517 -0.1982 -0.0816 -0.0469
  182loPI   C3B 2911   7.284   4.127   6.998  0.0059 -0.2864 -0.0343
  182loPI   C4B 2912   7.404   4.275   6.630  0.2162 -0.0573 -0.3275
  183loPI    C1 2913  17.215   5.031   9.757 -0.1210 -0.0551 -0.1157
  183loPI    C2 2914  17.054   4.671   9.691 -0.0657 -0.1478  0.2348
  183loPI    C3 2915  17.450   4.708   9.733 -0.0626 -0.0313  0.1076
  183loPI   PO4 2916  17.088   5.196   9.558  0.1665  0.1421 -0.1109
  183loPI   GL1 2917  17.159   5.197   9.097 -0.1300 -0.1054 -0.1725
  183loPI   GL2 2918  17.265   5.441   8.976  0.0658 -0.0772 -0.1826
  183loPI   C1A 2919  16.877   5.118   8.679  0.0121 -0.2542 -0.1669
  183loPI   C2A 2920  16.848   5.190   8.251  0.1238  0.2993 -0.0595
  183loPI   C3A 2921  16.740   5.050   7.854 -0.1127 -0.1441  0.0417
  183loPI   C4A 2922  16.596   5.073   7.453 -0.0946 -0.0554 -0.0334
  183loPI   C5A 2923  16.656   4.810   7.097  0.2084  0.1208  0.1909
  183loPI   C6A 2924  16.552   4.415   6.997  0.1180  0.0195  0.0367
  183loPI   C1B 2925  17.272   5.552   8.609 -0.0726  0.1646  0.0637
  183loPI   C2B 2926  17.230   5.576   8.201  0.0021 -0.1758  0.2456
  183loPI   C3B 2927  17.334   5.576   7.833 -0.0584  0.1882 -0.3232
  183loPI   C4B 2928  17.476   5.531   7.455 -0.2266  0.1572  0.1608
  184loPI    C1 2929   1.491   9.780   9.877  0.1775 -0.3312  0.0124
  184loPI    C2 2930   1.587  10.002  10.196 -0.1349  0.1367 -0.2069
  184loPI    C3 2931   1.235   9.812  10.182 -0.0524 -0.0182 -0.2064
  184loPI   PO4 2932   1.702   9.903   9.675  0.0381  0.0010  0.4011
  184loPI   GL1 2933   1.840  10.152   9.445  0.0813 -0.2725 -0.1045
  184loPI   GL2 2934   1.659  10.404   9.468  0.2060  0.4245  0.1177
  184loPI   C1A 2935   1.840   9.879   9.054  0.2401  0.0007 -0.1471
  184loPI   C2A 2936   1.851   9.954   8.700  0.0311 -0.3598 -0.3136
  184loPI   C3A 2937   1.971  10.132   8.334  0.1548 -0.1147  0.1839
  184loPI   C4A 2938   1.887  10.272   7.921 -0.0782  0.2260  0.1566
  184loPI   C5A 2939   2.033  10.468   7.518 -0.1512 -0.2602 -0.2127
  184loPI   C6A 2940   2.205  10.890   7.403  0.1965 -0.0139 -0.3596
  184loPI   C1B 2941   1.693  10.421   9.012 -0.2882  0.2588 -0.1186
  184loPI   C2B 2942   1.568  10.465   8.569  0.2827  0.0283 -0.0167
  184loPI   C3B 2943   1.388  10.545   8.264  0.3234 -0.2088 -0.4918
  184loPI   C4B 2944   1.280  10.774   7.959  0.1778 -0.1399 -0.0962
  185loPI    C1 2945  14.585   1.326  10.316  0.1117  0.1210  0.0848
  185loPI    C2 2946  14.656   1.596  10.603  0.1456 -0.0152  0.2056
  185loPI    C3 2947  14.744   1.211  10.664  0.0052 -0.0699  0.0716
  185loPI   PO4 2948  14.613   1.434  10.029  0.0534 -0.1028 -0.1337
  185loPI   GL1 2949  14.599   1.633   9.707  0.1661  0.2568 -0.1250
  185loPI   GL2 2950  14.783   1.899   9.791  0.1225  0.1051  0.1584
  185loPI   C1A 2951  14.459   1.699   9.398  0.3118 -0.4163  0.1818
  185loPI   C2A 2952  14.512   1.611   9.055 -0.3864  0.2743 -0.2031
  185loPI   C3A 2953  14.622   1.646   8.702 -0.1019 -0.0626 -0.0883
  185loPI   C4A 2954  14.553   1.478   8.189  0.2610  0.0022 -0.2299
  185loPI   C5A 2955  14.599   1.416   7.757 -0.1255 -0.0265 -0.0217
  185loPI   C6A 2956  14.565   1.089   7.411 -0.1654  0.1016 -0.1484
  185loPI   C1B 2957  14.811   2.031   9.306 -0.1740  0.1307  0.3277
  185loPI   C2B 2958  14.868   2.067   8.850  0.0860  0.0662 -0.3817
  185loPI   C3B 2959  14.752   2.040   8.464 -0.0274  0.0230 -0.2288
  185loPI   C4B 2960  14.655   2.042   8.058 -0.2461  0.2197  0.1119
  186loPI    C1 2961  15.741  13.692  10.056  0.0900  0.0947  0.1276
  186loPI    C2 2962  16.109  13.847  10.078  0.0797  0.1138  0.1648
  186loPI    C3 2963  15.932  13.704  10.407  0.0461  0.1225  0.1506
  186loPI   PO4 2964  15.615  13.925   9.891 -0.2693  0.0745 -0.4328
  186loPI   GL1 2965  15.629  14.086   9.493  0.3777 -0.0467  0.0575
  186loPI   GL2 2966  15.816  14.039   9.202 -0.0733  0.2381 -0.1472
  186loPI   C1A 2967  15.375  14.169   9.155  0.0898 -0.0193 -0.3799
  186loPI   C2A 2968  15.406  14.331   8.756 -0.3727 -0.1344 -0.4593
  186loPI   C3A 2969  15.449  14.276   8.397  0.3549  0.0270 -0.2365
  186loPI   C4A 2970  15.420  14.282   7.941  0.1034 -0.0462 -0.0367
  186loPI   C5A 2971  15.108  14.221   7.694 -0.0153  0.2261  0.1762
  186loPI   C6A 2972  14.881  14.016   7.414 -0.0203  0.2750  0.1272
  186loPI   C1B 2973  16.251  13.856   9.172  0.0803 -0.3116  0.0498
  186loPI   C2B 2974  16.613  13.899   8.799  0.1903  0.2210  0.2240
  186loPI   C3B 2975  16.706  14.000   8.371 -0.1889  0.0340 -0.1818
  186loPI   C4B 2976  16.662  14.174   7.931  0.0520 -0.1450  0.1059
  187loPI    C1 2977  18.689   3.248   9.575  0.2715 -0.1856  0.3848
  187loPI    C2 2978  18.293   3.215   9.533  0.2814  0.2351 -0.1563
  187loPI    C3 2979  18.450   3.292   9.892 -0.1413  0.2734  0.0268
  187loPI   PO4 2980  18.744   3.399   9.362 -0.2142  0.5049  0.2216
  187loPI   GL1 2981  18.510   3.521   9.055  0.1948 -0.2886 -0.0248
  187loPI   GL2 2982  18.722   3.672   8.888  0.1384 -0.1691  0.0701
  187loPI   C1A 2983  18.214   3.700   8.731  0.2342  0.1081 -0.1310
  187loPI   C2A 2984  18.051   3.446   8.366 -0.0107 -0.0103 -0.2959
  187loPI   C3A 2985  17.791   3.287   8.085  0.0794  0.3614  0.0652
  187loPI   C4A 2986  17.724   3.182   7.664 -0.2854 -0.3818 -0.2787
  187loPI   C5A 2987  17.756   3.267   7.287 -0.1473  0.0084  0.0426
  187loPI   C6A 2988  17.667   3.115   6.846 -0.1209 -0.0145 -0.0014
  187loPI   C1B 2989  18.945   3.876   8.487 -0.0078  0.1162  0.3501
  187loPI   C2B 2990  19.244   3.951   8.046 -0.1234  0.0066 -0.5403
  187loPI   C3B 2991  19.177   3.858   7.567  0.0285 -0.2217  0.2902
  187loPI   C4B 2992  19.192   3.733   7.186 -0.1208  0.2644 -0.0496
  188loPI    C1 2993   8.901   8.746   9.374  0.3151 -0.2028 -0.1981
  188loPI    C2 2994   8.707   8.906   9.685  0.0987  0.0441 -0.4537
  188loPI    C3 2995   8.886   8.550   9.722  0.1292  0.0979 -0.0323
  188loPI   PO4 2996   9.047   9.050   9.253 -0.0224 -0.0898 -0.1184
  188loPI   GL1 2997   8.918   9.273   8.990  0.0528 -0.1936  0.1098
  188loPI   GL2 2998   9.156   9.443   8.969 -0.1120 -0.0042 -0.0447
  188loPI   C1A 2999   8.724   9.502   8.605 -0.0825  0.0952  0.2813
  188loPI   C2A 3000   8.875   9.408   8.196  0.0016  0.1629 -0.0409
  188loPI   C3A 3001   8.858   9.204   7.793  0.0694 -0.0004 -0.1496
  188loPI   C4A 3002   8.993   9.054   7.417  0.1512  0.2352  0.0380
  188loPI   C5A 3003   8.828   8.948   6.991 -0.0457  0.3254 -0.0685
  188loPI   C6A 3004   8.792   9.269   6.644  0.0726  0.1730 -0.3250
  188loPI   C1B 3005   9.289   9.527   8.614 -0.0681  0.2957  0.2537
  188loPI   C2B 3006   9.447   9.679   8.120  0.0806  0.4252  0.0338
  188loPI   C3B 3007   9.175   9.623   7.805  0.0128 -0.3616  0.0097
  188loPI   C4B 3008   8.862   9.650   7.421  0.0117 -0.0612 -0.0203
  189loPI    C1 3009   8.537   2.671   9.173 -0.2027  0.0886  0.1203
  189loPI    C2 3010   8.396   2.321   9.307 -0.0723 -0.0414 -0.0767
  189loPI    C3 3011   8.656   2.530   9.529 -0.1394 -0.0757  0.0352
  189loPI   PO4 3012   8.634   2.584   8.868 -0.2530  0.3651  0.0465
  189loPI   GL1 3013   8.763   2.397   8.504  0.0109  0.3881 -0.1000
  189loPI   GL2 3014   8.782   2.706   8.339 -0.0734 -0.0537  0.2089
  189loPI   C1A 3015   8.563   2.207   8.114  0.2026 -0.3227  0.0668
  189loPI   C2A 3016   8.710   2.239   7.650  0.1566 -0.2231 -0.1268
  189loPI   C3A 3017   8.584   2.073   7.256 -0.2527  0.0282  0.0454
  189loPI   C4A 3018   8.298   2.172   6.910  0.0288 -0.3361  0.2572
  189loPI   C5A 3019   8.302   2.249   6.494 -0.2098 -0.2957  0.5259
  189loPI   C6A 3020   8.676   2.222   6.168 -0.2437  0.1673 -0.2525
  189loPI   C1B 3021   8.521   2.652   7.966 -0.1644  0.0229 -0.2313
  189loPI   C2B 3022   8.329   2.562   7.525  0.0922 -0.1570 -0.1142
  189loPI   C3B 3023   8.548   2.605   7.106 -0.0934 -0.0197  0.2115
  189loPI   C4B 3024   8.718   2.428   6.670  0.2304 -0.1393  0.4725
  190loPI    C1 3025   7.300  11.332   9.765  0.0807  0.1053  0.2393
  190loPI    C2 3026   7.021  11.558   9.943 -0.2724 -0.1557  0.0310
  190loPI    C3 3027   7.186  11.251  10.140  0.2263  0.2836  0.3234
  190loPI   PO4 3028   7.235  11.370   9.553  0.4593 -0.3147 -0.0833
  190loPI   GL1 3029   7.146  11.471   9.168  0.0154  0.0295  0.3323
  190loPI   GL2 3030   7.415  11.326   9.055 -0.0588 -0.0044  0.2408
  190loPI   C1A 3031   7.005  11.230   8.795  0.1292  0.1170  0.0634
  190loPI   C2A 3032   6.878  11.315   8.398 -0.0310  0.2170  0.0160
  190loPI   C3A 3033   6.937  11.370   8.065 -0.0002 -0.1132  0.1108
  190loPI   C4A 3034   6.539  11.619   7.794 -0.0425  0.1928 -0.1304
  190loPI   C5A 3035   6.479  12.029   7.581 -0.0148 -0.1151  0.2981
  190loPI   C6A 3036   6.542  12.302   7.239 -0.0745  0.1611 -0.2435
  190loPI   C1B 3037   7.604  11.434   8.688  0.0084  0.0078 -0.4420
  190loPI   C2B 3038   7.810  11.437   8.248 -0.0142  0.0066 -0.1035
  190loPI   C3B 3039   7.902  11.501   7.806  0.2471 -0.1729  0.3655
  190loPI   C4B 3040   8.173  11.464   7.372  0.1165  0.2322  0.0983
  191loPI    C1 3041  11.848  19.344   9.734 -0.0300 -0.0754 -0.4545
  191loPI    C2 3042  12.238  19.379   9.655  0.0271  0.2015 -0.0843
  191loPI    C3 3043  12.026  19.702   9.757 -0.1651 -0.0385  0.3003
  191loPI   PO4 3044  11.757  19.115   9.613 -0.1781  0.2883 -0.1155
  191loPI   GL1 3045  11.881  18.944   9.307 -0.1113 -0.0029  0.1820
  191loPI   GL2 3046  11.933  19.199   9.163  0.3644 -0.2326  0.1454
  191loPI   C1A 3047  11.708  18.902   8.833 -0.2839 -0.2279  0.0603
  191loPI   C2A 3048  11.541  18.908   8.365 -0.0742  0.3322 -0.1047
  191loPI   C3A 3049  11.595  19.029   7.822  0.1828 -0.1684  0.1305
  191loPI   C4A 3050  11.650  19.385   7.520  0.0362 -0.0084 -0.2939
  191loPI   C5A 3051  11.450  19.563   7.102  0.0309  0.0082  0.1542
  191loPI   C6A 3052  11.049  19.512   7.104 -0.3434 -0.0500  0.1108
  191loPI   C1B 3053  11.916  19.576   8.834  0.0101  0.0464 -0.2909
  191loPI   C2B 3054  12.012  19.820   8.446  0.4233  0.0191  0.1758
  191loPI   C3B 3055  11.928  20.087   8.162 -0.0662  0.2716  0.1456
  191loPI   C4B 3056  11.998  20.167   7.685 -0.0707 -0.2583  0.0985
  192loPI    C1 3057   3.495   1.454   9.453 -0.0964  0.1481 -0.1084
  192loPI    C2 3058   3.186   1.645   9.621 -0.0503  0.0164  0.1302
  192loPI    C3 3059   3.462   1.470   9.852  0.0943 -0.0404 -0.0834
  192loPI   PO4 3060   3.399   1.301   9.273 -0.0710  0.0930  0.0158
  192loPI   GL1 3061   3.619   1.096   8.792 -0.2069  0.2153  0.4363
  192loPI   GL2 3062   3.355   1.314   8.748 -0.1567 -0.3602  0.3414
  192loPI   C1A 3063   3.580   1.039   8.358 -0.0344  0.1625  0.1262
  192loPI   C2A 3064   3.352   1.128   8.027  0.2703 -0.1185 -0.0939
  192loPI   C3A 3065   3.289   1.202   7.510  0.3422  0.0161  0.0511
  192loPI   C4A 3066   3.580   1.173   7.196  0.0088  0.1382 -0.2753
  192loPI   C5A 3067   3.649   0.843   6.892 -0.1071 -0.1404  0.1816
  192loPI   C6A 3068   3.381   0.553   6.799 -0.0902 -0.2107 -0.0871
  192loPI   C1B 3069   3.025   1.280   8.457  0.2689 -0.0467  0.0864
  192loPI   C2B 3070   2.812   1.231   8.098 -0.3787 -0.1023 -0.0881
  192loPI   C3B 3071   2.710   1.338   7.715  0.2403 -0.0332  0.0718
  192loPI   C4B 3072   2.760   1.349   7.246 -0.1315 -0.1455 -0.2819
  193loPI    C1 3073  16.888   9.044   9.889  0.0157 -0.3599  0.1082
  193loPI    C2 3074  16.637   9.261  10.112  0.0162 -0.1426 -0.0988
  193loPI    C3 3075  16.786   8.918  10.255 -0.0823 -0.0711  0.1827
  193loPI   PO4 3076  16.752   9.042   9.559  0.2034  0.0724  0.1149
  193loPI   GL1 3077  16.895   8.687   9.258 -0.0354  0.0632  0.3615
  193loPI   GL2 3078  17.203   8.764   9.409  0.0630 -0.0921  0.1528
  193loPI   C1A 3079  16.828   8.421   8.855  0.0618  0.1276  0.1358
  193loPI   C2A 3080  16.953   8.423   8.427  0.0509 -0.0562  0.1470
  193loPI   C3A 3081  16.960   8.221   8.078  0.0861  0.2180  0.0729
  193loPI   C4A 3082  16.924   8.267   7.665 -0.2133 -0.0343  0.0069
  193loPI   C5A 3083  16.952   8.146   7.249  0.1747 -0.1842  0.1760
  193loPI   C6A 3084  17.146   8.140   6.870 -0.1285  0.2227  0.1769
  193loPI   C1B 3085  17.048   9.097   9.036  0.0506 -0.0216 -0.1898
  193loPI   C2B 3086  16.963   8.927   8.641 -0.1204  0.2590 -0.2534
  193loPI   C3B 3087  16.644   8.777   8.306 -0.1684  0.3332 -0.0857
  193loPI   C4B 3088  16.812   8.799   7.841  0.0694 -0.0501  0.0463
  194loPI    C1 3089   8.459  18.031   9.887  0.0768  0.1010 -0.0156
  194loPI    C2 3090   8.294  17.698  10.035 -0.2138  0.1524 -0.2149
  194loPI    C3 3091   8.098  18.046  10.058  0.0255  0.2847 -0.1372
  194loPI   PO4 3092   8.529  18.010   9.585 -0.1913 -0.1678 -0.1692
  194loPI   GL1 3093   8.415  17.926   9.107  0.0239 -0.2742 -0.0700
  194loPI   GL2 3094   8.189  18.184   9.068  0.2049  0.1610  0.2009
  194loPI   C1A 3095   8.628  17.895   8.776 -0.1044  0.1780  0.0745
  194loPI   C2A 3096   8.651  17.805   8.321  0.1341  0.0011  0.1854
  194loPI   C3A 3097   8.836  17.646   7.845 -0.0029 -0.0464 -0.0190
  194loPI   C4A 3098   9.030  17.786   7.378  0.0728 -0.1431  0.0343
  194loPI   C5A 3099   9.156  17.968   7.027 -0.1208  0.1370  0.2405
  194loPI   C6A 3100   9.067  18.191   6.682 -0.0748 -0.0553  0.3922
  194loPI   C1B 3101   8.104  18.073   8.606  0.1954  0.0714 -0.0976
  194loPI   C2B 3102   8.251  18.179   8.265  0.0200  0.1436 -0.0799
  194loPI   C3B 3103   8.157  18.076   7.855 -0.0938  0.3114  0.2042
  194loPI   C4B 3104   7.946  18.134   7.406  0.1713 -0.1859  0.0542
  195loPI    C1 3105   4.230  12.537   9.844  0.1520  0.3266 -0.0378
  195loPI    C2 3106   4.244  12.935   9.887  0.2905  0.3370 -0.1697
  195loPI    C3 3107   4.354  12.697  10.189  0.0138  0.3957 -0.0196
  195loPI   PO4 3108   4.320  12.531   9.545 -0.0975 -0.1063  0.1500
  195loPI   GL1 3109   4.452  12.588   9.194 -0.3199 -0.0920  0.0368
  195loPI   GL2 3110   4.658  12.757   9.149  0.5093  0.1874  0.0145
  195loPI   C1A 3111   4.326  12.520   8.732 -0.0911  0.5458  0.1370
  195loPI   C2A 3112   4.302  12.493   8.302  0.0016  0.1295  0.2039
  195loPI   C3A 3113   4.080  12.417   7.914  0.0316  0.1701 -0.0341
  195loPI   C4A 3114   4.215  12.557   7.521  0.0782  0.0119 -0.1796
  195loPI   C5A 3115   4.421  12.696   7.205  0.0416 -0.0106 -0.0544
  195loPI   C6A 3116   4.529  13.083   7.073 -0.3455 -0.2835 -0.4647
  195loPI   C1B 3117   4.848  12.734   8.722  0.1848 -0.2146 -0.0443
  195loPI   C2B 3118   5.228  12.963   8.495  0.0233  0.1059  0.1942
  195loPI   C3B 3119   5.418  13.093   8.077 -0.2458 -0.0990  0.0808
  195loPI   C4B 3120   5.350  12.862   7.729  0.0538  0.0960 -0.1703
  196loPI    C1 3121   5.385  16.835   9.482 -0.2068 -0.0970  0.1078
  196loPI    C2 3122   5.518  16.889   9.855 -0.1183  0.0807  0.0517
  196loPI    C3 3123   5.126  16.846   9.787 -0.1432  0.1386  0.1554
  196loPI   PO4 3124   5.576  16.775   9.359  0.1892 -0.1248 -0.0756
  196loPI   GL1 3125   5.775  16.650   8.967 -0.1399  0.0461  0.2779
  196loPI   GL2 3126   5.451  16.921   8.802  0.3023  0.1327  0.2238
  196loPI   C1A 3127   6.011  16.619   8.474 -0.0904  0.2497 -0.1161
  196loPI   C2A 3128   6.159  16.574   8.048 -0.0276  0.0112 -0.3265
  196loPI   C3A 3129   6.132  16.206   7.720 -0.2180 -0.0946 -0.0686
  196loPI   C4A 3130   5.976  15.979   7.304  0.3568  0.0447  0.1666
  196loPI   C5A 3131   6.136  15.580   7.086 -0.0484 -0.0602 -0.0524
  196loPI   C6A 3132   6.514  15.315   7.054 -0.2355 -0.3279 -0.0679
  196loPI   C1B 3133   5.534  16.733   8.455  0.1904  0.1435  0.2421
  196loPI   C2B 3134   5.627  16.729   8.010 -0.3223 -0.1538 -0.1000
  196loPI   C3B 3135   5.949  16.813   7.639 -0.1259 -0.0981 -0.1083
  196loPI   C4B 3136   6.015  16.961   7.093  0.1316 -0.0957  0.0987
  197loPI    C1 3137   4.354  16.293   9.890  0.1748 -0.0028 -0.0580
  197loPI    C2 3138   4.082  16.484  10.112  0.0068 -0.2019 -0.0891
  197loPI    C3 3139   4.453  16.431  10.252 -0.1003 -0.3357  0.1506
  197loPI   PO4 3140   4.414  16.415   9.618  0.1929  0.0477  0.4653
  197loPI   GL1 3141   4.297  16.517   9.147 -0.1701  0.2108 -0.4428
  197loPI   GL2 3142   4.037  16.362   9.225 -0.1566  0.0841  0.0634
  197loPI   C1A 3143   4.369  16.381   8.776  0.0309 -0.4111  0.0535
  197loPI   C2A 3144   4.534  16.484   8.413  0.0722 -0.2216  0.2961
  197loPI   C3A 3145   4.344  16.511   7.990  0.1165 -0.2428  0.1096
  197loPI   C4A 3146   4.535  16.497   7.608 -0.1046 -0.3724 -0.0298
  197loPI   C5A 3147   4.562  16.425   7.094  0.2560 -0.0791  0.1387
  197loPI   C6A 3148   4.378  16.107   6.793 -0.0849 -0.2708 -0.1135
  197loPI   C1B 3149   3.798  16.333   8.848  0.1361  0.3480  0.1481
  197loPI   C2B 3150   3.416  16.136   8.528  0.0205 -0.2230  0.1208
  197loPI   C3B 3151   3.318  15.748   8.414  0.1081 -0.0643  0.1162
  197loPI   C4B 3152   2.987  15.600   8.180  0.0388  0.0069  0.0025
  198loPI    C1 3153   8.473  13.745  10.309 -0.0480 -0.0529 -0.0370
  198loPI    C2 3154   8.825  13.557  10.285 -0.0380 -0.0439  0.0356
  198loPI    C3 3155   8.756  13.815  10.583 -0.0146  0.1452 -0.1200
  198loPI   PO4 3156   8.404  13.905  10.069 -0.2521  0.0914  0.1024
  198loPI   GL1 3157   8.388  13.981   9.640  0.3013  0.1106 -0.0572
  198loPI   GL2 3158   8.683  13.845   9.498 -0.0225  0.0976  0.0321
  198loPI   C1A 3159   8.303  14.013   9.228  0.0946  0.0979 -0.2549
  198loPI   C2A 3160   8.466  13.910   8.855 -0.0846 -0.0584 -0.0232
  198loPI   C3A 3161   8.754  13.896   8.489 -0.1259  0.0301 -0.0574
  198loPI   C4A 3162   8.795  13.719   8.093 -0.0507  0.1720 -0.3003
  198loPI   C5A 3163   8.489  13.877   7.821  0.0434  0.0981 -0.0076
  198loPI   C6A 3164   8.561  13.928   7.476 -0.3426  0.5359  0.2233
  198loPI   C1B 3165   8.826  13.623   9.167  0.0077  0.1910 -0.3250
  198loPI   C2B 3166   8.802  13.298   8.865 -0.0406 -0.4072 -0.0065
  198loPI   C3B 3167   8.849  13.329   8.430  0.2196 -0.2067 -0.0890
  198loPI   C4B 3168   8.863  13.222   7.973 -0.3377 -0.3829 -0.1520
  199loPI    C1 3169   1.615   5.555   9.758  0.0302 -0.0681 -0.1256
  199loPI    C2 3170   1.337   5.602  10.042  0.0541  0.0274 -0.1175
  199loPI    C3 3171   1.711   5.729  10.105 -0.0273  0.3858 -0.3302
  199loPI   PO4 3172   1.588   5.583   9.561  0.0908 -0.1655  0.0641
  199loPI   GL1 3173   1.397   5.366   9.086 -0.0508 -0.0370 -0.2975
  199loPI   GL2 3174   1.142   5.478   9.154  0.1342 -0.0106  0.0619
  199loPI   C1A 3175   1.278   5.101   8.733  0.1791 -0.0142  0.0323
  199loPI   C2A 3176   1.183   5.257   8.303 -0.1935  0.1938 -0.0699
  199loPI   C3A 3177   1.169   5.255   7.864 -0.0961 -0.3257 -0.1169
  199loPI   C4A 3178   0.829   5.212   7.709 -0.1651 -0.0491  0.1483
  199loPI   C5A 3179   0.702   5.258   7.281  0.0334 -0.1828  0.2694
  199loPI   C6A 3180   0.549   5.536   7.022 -0.0865 -0.2594 -0.0480
  199loPI   C1B 3181   0.923   5.442   8.798  0.1606 -0.1038 -0.0091
  199loPI   C2B 3182   0.762   5.067   8.528 -0.1801  0.1342 -0.2227
  199loPI   C3B 3183   0.885   4.741   8.235  0.0835  0.0056  0.1453
  199loPI   C4B 3184   0.946   4.385   8.108  0.2370 -0.1615  0.2223
  200loPI    C1 3185   0.722   6.817   9.330  0.0843 -0.0478 -0.0335
  200loPI    C2 3186   0.877   7.148   9.493  0.1842 -0.1954  0.1750
  200loPI    C3 3187   0.601   6.937   9.692  0.0789 -0.2071  0.0183
  200loPI   PO4 3188   0.843   6.915   9.036  0.1417 -0.1776  0.0879
  200loPI   GL1 3189   0.810   6.879   8.583  0.1588  0.1568  0.3256
  200loPI   GL2 3190   0.627   7.011   8.371 -0.3988 -0.1124  0.2658
  200loPI   C1A 3191   0.823   7.373   8.552 -0.2493 -0.2326  0.2611
  200loPI   C2A 3192   0.993   7.626   8.442 -0.0579 -0.2986 -0.0341
  200loPI   C3A 3193   1.008   7.792   8.043 -0.0983  0.0317  0.0040
  200loPI   C4A 3194   0.759   8.027   7.679  0.2301  0.0817 -0.0935
  200loPI   C5A 3195   0.809   8.166   7.247 -0.0420 -0.0300  0.0646
  200loPI   C6A 3196   0.826   8.169   6.758  0.0645 -0.2343 -0.0735
  200loPI   C1B 3197   0.632   7.470   8.120  0.3150 -0.0931  0.2398
  200loPI   C2B 3198   0.459   7.600   7.719  0.0096 -0.2183 -0.0779
  200loPI   C3B 3199   0.487   7.803   7.330  0.0881 -0.0115  0.0627
  200loPI   C4B 3200   0.396   8.133   7.044 -0.1840  0.1233  0.3110
  201loPI    C1 3201   1.216  14.697   9.963  0.0670  0.1329 -0.0728
  201loPI    C2 3202   1.143  14.902  10.298  0.2746 -0.0497  0.0864
  201loPI    C3 3203   1.320  15.083   9.988  0.0473  0.1300  0.0588
  201loPI   PO4 3204   0.931  14.661   9.951 -0.1448  0.1270 -0.1748
  201loPI   GL1 3205   0.540  14.690   9.741  0.0582 -0.3069  0.0381
  201loPI   GL2 3206   0.573  14.594   9.425 -0.1349  0.0083  0.3939
  201loPI   C1A 3207   0.433  15.054   9.467  0.2395 -0.0059 -0.0048
  201loPI   C2A 3208   0.364  14.966   8.983 -0.1161  0.1422  0.1506
  201loPI   C3A 3209   0.324  14.908   8.633  0.1112 -0.1146  0.2746
  201loPI   C4A 3210   0.248  14.982   8.251  0.1485  0.2826 -0.4512
  201loPI   C5A 3211   0.262  15.101   7.803 -0.1698  0.3199 -0.0041
  201loPI   C6A 3212   0.469  14.990   7.473  0.0413  0.1816  0.1493
  201loPI   C1B 3213   0.620  14.539   8.891 -0.2858 -0.3283 -0.3031
  201loPI   C2B 3214   0.520  14.425   8.469  0.1834 -0.3666 -0.2391
  201loPI   C3B 3215   0.463  14.234   7.987 -0.1191  0.2469  0.1290
  201loPI   C4B 3216   0.699  14.163   7.638 -0.0597  0.2475  0.0112
  202loPI    C1 3217  18.252   1.459   9.676 -0.2720  0.4810  0.1853
  202loPI    C2 3218  17.944   1.305   9.879 -0.1797 -0.0765 -0.0785
  202loPI    C3 3219  18.295   1.365  10.062 -0.3266  0.1910  0.1228
  202loPI   PO4 3220  18.131   1.554   9.522 -0.2998 -0.1123 -0.0358
  202loPI   GL1 3221  18.327   1.796   9.077 -0.0259  0.0759 -0.0422
  202loPI   GL2 3222  18.113   2.003   8.926 -0.2565  0.3390  0.1962
  202loPI   C1A 3223  18.116   1.506   8.783  0.1176 -0.1953 -0.0150
  202loPI   C2A 3224  17.834   1.335   8.535  0.0218 -0.2675  0.0088
  202loPI   C3A 3225  17.683   1.101   8.245  0.2211 -0.0114  0.0074
  202loPI   C4A 3226  17.626   1.186   7.882 -0.1075 -0.0936  0.0352
  202loPI   C5A 3227  17.492   1.108   7.600  0.2062  0.4024 -0.0324
  202loPI   C6A 3228  17.284   0.904   7.200  0.0766 -0.2528 -0.5833
  202loPI   C1B 3229  18.155   1.968   8.440  0.0726  0.1270  0.2413
  202loPI   C2B 3230  18.267   1.927   8.019  0.1308 -0.0844  0.2093
  202loPI   C3B 3231  18.147   1.917   7.597 -0.2345  0.2409 -0.1394
  202loPI   C4B 3232  18.195   2.178   7.214  0.2436 -0.0450 -0.0792
  203loPI    C1 3233   5.155   4.586   8.987  0.1118  0.2650 -0.0939
  203loPI    C2 3234   4.962   4.716   9.313  0.1288  0.2232 -0.0671
  203loPI    C3 3235   5.277   4.472   9.350 -0.0164  0.0239 -0.1241
  203loPI   PO4 3236   4.980   4.400   8.745 -0.1479  0.1068  0.2362
  203loPI   GL1 3237   4.726   4.532   8.472 -0.3655 -0.2601 -0.4304
  203loPI   GL2 3238   4.455   4.804   8.415 -0.0371 -0.1239  0.0095
  203loPI   C1A 3239   4.908   4.671   8.067  0.1759 -0.1281 -0.0114
  203loPI   C2A 3240   4.830   4.677   7.657  0.1459 -0.1630 -0.1284
  203loPI   C3A 3241   4.933   4.774   7.230 -0.1450  0.2827 -0.1784
  203loPI   C4A 3242   4.638   4.956   6.877 -0.0047  0.0349 -0.1050
  203loPI   C5A 3243   4.480   4.891   6.446  0.1766 -0.0305 -0.0996
  203loPI   C6A 3244   4.098   4.839   6.129  0.1437  0.1450 -0.2867
  203loPI   C1B 3245   4.424   4.617   8.033  0.1655 -0.1622 -0.0778
  203loPI   C2B 3246   4.312   4.626   7.612  0.1601  0.0578  0.3804
  203loPI   C3B 3247   4.415   4.612   7.233 -0.0973  0.2689  0.4136
  203loPI   C4B 3248   4.437   4.498   6.770 -0.0053  0.2415  0.0885
  204loPI    C1 3249   3.673  12.747   9.877  0.2102  0.0872 -0.0218
  204loPI    C2 3250   3.843  12.777  10.237  0.1032 -0.0611  0.0424
  204loPI    C3 3251   3.519  12.548  10.188  0.3035 -0.2961 -0.2139
  204loPI   PO4 3252   3.731  13.012   9.787  0.0920 -0.0323  0.1884
  204loPI   GL1 3253   3.820  13.195   9.397  0.0610 -0.0716  0.1817
  204loPI   GL2 3254   4.076  12.969   9.376  0.2679 -0.0181 -0.2714
  204loPI   C1A 3255   3.798  13.359   8.991 -0.1164 -0.3124  0.0232
  204loPI   C2A 3256   4.033  13.325   8.633  0.2177 -0.0392  0.2750
  204loPI   C3A 3257   3.937  13.245   8.221  0.0094 -0.3243  0.0234
  204loPI   C4A 3258   4.081  13.197   7.792 -0.1568  0.0673  0.1331
  204loPI   C5A 3259   4.149  13.088   7.377 -0.1930  0.1508  0.0214
  204loPI   C6A 3260   3.870  12.706   7.131  0.3047  0.0215  0.1185
  204loPI   C1B 3261   3.996  12.808   9.042 -0.0295  0.0119  0.1165
  204loPI   C2B 3262   3.911  12.836   8.550 -0.2760  0.2349  0.1536
  204loPI   C3B 3263   3.789  12.767   8.015 -0.1191 -0.0970  0.0555
  204loPI   C4B 3264   3.794  12.787   7.631  0.0746  0.1142  0.0302
  205loPI    C1 3265  15.669  16.179  10.277 -0.2045  0.0157 -0.2811
  205loPI    C2 3266  15.677  16.529  10.471 -0.0662 -0.0909 -0.0919
  205loPI    C3 3267  15.486  16.216  10.630  0.2040 -0.2305 -0.0365
  205loPI   PO4 3268  15.898  16.083  10.121  0.0583  0.0108 -0.3395
  205loPI   GL1 3269  15.748  15.984   9.670  0.1558 -0.1749  0.1098
  205loPI   GL2 3270  15.492  16.159   9.648  0.2351 -0.3782 -0.0787
  205loPI   C1A 3271  15.903  15.943   9.247 -0.1275 -0.1833  0.0890
  205loPI   C2A 3272  15.968  15.661   8.934 -0.1643  0.1197  0.0856
  205loPI   C3A 3273  15.947  15.670   8.488 -0.1533 -0.0270 -0.1232
  205loPI   C4A 3274  15.896  15.470   8.023  0.2340 -0.1420  0.2681
  205loPI   C5A 3275  15.767  15.381   7.638  0.0451  0.1102 -0.2753
  205loPI   C6A 3276  15.357  15.209   7.417 -0.4116  0.2343 -0.1525
  205loPI   C1B 3277  15.558  16.241   9.149  0.0872 -0.0945 -0.1127
  205loPI   C2B 3278  15.716  16.067   8.711  0.3618  0.0549 -0.1620
  205loPI   C3B 3279  15.715  16.061   8.272 -0.1854 -0.3399 -0.1310
  205loPI   C4B 3280  15.642  15.907   7.876 -0.3027 -0.0218 -0.0405
  206loPI    C1 3281   2.184   4.759   9.296 -0.1253 -0.0503 -0.0862
  206loPI    C2 3282   1.929   4.758   9.605 -0.1005 -0.1501 -0.0655
  206loPI    C3 3283   2.212   5.040   9.579 -0.3879  0.1291 -0.2346
  206loPI   PO4 3284   2.051   4.825   9.109  0.2516 -0.0089  0.3406
  206loPI   GL1 3285   2.177   4.816   8.736 -0.0778  0.0212 -0.1828
  206loPI   GL2 3286   2.369   4.706   8.674 -0.2287  0.1126 -0.1290
  206loPI   C1A 3287   1.820   4.789   8.368 -0.1011  0.4230  0.0221
  206loPI   C2A 3288   1.686   4.514   7.931  0.0301 -0.2125 -0.0162
  206loPI   C3A 3289   1.655   4.472   7.544 -0.0614 -0.0971 -0.0794
  206loPI   C4A 3290   1.834   4.453   7.081  0.0537  0.1346 -0.0379
  206loPI   C5A 3291   1.943   4.135   6.822  0.3467 -0.1386  0.1778
  206loPI   C6A 3292   2.130   3.812   6.655  0.0232  0.0184 -0.0216
  206loPI   C1B 3293   2.470   5.031   8.396 -0.0995 -0.2198  0.2026
  206loPI   C2B 3294   2.543   5.289   8.087  0.2887  0.1540 -0.0006
  206loPI   C3B 3295   2.512   5.137   7.620  0.1864  0.0543  0.1557
  206loPI   C4B 3296   2.602   4.963   7.159 -0.0769 -0.0903 -0.0884
  207loPI    C1 3297  11.485  12.913   9.962  0.1751 -0.1076  0.2302
  207loPI    C2 3298  11.475  13.278   9.797  0.1192 -0.2480 -0.0853
  207loPI    C3 3299  11.804  13.153   9.987  0.1975 -0.0955 -0.1193
  207loPI   PO4 3300  11.171  12.845   9.943 -0.0091  0.2646  0.1177
  207loPI   GL1 3301  10.998  12.761   9.457  0.0750  0.0072 -0.2048
  207loPI   GL2 3302  11.253  12.805   9.441 -0.2057 -0.3115 -0.2272
  207loPI   C1A 3303  11.158  12.362   9.195  0.0776  0.0575 -0.3315
  207loPI   C2A 3304  11.307  12.280   8.860 -0.0263 -0.2078 -0.0797
  207loPI   C3A 3305  11.592  12.281   8.472 -0.1752  0.0013 -0.2373
  207loPI   C4A 3306  11.973  12.429   8.231  0.2808 -0.4109 -0.4648
  207loPI   C5A 3307  11.967  12.522   7.771  0.2215  0.0056 -0.0956
  207loPI   C6A 3308  12.316  12.676   7.546  0.3445 -0.0783  0.1758
  207loPI   C1B 3309  11.218  12.875   9.021  0.3606  0.1279  0.2236
  207loPI   C2B 3310  11.203  12.820   8.596 -0.2204 -0.0539  0.2270
  207loPI   C3B 3311  11.331  12.614   8.169 -0.2956  0.0332 -0.0456
  207loPI   C4B 3312  11.502  12.293   7.940  0.1653 -0.2781  0.1535
  208loPI    C1 3313   6.898   7.378   9.025 -0.0590 -0.1525  0.1015
  208loPI    C2 3314   6.763   7.646   9.289 -0.2377 -0.1256 -0.0151
  208loPI    C3 3315   6.829   7.268   9.403 -0.4453 -0.1475  0.0369
  208loPI   PO4 3316   6.929   7.495   8.781 -0.0624  0.0793  0.0647
  208loPI   GL1 3317   6.629   7.504   8.454  0.1693 -0.2892 -0.0586
  208loPI   GL2 3318   6.778   7.227   8.291  0.3711  0.3975  0.0892
  208loPI   C1A 3319   6.483   7.885   8.128  0.2140  0.1846 -0.0007
  208loPI   C2A 3320   6.368   8.029   7.792  0.1369 -0.1802 -0.1040
  208loPI   C3A 3321   6.290   8.017   7.389 -0.2047 -0.0934  0.2647
  208loPI   C4A 3322   6.239   8.035   6.983 -0.0399 -0.3080  0.1086
  208loPI   C5A 3323   6.087   7.725   6.740 -0.1600 -0.1744 -0.2818
  208loPI   C6A 3324   6.068   7.550   6.338 -0.1965 -0.1346  0.0030
  208loPI   C1B 3325   6.673   7.240   7.867  0.3654 -0.0591 -0.1356
  208loPI   C2B 3326   6.465   7.400   7.389 -0.2785 -0.2523 -0.1489
  208loPI   C3B 3327   6.481   7.444   6.992  0.0759 -0.0581 -0.0286
  208loPI   C4B 3328   6.270   7.187   6.620 -0.2530 -0.2656 -0.4989
  209loPI    C1 3329   2.736  13.599   9.888  0.0655  0.2075 -0.0080
  209loPI    C2 3330   2.786  13.895  10.153 -0.1175 -0.1724  0.4672
  209loPI    C3 3331   2.432  13.844   9.973  0.0915  0.2730 -0.1023
  209loPI   PO4 3332   2.949  13.587   9.772  0.1701  0.1611  0.1806
  209loPI   GL1 3333   2.985  13.410   9.385  0.0870 -0.1931  0.0629
  209loPI   GL2 3334   3.329  13.410   9.401 -0.0984  0.1957  0.1525
  209loPI   C1A 3335   2.976  13.574   9.013  0.3837  0.0037 -0.0940
  209loPI   C2A 3336   3.061  13.883   8.773  0.3103  0.0408 -0.2099
  209loPI   C3A 3337   2.978  13.912   8.288 -0.0216 -0.1568  0.0911
  209loPI   C4A 3338   2.850  14.014   7.881 -0.0123 -0.0438 -0.2461
  209loPI   C5A 3339   2.959  14.046   7.542  0.1609  0.2429 -0.2505
  209loPI   C6A 3340   3.149  14.044   7.231 -0.1368 -0.0694  0.4297
  209loPI   C1B 3341   3.251  13.137   9.057  0.2774  0.1333  0.1380
  209loPI   C2B 3342   3.254  13.142   8.690 -0.1628 -0.1811 -0.0049
  209loPI   C3B 3343   3.408  13.146   8.278 -0.0759 -0.2159 -0.0339
  209loPI   C4B 3344   3.530  13.296   7.797 -0.1077  0.1039  0.5206
  210loPI    C1 3345  14.262   3.387  10.018  0.1472  0.0657 -0.2069
  210loPI    C2 3346  14.138   3.742  10.154 -0.1154 -0.0228 -0.2100
  210loPI    C3 3347  13.881   3.436  10.130  0.1621 -0.2784  0.0090
  210loPI   PO4 3348  14.351   3.298   9.700  0.0351  0.0099  0.2432
  210loPI   GL1 3349  14.611   3.019   9.630  0.4205 -0.1239 -0.0077
  210loPI   GL2 3350  14.832   3.316   9.613  0.0310 -0.2749  0.3260
  210loPI   C1A 3351  14.720   2.864   9.307 -0.1014  0.0804  0.1089
  210loPI   C2A 3352  14.853   2.910   8.933  0.0115 -0.0873  0.1674
  210loPI   C3A 3353  14.896   2.945   8.430  0.0130 -0.0536 -0.0730
  210loPI   C4A 3354  14.773   3.007   8.002 -0.1535 -0.1897 -0.1750
  210loPI   C5A 3355  14.543   3.225   7.753 -0.1056  0.5885  0.2461
  210loPI   C6A 3356  14.327   3.253   7.406 -0.1423 -0.1285 -0.3480
  210loPI   C1B 3357  15.063   3.278   9.211  0.1585  0.2696 -0.0012
  210loPI   C2B 3358  15.144   3.376   8.763 -0.2002  0.0686 -0.1326
  210loPI   C3B 3359  15.252   3.349   8.297 -0.1641 -0.0756 -0.1302
  210loPI   C4B 3360  15.145   3.308   7.767 -0.2246 -0.4144 -0.1972
  211loPI    C1 3361  14.551  13.424  10.418  0.0206  0.1069 -0.0954
  211loPI    C2 3362  14.391  13.575  10.752  0.0947 -0.0231 -0.0001
  211loPI    C3 3363  14.313  13.197  10.647 -0.1408  0.0973 -0.2702
  211loPI   PO4 3364  14.519  13.663  10.174  0.1687  0.2506  0.1882
  211loPI   GL1 3365  14.524  13.828   9.670 -0.2298  0.0099  0.1802
  211loPI   GL2 3366  14.685  14.153   9.697  0.1264 -0.0664  0.3165
  211loPI   C1A 3367  14.408  13.899   9.292 -0.1993  0.2758  0.1395
  211loPI   C2A 3368  14.461  14.098   8.868 -0.3468 -0.1698  0.0925
  211loPI   C3A 3369  14.404  14.046   8.424  0.2801 -0.0153  0.3146
  211loPI   C4A 3370  14.414  14.009   8.047 -0.0382 -0.0776  0.0834
  211loPI   C5A 3371  14.472  14.158   7.635 -0.0362 -0.3237 -0.0565
  211loPI   C6A 3372  14.783  14.482   7.447  0.0014 -0.0013  0.3055
  211loPI   C1B 3373  14.790  14.221   9.341 -0.0546  0.2525 -0.0773
  211loPI   C2B 3374  14.904  14.333   8.888  0.1474  0.5026 -0.0233
  211loPI   C3B 3375  14.907  14.446   8.422 -0.2584  0.0457  0.1760
  211loPI   C4B 3376  14.790  14.423   8.114  0.1940  0.0163 -0.1700
  212loPI    C1 3377  14.936   8.955   9.622 -0.0671  0.2268 -0.0109
  212loPI    C2 3378  14.866   9.310   9.792 -0.1877  0.1370  0.1293
  212loPI    C3 3379  14.724   8.976   9.960  0.2075 -0.0103  0.1812
  212loPI   PO4 3380  14.852   8.950   9.366  0.0367  0.2350  0.0961
  212loPI   GL1 3381  14.762   8.877   8.931 -0.2467  0.0356 -0.2246
  212loPI   GL2 3382  15.055   8.780   8.758 -0.0474 -0.3189 -0.2334
  212loPI   C1A 3383  14.671   8.828   8.392  0.2813  0.1195 -0.0563
  212loPI   C2A 3384  14.598   8.642   7.922  0.0808  0.4516  0.0524
  212loPI   C3A 3385  14.711   8.571   7.576  0.0371 -0.0169 -0.1403
  212loPI   C4A 3386  14.494   8.493   7.221  0.1351 -0.2247 -0.1328
  212loPI   C5A 3387  14.141   8.609   6.944 -0.0438 -0.1388  0.1751
  212loPI   C6A 3388  13.832   8.987   6.744 -0.1538 -0.1044 -0.0062
  212loPI   C1B 3389  15.154   8.547   8.359  0.0259  0.1305 -0.2534
  212loPI   C2B 3390  15.157   8.666   7.933  0.3414 -0.1668  0.0402
  212loPI   C3B 3391  14.946   9.008   7.693  0.1339  0.0440 -0.1001
  212loPI   C4B 3392  14.437   8.959   7.554  0.0382  0.1330  0.5677
  213loPI    C1 3393   1.388   0.037   9.893  0.0532 -0.1907  0.1614
  213loPI    C2 3394   1.711   0.071   9.660  0.0203 -0.0023  0.1415
  213loPI    C3 3395   1.709   0.237  10.023 -0.1337  0.1874  0.0559
  213loPI   PO4 3396   1.197   0.084   9.627 -0.3143  0.1867  0.2124
  213loPI   GL1 3397   1.241   0.058   9.193  0.0357 -0.0010  0.1900
  213loPI   GL2 3398   1.381  -0.276   9.127  0.2891 -0.1385 -0.1980
  213loPI   C1A 3399   0.891   0.159   8.955  0.0939  0.2663  0.2857
  213loPI   C2A 3400   0.951   0.084   8.408  0.3914 -0.0619 -0.1394
  213loPI   C3A 3401   1.084   0.090   7.972  0.0818 -0.3118  0.1344
  213loPI   C4A 3402   1.422   0.113   7.621  0.1238 -0.1968 -0.1043
  213loPI   C5A 3403   1.600   0.141   7.238  0.0055 -0.1072  0.0755
  213loPI   C6A 3404   1.630   0.396   6.964  0.1005 -0.4634  0.3550
  213loPI   C1B 3405   1.289  -0.339   8.721 -0.1483  0.2296  0.4612
  213loPI   C2B 3406   1.196  -0.416   8.241 -0.4264  0.1437 -0.0130
  213loPI   C3B 3407   1.197  -0.446   7.788 -0.0527 -0.3472 -0.0889
  213loPI   C4B 3408   1.335  -0.338   7.368 -0.3409 -0.0937 -0.1190
  214loPI    C1 3409   9.484  15.848   9.489  0.2237 -0.1407  0.0078
  214loPI    C2 3410   9.249  16.170   9.459 -0.0585 -0.3547 -0.1255
  214loPI    C3 3411   9.231  15.940   9.785  0.3946 -0.0486  0.1273
  214loPI   PO4 3412   9.660  15.962   9.253  0.1421  0.0321  0.0912
  214loPI   GL1 3413   9.826  16.014   8.903 -0.3226  0.0778  0.4379
  214loPI   GL2 3414   9.932  16.303   9.088  0.0364  0.2280 -0.2339
  214loPI   C1A 3415  10.020  15.847   8.594  0.1875  0.0853 -0.1719
  214loPI   C2A 3416  10.289  15.872   8.292 -0.0274 -0.2973 -0.2238
  214loPI   C3A 3417  10.633  16.051   8.019  0.0778  0.1257 -0.1573
  214loPI   C4A 3418  10.925  16.244   7.714 -0.1705 -0.2571  0.2520
  214loPI   C5A 3419  11.344  16.459   7.776 -0.1243  0.0663 -0.1132
  214loPI   C6A 3420  11.826  16.302   8.049 -0.0025  0.1356 -0.0295
  214loPI   C1B 3421  10.065  16.409   8.661  0.0114 -0.0090 -0.1461
  214loPI   C2B 3422  10.198  16.330   8.149 -0.1527 -0.4800 -0.1391
  214loPI   C3B 3423  10.441  16.469   7.783  0.2906 -0.6488  0.0967
  214loPI   C4B 3424  10.560  16.858   7.530  0.0514 -0.3768  0.0443
  215loPI    C1 3425  10.729   8.587   9.374 -0.0420 -0.0925 -0.0892
  215loPI    C2 3426  10.632   8.260   9.165 -0.1617  0.0489 -0.2582
  215loPI    C3 3427  10.849   8.227   9.500 -0.1552 -0.2005 -0.2852
  215loPI   PO4 3428  10.826   8.727   9.212  0.0512 -0.2362 -0.0395
  215loPI   GL1 3429  10.891   8.856   8.809 -0.1047  0.0497  0.1066
  215loPI   GL2 3430  11.172   8.856   8.739  0.2539 -0.0723 -0.0134
  215loPI   C1A 3431  10.533   8.967   8.569  0.0760 -0.2004 -0.1465
  215loPI   C2A 3432  10.374   8.850   8.154 -0.1010  0.1093  0.2518
  215loPI   C3A 3433  10.513   8.428   7.987  0.0244  0.1305 -0.0500
  215loPI   C4A 3434  10.731   8.525   7.684  0.1907  0.0427  0.3209
  215loPI   C5A 3435  11.054   8.320   7.391  0.2155 -0.1158 -0.1054
  215loPI   C6A 3436  11.255   8.000   7.501  0.1195 -0.0293  0.1584
  215loPI   C1B 3437  11.271   8.997   8.384  0.0929 -0.0315 -0.0873
  215loPI   C2B 3438  11.351   9.289   8.066 -0.3252 -0.0750  0.3516
  215loPI   C3B 3439  11.101   9.337   7.610  0.0079  0.1083  0.0825
  215loPI   C4B 3440  10.996   9.324   7.182  0.0823 -0.2390 -0.0249
  216loPI    C1 3441   7.139  12.069  10.082  0.0146  0.2035  0.0457
  216loPI    C2 3442   7.046  12.420   9.913  0.0244  0.2762  0.1900
  216loPI    C3 3443   7.069  12.389  10.311  0.4864  0.2276  0.1651
  216loPI   PO4 3444   7.453  11.901   9.866 -0.3761 -0.1800  0.2549
  216loPI   GL1 3445   7.571  11.710   9.493 -0.0361 -0.0435 -0.1587
  216loPI   GL2 3446   7.738  11.369   9.435  0.2224 -0.1819  0.2213
  216loPI   C1A 3447   7.414  11.876   9.114 -0.1426 -0.1466 -0.1894
  216loPI   C2A 3448   7.209  11.723   8.758  0.0832  0.0112  0.0245
  216loPI   C3A 3449   7.272  11.685   8.236  0.1037 -0.1028  0.2493
  216loPI   C4A 3450   7.178  11.748   7.799  0.3029 -0.1532 -0.0805
  216loPI   C5A 3451   7.531  11.954   7.547 -0.2764 -0.1422  0.0845
  216loPI   C6A 3452   7.556  12.274   7.260  0.1064  0.3130  0.2183
  216loPI   C1B 3453   7.883  11.123   9.000  0.0091  0.0220  0.1002
  216loPI   C2B 3454   7.922  11.017   8.559 -0.1967  0.3485  0.0172
  216loPI   C3B 3455   7.937  10.930   8.115 -0.0534 -0.0251  0.2069
  216loPI   C4B 3456   7.791  10.989   7.642  0.0903  0.1143 -0.2174
  217loPI    C1 3457   2.539  16.714   9.733  0.0651 -0.0010  0.2613
  217loPI    C2 3458   2.244  16.968   9.638  0.1395 -0.0169 -0.0235
  217loPI    C3 3459   2.344  16.910  10.022 -0.1936  0.0253  0.0724
  217loPI   PO4 3460   2.553  16.482   9.632  0.1300 -0.0675  0.0187
  217loPI   GL1 3461   2.519  16.283   9.193 -0.1918 -0.1393 -0.1926
  217loPI   GL2 3462   2.664  16.460   8.962 -0.0549 -0.2184  0.1217
  217loPI   C1A 3463   2.412  15.982   9.021 -0.2552  0.1834  0.2339
  217loPI   C2A 3464   2.093  15.871   8.872  0.3932 -0.1134  0.2045
  217loPI   C3A 3465   1.769  15.786   8.505 -0.0717 -0.0442 -0.3513
  217loPI   C4A 3466   1.660  16.015   8.172  0.1254 -0.0450  0.0547
  217loPI   C5A 3467   1.421  15.948   7.820  0.2931  0.0759 -0.1667
  217loPI   C6A 3468   1.122  15.747   7.734  0.0244  0.0841  0.2502
  217loPI   C1B 3469   2.892  16.724   8.640  0.2010 -0.0323 -0.0322
  217loPI   C2B 3470   2.918  16.807   8.171  0.1373  0.0645 -0.0746
  217loPI   C3B 3471   2.830  16.938   7.797  0.3433  0.2819  0.3049
  217loPI   C4B 3472   2.516  16.971   7.606 -0.2312 -0.2771 -0.3520
  218loPI    C1 3473  15.502  10.840   9.901 -0.0993 -0.0911  0.0434
  218loPI    C2 3474  15.901  10.875   9.897 -0.1047 -0.0199  0.1163
  218loPI    C3 3475  15.690  11.020  10.205 -0.1902 -0.0236  0.0597
  218loPI   PO4 3476  15.516  10.814   9.588 -0.3787 -0.0019 -0.4168
  218loPI   GL1 3477  15.455  10.642   9.208  0.0842  0.1038  0.1109
  218loPI   GL2 3478  15.093  10.888   9.233  0.1913 -0.1240 -0.1510
  218loPI   C1A 3479  15.189  10.598   8.844  0.4848  0.1950 -0.1937
  218loPI   C2A 3480  15.119  10.427   8.414 -0.2448 -0.0846  0.3313
  218loPI   C3A 3481  15.147  10.646   7.984  0.2635  0.1145  0.0097
  218loPI   C4A 3482  15.074  10.736   7.524 -0.1036  0.1070 -0.1643
  218loPI   C5A 3483  15.083  10.745   7.020  0.0488  0.0249 -0.1086
  218loPI   C6A 3484  15.387  10.648   6.674  0.0494 -0.0004  0.0560
  218loPI   C1B 3485  15.028  11.055   8.807 -0.1682 -0.0837 -0.3780
  218loPI   C2B 3486  14.804  10.840   8.607  0.1264  0.0264  0.1096
  218loPI   C3B 3487  14.682  10.674   8.204  0.3779 -0.4003  0.4753
  218loPI   C4B 3488  14.551  10.683   7.770  0.1628  0.1248  0.3425
  219loPI    C1 3489   4.264  18.721   9.528 -0.1613 -0.0735  0.1772
  219loPI    C2 3490   4.358  19.105   9.471 -0.1667 -0.0496  0.3278
  219loPI    C3 3491   4.247  18.978   9.833  0.0874 -0.2450  0.3395
  219loPI   PO4 3492   4.189  18.597   9.316  0.2783 -0.4343  0.1016
  219loPI   GL1 3493   4.315  18.480   9.090 -0.4375 -0.1263  0.1950
  219loPI   GL2 3494   4.448  18.167   8.831  0.0010 -0.1108  0.1093
  219loPI   C1A 3495   3.970  18.173   8.769  0.2287  0.0780 -0.0538
  219loPI   C2A 3496   3.973  18.227   8.369 -0.0925  0.0424  0.1474
  219loPI   C3A 3497   3.807  18.283   7.997  0.3284 -0.1658 -0.1694
  219loPI   C4A 3498   3.774  18.314   7.523  0.0447 -0.1124  0.0031
  219loPI   C5A 3499   3.618  18.175   7.163 -0.0177  0.0944 -0.1162
  219loPI   C6A 3500   3.339  17.902   6.943  0.0918  0.3622  0.0164
  219loPI   C1B 3501   4.425  18.258   8.462  0.4875 -0.1912  0.0736
  219loPI   C2B 3502   4.503  18.422   8.026 -0.2834 -0.0719 -0.0743
  219loPI   C3B 3503   4.709  18.291   7.689 -0.3083 -0.3743  0.1385
  219loPI   C4B 3504   5.069  18.326   7.414  0.2473  0.1411  0.1365
  220loPI    C1 3505  14.855  14.349  10.312  0.0328  0.2622 -0.0499
  220loPI    C2 3506  14.897  14.013  10.099 -0.0535 -0.0382  0.3946
  220loPI    C3 3507  15.219  14.194  10.252 -0.0155  0.0281  0.2372
  220loPI   PO4 3508  14.647  14.487  10.189  0.0643 -0.1703  0.1945
  220loPI   GL1 3509  14.602  14.697   9.897 -0.0781 -0.0515  0.0391
  220loPI   GL2 3510  14.752  14.697   9.557  0.0350  0.1089  0.1180
  220loPI   C1A 3511  14.367  14.468   9.456  0.0818  0.3683 -0.0463
  220loPI   C2A 3512  14.488  14.540   9.055  0.0306  0.1385 -0.3542
  220loPI   C3A 3513  14.255  14.590   8.602 -0.0469 -0.2111 -0.0978
  220loPI   C4A 3514  14.179  14.502   8.187 -0.2023 -0.1555 -0.0937
  220loPI   C5A 3515  14.173  14.505   7.757  0.1212 -0.1825 -0.3977
  220loPI   C6A 3516  14.087  14.282   7.316  0.1926 -0.1749  0.2140
  220loPI   C1B 3517  14.788  14.935   9.209  0.1181 -0.3122 -0.0655
  220loPI   C2B 3518  14.817  14.802   8.812 -0.0595 -0.1103  0.5999
  220loPI   C3B 3519  14.790  14.874   8.324 -0.1335  0.0594  0.1398
  220loPI   C4B 3520  14.658  14.894   7.921 -0.1171 -0.0200 -0.0891
  221loPI    C1 3521   6.694   8.479   9.125  0.1025  0.0790 -0.1143
  221loPI    C2 3522   6.349   8.643   9.245  0.1384  0.2081 -0.1857
  221loPI    C3 3523   6.574   8.438   9.504  0.0212  0.1467 -0.1322
  221loPI   PO4 3524   6.650   8.386   8.862  0.0063  0.0694  0.0226
  221loPI   GL1 3525   6.619   8.476   8.450 -0.0184  0.0851  0.1519
  221loPI   GL2 3526   6.782   8.250   8.288 -0.0644  0.0754 -0.1394
  221loPI   C1A 3527   6.687   8.709   8.126 -0.2512  0.3843 -0.0960
  221loPI   C2A 3528   6.602   8.827   7.747 -0.3108 -0.1122 -0.2160
  221loPI   C3A 3529   6.619   8.937   7.425  0.0309 -0.1253  0.4766
  221loPI   C4A 3530   6.255   9.085   7.080 -0.0645  0.1515  0.1848
  221loPI   C5A 3531   6.116   9.226   6.662 -0.1172  0.1473 -0.3285
  221loPI   C6A 3532   6.228   9.576   6.449  0.1449  0.3984 -0.0536
  221loPI   C1B 3533   6.763   8.307   7.855 -0.1242  0.1972  0.0917
  221loPI   C2B 3534   6.668   8.390   7.416 -0.2091 -0.0619  0.0778
  221loPI   C3B 3535   6.659   8.409   6.929 -0.0790  0.1051 -0.2994
  221loPI   C4B 3536   6.645   8.228   6.563 -0.0885 -0.2353 -0.1086
  222loPI    C1 3537   3.680   3.385   9.166  0.0021 -0.1995  0.0224
  222loPI    C2 3538   3.346   3.587   9.254  0.1284  0.0928 -0.1522
  222loPI    C3 3539   3.653   3.586   9.511  0.1417  0.1554 -0.1677
  222loPI   PO4 3540   3.651   3.436   8.849  0.1810 -0.0017  0.0625
  222loPI   GL1 3541   3.817   3.402   8.453 -0.3956  0.2122 -0.0987
  222loPI   GL2 3542   4.005   3.602   8.143  0.1851  0.0021  0.3754
  222loPI   C1A 3543   3.655   3.108   8.172  0.0674 -0.1647 -0.0727
  222loPI   C2A 3544   3.630   2.972   7.836 -0.1629 -0.0583 -0.2208
  222loPI   C3A 3545   3.633   2.903   7.377 -0.1155  0.1290  0.0224
  222loPI   C4A 3546   3.234   2.882   6.987  0.1737 -0.2804  0.2901
  222loPI   C5A 3547   2.939   3.000   6.658 -0.0064 -0.0456 -0.0875
  222loPI   C6A 3548   2.792   3.354   6.361  0.0549 -0.1534 -0.0486
  222loPI   C1B 3549   3.821   3.515   7.877 -0.0426 -0.2826 -0.0459
  222loPI   C2B 3550   3.654   3.399   7.473  0.0415  0.0008  0.2332
  222loPI   C3B 3551   3.681   3.450   7.018  0.0096 -0.0700 -0.0043
  222loPI   C4B 3552   3.613   3.092   6.657 -0.4032 -0.1842 -0.3150
  223loPI    C1 3553   5.084   2.144   9.185  0.1818  0.0432 -0.1782
  223loPI    C2 3554   5.433   2.058   9.361  0.2222 -0.0445 -0.2995
  223loPI    C3 3555   5.305   2.437   9.346  0.1618 -0.0490  0.0197
  223loPI   PO4 3556   5.078   2.050   8.941 -0.1718  0.1322 -0.0014
  223loPI   GL1 3557   5.297   1.820   8.684  0.1318 -0.0795  0.2660
  223loPI   GL2 3558   5.463   2.059   8.611  0.0289 -0.0371 -0.1307
  223loPI   C1A 3559   5.368   1.727   8.207  0.0355  0.0704 -0.0945
  223loPI   C2A 3560   5.239   1.739   7.875 -0.0380 -0.1820 -0.0631
  223loPI   C3A 3561   5.290   1.784   7.522 -0.2333 -0.1025 -0.0888
  223loPI   C4A 3562   5.265   1.878   7.013  0.0228  0.0480  0.0581
  223loPI   C5A 3563   5.657   1.888   6.708 -0.1406 -0.2308 -0.1565
  223loPI   C6A 3564   5.928   2.002   6.258 -0.0305 -0.3978  0.0800
  223loPI   C1B 3565   5.794   2.027   8.394 -0.0126 -0.3247  0.0714
  223loPI   C2B 3566   5.860   1.931   8.039  0.1355 -0.1634 -0.0478
  223loPI   C3B 3567   5.805   1.809   7.691  0.1187 -0.0279  0.1362
  223loPI   C4B 3568   5.705   1.899   7.273  0.1049  0.0834  0.2948
  224loPI    C1 3569  14.462  11.921   9.932  0.0650  0.2214 -0.0528
  224loPI    C2 3570  14.438  12.025  10.317 -0.3203  0.1523 -0.0537
  224loPI    C3 3571  14.700  11.746  10.201 -0.1719  0.2042  0.1497
  224loPI   PO4 3572  14.302  12.003   9.872 -0.0279 -0.2091  0.1362
  224loPI   GL1 3573  14.148  12.238   9.593 -0.2009  0.0877 -0.0708
  224loPI   GL2 3574  13.930  12.350   9.414  0.0766 -0.1195  0.0804
  224loPI   C1A 3575  14.366  12.407   9.215 -0.2402  0.1425 -0.2796
  224loPI   C2A 3576  14.419  12.417   8.786 -0.3494 -0.0496 -0.2934
  224loPI   C3A 3577  14.383  12.634   8.429 -0.0429 -0.0350 -0.2864
  224loPI   C4A 3578  14.227  12.545   8.040 -0.1901 -0.0164 -0.0701
  224loPI   C5A 3579  14.149  12.775   7.563  0.2862 -0.2187  0.3329
  224loPI   C6A 3580  14.167  12.957   7.181  0.0556 -0.1412  0.0107
  224loPI   C1B 3581  13.878  12.384   8.952  0.1379  0.0095  0.0203
  224loPI   C2B 3582  13.928  12.417   8.561  0.1256 -0.0082 -0.2612
  224loPI   C3B 3583  13.791  12.448   8.136  0.0716 -0.2312  0.0563
  224loPI   C4B 3584  13.658  12.349   7.712 -0.4276 -0.1708 -0.0258
  225loPI    C1 3585   3.837  10.755  10.138  0.0024 -0.0943  0.1426
  225loPI    C2 3586   3.469  10.742   9.981  0.1085  0.2119 -0.1436
  225loPI    C3 3587   3.549  10.546  10.321 -0.4327  0.4963  0.1607
  225loPI   PO4 3588   3.973  10.779   9.914 -0.0064  0.0871  0.0132
  225loPI   GL1 3589   4.056  10.556   9.407 -0.1121 -0.2956 -0.1001
  225loPI   GL2 3590   3.759  10.500   9.422  0.2364  0.1832  0.1238
  225loPI   C1A 3591   3.943  10.845   9.109 -0.3481  0.1784  0.1000
  225loPI   C2A 3592   3.836  10.887   8.680  0.0154 -0.1094 -0.0861
  225loPI   C3A 3593   3.747  10.939   8.191  0.0941  0.0547  0.1418
  225loPI   C4A 3594   3.644  10.877   7.725  0.0526  0.0584  0.3749
  225loPI   C5A 3595   3.572  10.448   7.437  0.2930 -0.2687  0.0568
  225loPI   C6A 3596   3.328  10.075   7.546 -0.0365 -0.0887  0.1287
  225loPI   C1B 3597   3.795  10.402   8.913 -0.2399  0.1883 -0.2103
  225loPI   C2B 3598   3.733  10.421   8.441 -0.4061  0.2126  0.0353
  225loPI   C3B 3599   3.437  10.486   8.206 -0.0012  0.0227 -0.1685
  225loPI   C4B 3600   3.429  10.412   7.910 -0.0896 -0.1381 -0.0240
  226loPI    C1 3601  13.681   6.292   9.568 -0.0222  0.1360 -0.0691
  226loPI    C2 3602  13.860   6.584   9.774  0.1078  0.1227 -0.1618
  226loPI    C3 3603  13.918   6.202   9.878 -0.0941  0.1304 -0.0155
  226loPI   PO4 3604  13.722   6.328   9.363  0.0433  0.1208  0.0770
  226loPI   GL1 3605  14.065   6.151   9.032  0.0828 -0.2922  0.3586
  226loPI   GL2 3606  13.782   5.906   8.961  0.2461 -0.3136  0.3199
  226loPI   C1A 3607  14.097   6.431   8.765 -0.4269 -0.0901 -0.1680
  226loPI   C2A 3608  13.937   6.696   8.508 -0.1449  0.0198  0.0377
  226loPI   C3A 3609  13.953   6.965   8.188 -0.1628  0.1963  0.0007
  226loPI   C4A 3610  14.233   7.252   7.892  0.1362 -0.3422 -0.1682
  226loPI   C5A 3611  14.152   7.640   7.723  0.0400  0.0422 -0.0040
  226loPI   C6A 3612  14.049   7.791   7.246 -0.0734  0.4401  0.0262
  226loPI   C1B 3613  13.877   5.721   8.516  0.0954  0.0440 -0.0715
  226loPI   C2B 3614  14.116   5.629   8.131  0.1212 -0.0401  0.0521
  226loPI   C3B 3615  14.489   5.407   7.945  0.3594  0.0572 -0.0517
  226loPI   C4B 3616  14.895   5.418   8.077  0.3178 -0.0210  0.1993
  227loPI    C1 3617   8.360   8.671   8.871 -0.1578  0.0278  0.3997
  227loPI    C2 3618   7.996   8.570   8.738 -0.0794  0.1219  0.1083
  227loPI    C3 3619   8.307   8.325   8.676 -0.0429  0.1654  0.1190
  227loPI   PO4 3620   8.413   8.947   8.744  0.4715 -0.0138  0.0862
  227loPI   GL1 3621   8.742   8.985   8.517  0.2724 -0.0015 -0.1616
  227loPI   GL2 3622   9.110   9.045   8.570  0.2661  0.0058 -0.0761
  227loPI   C1A 3623   8.970   8.849   8.160  0.1216  0.2060  0.4784
  227loPI   C2A 3624   8.907   8.695   7.725 -0.0611  0.1400 -0.0225
  227loPI   C3A 3625   9.093   8.520   7.246  0.0386 -0.2033  0.0329
  227loPI   C4A 3626   9.097   8.535   6.772  0.1792 -0.0825  0.0636
  227loPI   C5A 3627   8.656   8.625   6.530 -0.3128 -0.0550 -0.0293
  227loPI   C6A 3628   8.243   8.657   6.501 -0.2274  0.0912 -0.0738
  227loPI   C1B 3629   9.477   9.224   8.294 -0.0624  0.2059  0.0762
  227loPI   C2B 3630   9.761   9.360   7.978  0.1449  0.0452  0.0612
  227loPI   C3B 3631  10.034   9.487   7.602 -0.0338  0.0498  0.0747
  227loPI   C4B 3632  10.391   9.234   7.321  0.1179  0.0929 -0.0618
  228loPI    C1 3633  10.966   5.027   9.404  0.1519  0.1025  0.0281
  228loPI    C2 3634  11.237   4.743   9.476  0.1170  0.0996  0.1488
  228loPI    C3 3635  10.849   4.648   9.455  0.1577  0.0312 -0.4435
  228loPI   PO4 3636  11.141   5.174   9.227 -0.2009 -0.0282  0.3141
  228loPI   GL1 3637  11.156   5.131   8.849  0.2101 -0.1463 -0.0189
  228loPI   GL2 3638  11.414   4.973   8.802  0.1647 -0.0986  0.0237
  228loPI   C1A 3639  11.180   5.222   8.421 -0.1335 -0.0475 -0.2557
  228loPI   C2A 3640  11.197   5.324   7.976  0.2983  0.0323 -0.0516
  228loPI   C3A 3641  11.327   5.292   7.554 -0.1188  0.0843  0.4636
  228loPI   C4A 3642  11.611   5.424   7.250  0.2444 -0.1241  0.1496
  228loPI   C5A 3643  11.586   5.704   6.973 -0.2767 -0.0676  0.0287
  228loPI   C6A 3644  11.465   5.727   6.578  0.0994  0.1422 -0.0987
  228loPI   C1B 3645  11.567   4.804   8.367  0.1746  0.2106 -0.1016
  228loPI   C2B 3646  11.603   5.026   8.005 -0.2047 -0.1510 -0.1151
  228loPI   C3B 3647  11.889   5.157   7.755 -0.2522  0.0390  0.0292
  228loPI   C4B 3648  12.087   5.096   7.484  0.2521  0.3125 -0.0304
  229loPI    C1 3649  15.038  17.625  10.291 -0.0118 -0.0760  0.3682
  229loPI    C2 3650  14.932  17.999  10.198  0.1878 -0.0366  0.2937
  229loPI    C3 3651  14.903  17.871  10.576  0.0931  0.0449  0.3146
  229loPI   PO4 3652  14.954  17.525  10.141 -0.0302  0.1105 -0.0639
  229loPI   GL1 3653  14.727  17.605   9.911  0.1901 -0.1331  0.1449
  229loPI   GL2 3654  14.424  17.409   9.839 -0.2984  0.0530 -0.0894
  229loPI   C1A 3655  14.855  17.650   9.506  0.1867  0.0357  0.0395
  229loPI   C2A 3656  14.884  18.052   9.221  0.0638 -0.0741 -0.1023
  229loPI   C3A 3657  14.920  18.086   8.759 -0.0215 -0.0551 -0.5756
  229loPI   C4A 3658  14.980  18.044   8.267  0.0747  0.0245  0.1156
  229loPI   C5A 3659  15.061  18.116   7.763 -0.0367  0.0637  0.3731
  229loPI   C6A 3660  14.918  18.492   7.469 -0.3112  0.1121  0.0949
  229loPI   C1B 3661  14.433  17.378   9.405  0.0710  0.3737 -0.1041
  229loPI   C2B 3662  14.785  17.412   9.059  0.1506 -0.0172  0.3229
  229loPI   C3B 3663  14.855  17.227   8.545  0.2753 -0.1053 -0.0190
  229loPI   C4B 3664  14.729  17.206   8.179 -0.1179  0.1678 -0.2706
  230loPI    C1 3665   7.904   2.412   9.017 -0.0406 -0.1250  0.2459
  230loPI    C2 3666   7.558   2.280   8.865 -0.0466 -0.0102  0.1587
  230loPI    C3 3667   7.557   2.535   9.173 -0.0556  0.3955 -0.1675
  230loPI   PO4 3668   8.088   2.490   8.868  0.0427 -0.1054 -0.1470
  230loPI   GL1 3669   8.118   2.239   8.499  0.0764 -0.0445 -0.3961
  230loPI   GL2 3670   8.308   2.572   8.443  0.0971  0.2705 -0.0540
  230loPI   C1A 3671   8.132   1.976   8.128 -0.3615 -0.0939  0.1372
  230loPI   C2A 3672   8.274   1.953   7.720 -0.1301 -0.1411  0.0715
  230loPI   C3A 3673   8.199   1.812   7.232  0.4691 -0.0202  0.2131
  230loPI   C4A 3674   7.953   1.616   6.838 -0.1421 -0.1914  0.0689
  230loPI   C5A 3675   8.006   1.363   6.420  0.1554  0.2313  0.0941
  230loPI   C6A 3676   8.127   1.493   6.025  0.0704  0.0652  0.0466
  230loPI   C1B 3677   8.069   2.522   8.092 -0.1728 -0.2586  0.0389
  230loPI   C2B 3678   7.932   2.311   7.733  0.1071 -0.0346  0.0823
  230loPI   C3B 3679   7.930   2.271   7.276 -0.0658 -0.2875 -0.2930
  230loPI   C4B 3680   7.733   2.522   6.926 -0.0697 -0.3044 -0.3057
  231loPI    C1 3681   8.015   8.709   9.211 -0.2677 -0.1470  0.0759
  231loPI    C2 3682   8.338   8.700   9.446 -0.1471  0.4283 -0.0549
  231loPI    C3 3683   7.973   8.696   9.609 -0.0738  0.1398  0.1086
  231loPI   PO4 3684   7.999   8.962   9.091 -0.2821  0.1971  0.3209
  231loPI   GL1 3685   7.800   9.050   8.618  0.3757 -0.1173 -0.1235
  231loPI   GL2 3686   8.088   9.145   8.435 -0.1699  0.0256 -0.0278
  231loPI   C1A 3687   7.483   9.032   8.231 -0.1434 -0.2080 -0.0847
  231loPI   C2A 3688   7.434   9.064   7.737 -0.0399 -0.0708 -0.0805
  231loPI   C3A 3689   7.302   9.269   7.306  0.1344 -0.0717  0.1815
  231loPI   C4A 3690   7.232   9.289   6.804 -0.0387  0.1043 -0.1231
  231loPI   C5A 3691   7.448   9.290   6.350 -0.0621 -0.0211  0.0967
  231loPI   C6A 3692   7.599   9.610   6.058  0.1103  0.0357 -0.3901
  231loPI   C1B 3693   8.298   9.300   8.062 -0.2144  0.2172 -0.2716
  231loPI   C2B 3694   8.463   9.576   7.696  0.1489  0.3206 -0.4018
  231loPI   C3B 3695   8.351   9.714   7.292  0.4276 -0.1710  0.2014
  231loPI   C4B 3696   8.603   9.620   6.949  0.0486  0.3170 -0.1753
  232loPI    C1 3697   4.329   0.530   9.676  0.0694  0.1316 -0.0388
  232loPI    C2 3698   4.580   0.841   9.692  0.0549  0.1325  0.2269
  232loPI    C3 3699   4.706   0.477   9.799  0.0565  0.0550 -0.0322
  232loPI   PO4 3700   4.059   0.692   9.552  0.5025  0.0182  0.2496
  232loPI   GL1 3701   3.955   0.650   9.124 -0.0681  0.0420 -0.1370
  232loPI   GL2 3702   3.699   0.836   9.225 -0.0292  0.1080  0.1749
  232loPI   C1A 3703   3.932   0.719   8.692 -0.2966  0.0986 -0.2879
  232loPI   C2A 3704   3.951   0.628   8.186 -0.0802  0.0246  0.0532
  232loPI   C3A 3705   3.558   0.683   7.913  0.0354 -0.0322  0.4210
  232loPI   C4A 3706   3.312   0.336   7.701 -0.1124  0.0148 -0.0897
  232loPI   C5A 3707   3.306   0.199   7.300 -0.3459  0.2296 -0.0280
  232loPI   C6A 3708   3.224  -0.070   7.131 -0.1813  0.0869 -0.1129
  232loPI   C1B 3709   3.459   0.626   8.979 -0.1925 -0.1075  0.4627
  232loPI   C2B 3710   3.491   0.554   8.501 -0.0179 -0.2330 -0.1037
  232loPI   C3B 3711   3.222   0.367   8.226  0.0181  0.1894  0.0294
  232loPI   C4B 3712   2.961   0.126   8.049 -0.0172  0.0222 -0.2395
  233loPI    C1 3713  16.702  13.964  10.086 -0.0556  0.0432 -0.0214
  233loPI    C2 3714  16.512  13.724  10.343  0.2027 -0.0389  0.0964
  233loPI    C3 3715  16.773  13.995  10.478 -0.0396  0.2695 -0.0408
  233loPI   PO4 3716  16.518  14.063   9.891  0.0066 -0.0502 -0.1588
  233loPI   GL1 3717  16.517  14.113   9.525  0.1161 -0.2321  0.2335
  233loPI   GL2 3718  16.225  14.298   9.278 -0.4168  0.1109  0.1107
  233loPI   C1A 3719  16.781  14.262   9.197  0.1316  0.0005 -0.0656
  233loPI   C2A 3720  16.641  14.409   8.723  0.2400  0.0579 -0.2808
  233loPI   C3A 3721  16.485  14.423   8.353  0.1231  0.0445  0.2781
  233loPI   C4A 3722  16.320  14.567   7.945  0.0844 -0.2067 -0.0790
  233loPI   C5A 3723  16.116  14.399   7.593 -0.2637  0.2224 -0.1564
  233loPI   C6A 3724  15.982  14.415   7.191  0.2664 -0.1571  0.3966
  233loPI   C1B 3725  16.147  14.665   9.285  0.0969  0.2955  0.1529
  233loPI   C2B 3726  16.174  14.783   8.920  0.0456 -0.0939 -0.1311
  233loPI   C3B 3727  16.115  14.710   8.488  0.4197  0.3774  0.1717
  233loPI   C4B 3728  15.749  14.659   8.267 -0.1418  0.1208 -0.0306
  234loPI    C1 3729   2.284   8.039   9.715  0.0658  0.1053 -0.1129
  234loPI    C2 3730   2.146   7.711   9.898  0.0197  0.0875 -0.1791
  234loPI    C3 3731   2.208   8.047  10.107  0.2068 -0.0054 -0.0824
  234loPI   PO4 3732   2.116   8.077   9.516  0.1535 -0.0185 -0.1527
  234loPI   GL1 3733   1.893   8.071   9.150  0.4217  0.0527 -0.1298
  234loPI   GL2 3734   1.786   7.721   9.092 -0.0027  0.0484 -0.0712
  234loPI   C1A 3735   2.084   8.340   8.851 -0.0585  0.0569 -0.1623
  234loPI   C2A 3736   2.315   8.514   8.524  0.1077  0.0211  0.2662
  234loPI   C3A 3737   2.346   8.662   8.126  0.2126 -0.1071 -0.3691
  234loPI   C4A 3738   2.362   8.517   7.719 -0.2406  0.1892  0.3425
  234loPI   C5A 3739   2.625   8.186   7.598 -0.1898 -0.0464 -0.1545
  234loPI   C6A 3740   2.886   7.943   7.327  0.0896  0.1597 -0.0852
  234loPI   C1B 3741   1.808   7.781   8.566  0.0152 -0.1239  0.1022
  234loPI   C2B 3742   1.842   7.751   8.028 -0.0914 -0.1497  0.1287
  234loPI   C3B 3743   2.038   8.070   7.633  0.0447 -0.0788  0.4618
  234loPI   C4B 3744   1.994   8.312   7.312 -0.1228 -0.0172 -0.1079
  235loPI    C1 3745  13.194   1.370  10.207  0.0526  0.2256 -0.3384
  235loPI    C2 3746  13.005   1.716  10.273 -0.0291  0.0905  0.1870
  235loPI    C3 3747  12.802   1.400  10.134 -0.0616  0.1119  0.1855
  235loPI   PO4 3748  13.426   1.359  10.033 -0.0471  0.1274  0.3984
  235loPI   GL1 3749  13.637   1.104   9.794 -0.2761  0.1840  0.3400
  235loPI   GL2 3750  13.807   0.899   9.849 -0.2987  0.2660 -0.4482
  235loPI   C1A 3751  13.718   0.963   9.353 -0.0237 -0.0144 -0.3250
  235loPI   C2A 3752  13.688   1.136   9.032  0.0849 -0.1157  0.5916
  235loPI   C3A 3753  13.732   1.233   8.581  0.0672  0.1267 -0.1269
  235loPI   C4A 3754  13.715   1.368   8.253 -0.0019  0.2882 -0.0194
  235loPI   C5A 3755  14.060   1.544   8.083 -0.2165 -0.0248  0.0595
  235loPI   C6A 3756  14.160   1.857   7.953 -0.2137 -0.3921  0.0137
  235loPI   C1B 3757  14.143   0.765   9.573 -0.2186 -0.0016 -0.2451
  235loPI   C2B 3758  14.218   0.808   9.174  0.1343  0.1720  0.1355
  235loPI   C3B 3759  14.147   1.002   8.755  0.4413  0.2100  0.3045
  235loPI   C4B 3760  14.202   1.288   8.478 -0.2736  0.3251  0.0238
  236loPI    C1 3761   2.995  16.463   9.908 -0.0810  0.0014  0.0634
  236loPI    C2 3762   3.107  16.235  10.217 -0.0718 -0.0006  0.0586
  236loPI    C3 3763   3.181  16.628  10.221  0.0110 -0.0154  0.0179
  236loPI   PO4 3764   2.993  16.191   9.703  0.3717  0.0915  0.0727
  236loPI   GL1 3765   2.954  16.066   9.247 -0.0574  0.4192  0.0467
  236loPI   GL2 3766   2.816  15.838   9.187 -0.0200 -0.1096 -0.0193
  236loPI   C1A 3767   2.957  16.202   8.766 -0.0697 -0.2717  0.1188
  236loPI   C2A 3768   2.967  16.239   8.316  0.2319  0.2228  0.0466
  236loPI   C3A 3769   3.201  16.013   7.944  0.1291 -0.0084  0.0834
  236loPI   C4A 3770   3.105  15.914   7.541 -0.1064 -0.1539 -0.2582
  236loPI   C5A 3771   3.031  16.123   7.188 -0.2658  0.1173  0.2897
  236loPI   C6A 3772   2.751  16.277   6.818 -0.0181  0.2052 -0.1427
  236loPI   C1B 3773   2.851  15.348   8.954 -0.2635 -0.0683 -0.2506
  236loPI   C2B 3774   3.130  15.284   8.613  0.1414 -0.3115  0.0069
  236loPI   C3B 3775   3.153  15.124   8.183  0.2764  0.0274  0.1246
  236loPI   C4B 3776   3.197  15.140   7.854  0.2741 -0.2053  0.2006
  237loPI    C1 3777  17.451   8.002   9.689  0.1373  0.2183 -0.0320
  237loPI    C2 3778  17.428   8.392   9.775  0.0643  0.1834  0.1104
  237loPI    C3 3779  17.149   8.140   9.913  0.0218  0.1043 -0.1160
  237loPI   PO4 3780  17.583   7.996   9.464 -0.3112  0.1169  0.1279
  237loPI   GL1 3781  17.575   8.275   9.097  0.1476 -0.1227  0.0210
  237loPI   GL2 3782  17.296   8.438   9.044 -0.0581  0.2899  0.1111
  237loPI   C1A 3783  17.653   7.969   8.846 -0.0216 -0.0806 -0.0186
  237loPI   C2A 3784  17.681   7.958   8.400 -0.2559 -0.3592  0.1858
  237loPI   C3A 3785  17.715   7.861   7.903 -0.2942  0.0563  0.0859
  237loPI   C4A 3786  17.843   7.727   7.452 -0.1425 -0.2088  0.1108
  237loPI   C5A 3787  18.202   7.829   7.314 -0.1764  0.0407  0.1585
  237loPI   C6A 3788  18.178   8.126   6.967 -0.0525  0.0401  0.1476
  237loPI   C1B 3789  17.365   8.451   8.641 -0.3166  0.0270 -0.1523
  237loPI   C2B 3790  17.447   8.354   8.215  0.1577  0.1786  0.0746
  237loPI   C3B 3791  17.403   8.200   7.770  0.2028 -0.0093 -0.0081
  237loPI   C4B 3792  17.407   8.007   7.443  0.1032 -0.0876  0.1963
  238loPI    C1 3793   1.638  18.678  10.293 -0.0364  0.0738  0.1868
  238loPI    C2 3794   1.875  18.361  10.237 -0.0642  0.0300  0.3150
  238loPI    C3 3795   1.977  18.643  10.502 -0.0041  0.1646  0.1499
  238loPI   PO4 3796   1.529  18.794  10.087  0.0406 -0.1270 -0.4654
  238loPI   GL1 3797   1.200  18.534   9.789  0.2102 -0.0901  0.4840
  238loPI   GL2 3798   0.956  18.666   9.574 -0.0705 -0.3100 -0.1523
  238loPI   C1A 3799   1.301  18.386   9.360  0.3557  0.1742 -0.1011
  238loPI   C2A 3800   1.347  18.368   8.955  0.0421  0.3756 -0.0664
  238loPI   C3A 3801   1.347  18.187   8.596 -0.4700  0.0850  0.4877
  238loPI   C4A 3802   1.345  18.142   8.136 -0.2518 -0.2089  0.3197
  238loPI   C5A 3803   1.440  17.885   7.772  0.0629  0.0717  0.1605
  238loPI   C6A 3804   1.262  18.110   7.363 -0.0424 -0.1278  0.3295
  238loPI   C1B 3805   1.050  18.778   9.137  0.0354 -0.2077 -0.3808
  238loPI   C2B 3806   1.077  18.663   8.709  0.3465 -0.2870 -0.0110
  238loPI   C3B 3807   0.957  18.627   8.238 -0.2813  0.1111  0.1325
  238loPI   C4B 3808   0.915  18.542   7.834  0.0234 -0.0942  0.0190
  239loPI    C1 3809  14.079  13.787  10.340  0.3129 -0.2778  0.0298
  239loPI    C2 3810  13.895  13.579  10.628 -0.0113 -0.1236 -0.0615
  239loPI    C3 3811  13.998  13.960  10.691 -0.2025 -0.0485 -0.1916
  239loPI   PO4 3812  13.847  13.811  10.040 -0.1622  0.0842  0.1180
  239loPI   GL1 3813  13.740  13.948   9.675  0.0977  0.1580 -0.0766
  239loPI   GL2 3814  14.072  14.114   9.634 -0.0992 -0.0042 -0.1279
  239loPI   C1A 3815  13.613  13.797   9.316 -0.1568  0.1462  0.2759
  239loPI   C2A 3816  13.601  13.811   8.873  0.1631  0.0363  0.1081
  239loPI   C3A 3817  13.623  13.525   8.466  0.0914  0.0357 -0.2077
  239loPI   C4A 3818  13.426  13.177   8.153 -0.0339 -0.1472  0.1023
  239loPI   C5A 3819  13.028  13.063   8.030  0.2630 -0.0697  0.0804
  239loPI   C6A 3820  12.675  13.039   7.741  0.0389 -0.0804 -0.4651
  239loPI   C1B 3821  13.994  14.106   9.144 -0.1181 -0.2903  0.0854
  239loPI   C2B 3822  13.963  14.086   8.698 -0.1628  0.0978 -0.4480
  239loPI   C3B 3823  13.823  14.084   8.192  0.2023  0.0884  0.0983
  239loPI   C4B 3824  13.647  13.838   7.834 -0.1719 -0.0183 -0.1013
  240loPI    C1 3825  18.363   8.161  10.016  0.0224  0.2545  0.0294
  240loPI    C2 3826  18.185   7.849  10.191  0.3457 -0.0617 -0.1891
  240loPI    C3 3827  18.068   8.222  10.278  0.0295 -0.2359  0.1606
  240loPI   PO4 3828  18.390   7.991   9.752 -0.1361  0.0720  0.2193
  240loPI   GL1 3829  18.432   7.749   9.383 -0.1007 -0.0310  0.0191
  240loPI   GL2 3830  18.576   7.668   9.092  0.1076 -0.0838 -0.2615
  240loPI   C1A 3831  18.182   7.980   8.953  0.0796  0.1020 -0.0431
  240loPI   C2A 3832  18.164   8.084   8.605 -0.1045 -0.1276  0.0788
  240loPI   C3A 3833  18.107   8.103   8.153  0.0376  0.1037 -0.2141
  240loPI   C4A 3834  18.023   8.264   7.823  0.0837 -0.3616  0.1226
  240loPI   C5A 3835  17.879   8.297   7.414  0.0771 -0.1513  0.2455
  240loPI   C6A 3836  17.575   8.308   7.048 -0.1076 -0.6583 -0.2731
  240loPI   C1B 3837  18.587   7.689   8.703  0.0018  0.0549  0.0246
  240loPI   C2B 3838  18.670   8.008   8.359 -0.1218 -0.0496 -0.1599
  240loPI   C3B 3839  18.528   8.158   7.935 -0.0052 -0.1336 -0.0444
  240loPI   C4B 3840  18.423   8.243   7.515  0.1112  0.0406  0.2708
  241loPI    C1 3841  14.616   4.955   9.819  0.3177 -0.3225  0.1866
  241loPI    C2 3842  14.222   4.933   9.748  0.3419 -0.0061 -0.0711
  241loPI    C3 3843  14.361   4.896  10.122  0.0557  0.0207  0.0407
  241loPI   PO4 3844  14.723   5.097   9.591  0.1148  0.2002  0.2121
  241loPI   GL1 3845  14.642   4.903   9.269  0.0942  0.1126  0.0175
  241loPI   GL2 3846  14.598   4.681   9.008  0.1580  0.0769 -0.1099
  241loPI   C1A 3847  14.806   5.262   8.932  0.0628  0.0525 -0.0193
  241loPI   C2A 3848  14.774   5.691   8.826 -0.2124 -0.2197  0.2741
  241loPI   C3A 3849  14.724   5.843   8.328 -0.2047 -0.1214  0.2628
  241loPI   C4A 3850  14.608   5.866   7.938 -0.1467 -0.0476 -0.1912
  241loPI   C5A 3851  14.524   5.910   7.470  0.1993  0.1811  0.2249
  241loPI   C6A 3852  14.533   5.872   7.079  0.2105  0.0122 -0.4254
  241loPI   C1B 3853  14.784   4.740   8.712 -0.3980  0.0822  0.0063
  241loPI   C2B 3854  14.880   4.597   8.259 -0.1460 -0.1945  0.0802
  241loPI   C3B 3855  14.995   4.628   7.870 -0.1043 -0.1242 -0.1704
  241loPI   C4B 3856  15.209   4.618   7.439 -0.2163  0.2715  0.0002
  242loPI    C1 3857  11.737   1.161  10.092 -0.0305  0.0355  0.0424
  242loPI    C2 3858  11.989   1.023  10.370  0.0687  0.3071  0.0907
  242loPI    C3 3859  11.665   1.229  10.480 -0.0147  0.2174  0.0143
  242loPI   PO4 3860  11.915   1.111   9.910  0.1056 -0.2151 -0.1609
  242loPI   GL1 3861  12.095   1.132   9.497 -0.1116  0.1814  0.0532
  242loPI   GL2 3862  12.092   1.433   9.366  0.0141 -0.0646  0.2149
  242loPI   C1A 3863  12.236   0.956   9.021 -0.1106 -0.1200 -0.3053
  242loPI   C2A 3864  12.002   0.916   8.663  0.1586  0.2476 -0.3437
  242loPI   C3A 3865  11.909   1.080   8.333  0.0482 -0.1322  0.2463
  242loPI   C4A 3866  12.005   1.121   7.927 -0.0120  0.2911  0.0724
  242loPI   C5A 3867  11.992   1.098   7.430  0.2159  0.1221 -0.0602
  242loPI   C6A 3868  11.821   1.287   7.056 -0.4154  0.1740 -0.1124
  242loPI   C1B 3869  12.049   1.487   8.985  0.5357  0.1996 -0.3567
  242loPI   C2B 3870  11.957   1.520   8.582 -0.0509 -0.1907  0.1841
  242loPI   C3B 3871  11.884   1.619   8.097 -0.0954 -0.3078 -0.0703
  242loPI   C4B 3872  11.519   1.439   8.032  0.1165  0.3189 -0.1818
  243loPI    C1 3873   7.094   9.894   9.188 -0.0446  0.0683 -0.1091
  243loPI    C2 3874   6.977   9.772   8.825  0.3737 -0.0060 -0.2241
  243loPI    C3 3875   6.765  10.049   9.021 -0.1791 -0.3788 -0.2730
  243loPI   PO4 3876   7.371  10.078   9.159  0.0128  0.1502  0.2978
  243loPI   GL1 3877   7.515  10.059   8.787  0.5544  0.1182  0.1415
  243loPI   GL2 3878   7.468   9.712   8.796  0.0298  0.3106 -0.0634
  243loPI   C1A 3879   7.752  10.007   8.577 -0.2947 -0.2662 -0.2278
  243loPI   C2A 3880   7.710  10.015   8.220  0.3188 -0.0010  0.2172
  243loPI   C3A 3881   7.571  10.096   7.792 -0.3357  0.0627 -0.0862
  243loPI   C4A 3882   7.494  10.108   7.373 -0.2857 -0.2018  0.3434
  243loPI   C5A 3883   7.414  10.281   7.012 -0.0918  0.2148 -0.2542
  243loPI   C6A 3884   7.430  10.430   6.576 -0.1722 -0.0679  0.0161
  243loPI   C1B 3885   7.312   9.758   8.416 -0.2235  0.0881  0.2488
  243loPI   C2B 3886   7.109   9.675   8.022 -0.5800  0.1836 -0.1571
  243loPI   C3B 3887   7.128   9.772   7.570  0.0251 -0.2306 -0.1221
  243loPI   C4B 3888   7.222   9.763   7.120  0.3549  0.0587  0.3146
  244loPI    C1 3889   1.993  18.626   9.781 -0.1178  0.0286  0.2511
  244loPI    C2 3890   2.195  18.959   9.692  0.0921 -0.1086  0.2071
  244loPI    C3 3891   2.158  18.844  10.073  0.1438 -0.1117  0.2114
  244loPI   PO4 3892   1.747  18.640   9.676 -0.0764 -0.3009 -0.1183
  244loPI   GL1 3893   1.632  18.751   9.318 -0.1136  0.2199  0.0457
  244loPI   GL2 3894   1.829  19.058   9.317 -0.0476  0.0861  0.2160
  244loPI   C1A 3895   1.572  18.815   8.913  0.2058  0.0520  0.1867
  244loPI   C2A 3896   1.555  18.705   8.445 -0.3227 -0.0993  0.1884
  244loPI   C3A 3897   1.379  18.625   7.991  0.1401 -0.0207  0.1226
  244loPI   C4A 3898   1.326  18.571   7.565  0.0766 -0.1845  0.0257
  244loPI   C5A 3899   1.067  18.768   7.340 -0.2048  0.1270 -0.1405
  244loPI   C6A 3900   1.064  18.377   7.038 -0.0747 -0.0189 -0.3592
  244loPI   C1B 3901   1.838  19.296   8.844  0.4853  0.2383  0.0459
  244loPI   C2B 3902   1.769  19.140   8.434  0.1928  0.0007  0.0991
  244loPI   C3B 3903   2.064  19.172   8.124  0.1336  0.0920  0.1347
  244loPI   C4B 3904   2.334  19.294   8.334 -0.1603 -0.0668  0.0226
  245loPI    C1 3905  17.443  14.542  10.306  0.0189 -0.0432  0.1527
  245loPI    C2 3906  17.716  14.252  10.344  0.1659  0.1000  0.2013
  245loPI    C3 3907  17.807  14.627  10.449  0.1401  0.2581 -0.3118
  245loPI   PO4 3908  17.371  14.506  10.107  0.1473  0.0200 -0.3931
  245loPI   GL1 3909  17.481  14.518   9.675 -0.0962 -0.0400  0.1660
  245loPI   GL2 3910  17.234  14.412   9.407  0.0909 -0.0420 -0.3380
  245loPI   C1A 3911  17.564  14.689   9.192  0.0738  0.1909 -0.6064
  245loPI   C2A 3912  17.643  14.613   8.701 -0.1419  0.0551 -0.0905
  245loPI   C3A 3913  17.543  14.685   8.313  0.1352  0.6003 -0.3208
  245loPI   C4A 3914  17.371  14.786   7.942 -0.1948 -0.0331 -0.3153
  245loPI   C5A 3915  17.416  14.869   7.513 -0.2033  0.1542  0.0280
  245loPI   C6A 3916  17.632  14.819   7.144  0.2695 -0.0649  0.0214
  245loPI   C1B 3917  17.147  14.503   8.993  0.0552 -0.2565  0.0298
  245loPI   C2B 3918  17.126  14.607   8.506  0.2570 -0.0862 -0.3684
  245loPI   C3B 3919  16.952  14.579   8.057  0.1109  0.3303  0.0468
  245loPI   C4B 3920  16.870  14.713   7.662  0.1323 -0.0516  0.0450
  246loPI    C1 3921   1.520   9.264  10.053 -0.0594 -0.1925 -0.1906
  246loPI    C2 3922   1.191   9.390   9.864 -0.1382 -0.2584 -0.0983
  246loPI    C3 3923   1.175   9.294  10.252  0.1333  0.3639  0.0794
  246loPI   PO4 3924   1.774   9.282   9.785 -0.1379 -0.0163 -0.0429
  246loPI   GL1 3925   1.780   9.486   9.316 -0.0010 -0.0107  0.0637
  246loPI   GL2 3926   1.465   9.491   9.439 -0.0871 -0.0985  0.3174
  246loPI   C1A 3927   1.858   9.378   8.907 -0.2883  0.0335 -0.1858
  246loPI   C2A 3928   1.820   9.469   8.496  0.0908 -0.0432  0.0708
  246loPI   C3A 3929   1.736   9.729   8.094  0.0199 -0.0769  0.2264
  246loPI   C4A 3930   1.591   9.592   7.749  0.0924 -0.2451 -0.2481
  246loPI   C5A 3931   1.428   9.677   7.362  0.2151  0.2632 -0.0550
  246loPI   C6A 3932   1.181  10.049   7.236  0.3109 -0.0982 -0.4915
  246loPI   C1B 3933   1.428   9.525   8.982 -0.2474 -0.1972  0.0975
  246loPI   C2B 3934   1.352   9.569   8.490 -0.0867  0.1515  0.2669
  246loPI   C3B 3935   1.190   9.682   8.101 -0.1275  0.1154  0.3491
  246loPI   C4B 3936   0.993   9.880   7.684 -0.1465 -0.0188 -0.1877
  247loPI    C1 3937   0.678  18.681   9.938 -0.0095 -0.0834 -0.0002
  247loPI    C2 3938   0.286  18.638  10.004 -0.0203  0.0672  0.0373
  247loPI    C3 3939   0.416  18.918   9.749  0.0561 -0.0725 -0.0783
  247loPI   PO4 3940   0.691  18.382   9.943 -0.0833  0.1134 -0.1455
  247loPI   GL1 3941   0.847  18.184   9.547 -0.0076 -0.3220 -0.1096
  247loPI   GL2 3942   0.691  17.867   9.513 -0.0383  0.2186 -0.1267
  247loPI   C1A 3943   0.717  18.403   9.168 -0.2300  0.1510  0.0362
  247loPI   C2A 3944   0.605  18.583   8.813 -0.0233  0.0269  0.1410
  247loPI   C3A 3945   0.471  18.576   8.373  0.1570  0.0241  0.0000
  247loPI   C4A 3946   0.202  18.697   7.885  0.3175 -0.0377  0.1770
  247loPI   C5A 3947   0.103  18.861   7.629 -0.2626  0.1260 -0.0896
  247loPI   C6A 3948  -0.164  19.069   7.628  0.0192  0.0057 -0.1611
  247loPI   C1B 3949   0.577  17.884   9.147  0.4371  0.0945 -0.0627
  247loPI   C2B 3950   0.589  17.715   8.660 -0.0114 -0.4424  0.3949
  247loPI   C3B 3951   0.719  17.679   8.290  0.1058 -0.1729  0.3040
  247loPI   C4B 3952   0.517  17.703   7.855  0.0915  0.0506 -0.2081
  248loPI    C1 3953   6.992   4.806   8.848 -0.0464  0.0225  0.0608
  248loPI    C2 3954   7.006   4.968   9.214  0.0039  0.1015  0.0243
  248loPI    C3 3955   7.222   4.641   9.132 -0.1199 -0.0023  0.1064
  248loPI   PO4 3956   6.887   5.043   8.755  0.1463 -0.2490  0.2644
  248loPI   GL1 3957   6.838   5.200   8.408  0.3007  0.0178  0.2752
  248loPI   GL2 3958   6.662   5.501   8.324 -0.2333  0.0466  0.3254
  248loPI   C1A 3959   6.809   5.070   7.952  0.2964 -0.2184  0.1221
  248loPI   C2A 3960   6.926   5.048   7.484  0.0601 -0.2958  0.0045
  248loPI   C3A 3961   6.768   5.115   7.152  0.2600 -0.1385  0.0533
  248loPI   C4A 3962   6.940   5.228   6.741  0.1993 -0.1079  0.2866
  248loPI   C5A 3963   6.957   5.465   6.291  0.0600 -0.2753 -0.0369
  248loPI   C6A 3964   7.365   5.446   6.084  0.1517 -0.0676 -0.0421
  248loPI   C1B 3965   6.495   5.459   7.867  0.3178  0.2404  0.3683
  248loPI   C2B 3966   6.354   5.352   7.495  0.1050 -0.1631  0.3169
  248loPI   C3B 3967   6.359   5.350   6.993  0.2169  0.1143 -0.3207
  248loPI   C4B 3968   6.534   5.319   6.528  0.3054 -0.2947 -0.2860
  249loPI    C1 3969   8.084   7.391   9.141 -0.2945  0.0161 -0.1532
  249loPI    C2 3970   7.747   7.458   9.346 -0.2385 -0.2434  0.0296
  249loPI    C3 3971   8.070   7.318   9.534 -0.0523 -0.0777 -0.1605
  249loPI   PO4 3972   7.965   7.283   8.887 -0.2140 -0.3389 -0.3328
  249loPI   GL1 3973   8.162   7.143   8.533 -0.1657  0.0619 -0.0699
  249loPI   GL2 3974   7.895   7.514   8.509  0.0052  0.0940 -0.1499
  249loPI   C1A 3975   8.263   7.224   8.185  0.1182 -0.0181 -0.0534
  249loPI   C2A 3976   8.313   7.336   7.771  0.2797  0.0223  0.2096
  249loPI   C3A 3977   8.551   7.385   7.444  0.0514 -0.0023  0.0167
  249loPI   C4A 3978   8.748   7.494   7.012 -0.4975  0.0255 -0.0385
  249loPI   C5A 3979   8.694   7.344   6.622  0.0082 -0.0211 -0.0002
  249loPI   C6A 3980   8.608   6.953   6.479  0.1609  0.0962  0.0649
  249loPI   C1B 3981   7.819   7.435   8.061  0.2139 -0.1355 -0.0145
  249loPI   C2B 3982   7.723   7.401   7.623  0.2317  0.2318 -0.1120
  249loPI   C3B 3983   7.391   7.543   7.285 -0.1584 -0.1898 -0.3100
  249loPI   C4B 3984   7.249   7.911   7.213  0.3171  0.1907  0.1760
  250loPI    C1 3985  14.285   7.340   9.831 -0.1574 -0.1238 -0.1450
  250loPI    C2 3986  14.202   6.949   9.851 -0.3394 -0.0832 -0.0889
  250loPI    C3 3987  14.206   7.171  10.184 -0.1727 -0.0491 -0.1124
  250loPI   PO4 3988  14.532   7.331   9.561 -0.1774 -0.3687 -0.1453
  250loPI   GL1 3989  14.640   7.351   9.108 -0.0034  0.0272  0.1396
  250loPI   GL2 3990  14.724   7.067   9.014  0.2630 -0.0101 -0.4921
  250loPI   C1A 3991  14.522   7.602   8.763 -0.1126 -0.0498  0.1229
  250loPI   C2A 3992  14.399   7.735   8.300 -0.2186 -0.0035 -0.1278
  250loPI   C3A 3993  14.632   7.697   7.819 -0.2319  0.2163 -0.2098
  250loPI   C4A 3994  14.705   7.408   7.546  0.1508 -0.1393  0.2546
  250loPI   C5A 3995  15.128   7.209   7.512  0.0485 -0.2014 -0.4164
  250loPI   C6A 3996  15.464   7.393   7.531  0.2183  0.0561  0.2323
  250loPI   C1B 3997  14.852   6.894   8.612 -0.1359 -0.1293  0.1487
  250loPI   C2B 3998  14.895   6.865   8.247  0.1404 -0.0745 -0.2792
  250loPI   C3B 3999  14.713   7.120   7.934 -0.4570 -0.2509  0.3084
  250loPI   C4B 4000  14.640   6.938   7.625 -0.1287 -0.0171 -0.0706
  251loPI    C1 4001   1.288   7.457   9.600  0.1025  0.1292 -0.0544
  251loPI    C2 4002   1.656   7.531   9.740  0.0097  0.2046  0.1538
  251loPI    C3 4003   1.483   7.177   9.809  0.0761  0.1374 -0.0186
  251loPI   PO4 4004   1.239   7.466   9.388 -0.1318 -0.1958 -0.0335
  251loPI   GL1 4005   1.205   7.686   9.018 -0.1538 -0.1086  0.3259
  251loPI   GL2 4006   0.828   7.535   9.139  0.0230 -0.2595  0.1278
  251loPI   C1A 4007   0.926   7.974   8.817 -0.1439 -0.1527 -0.2543
  251loPI   C2A 4008   0.937   8.190   8.397  0.1180 -0.1475 -0.0226
  251loPI   C3A 4009   1.009   8.278   8.072  0.0738 -0.3596 -0.0227
  251loPI   C4A 4010   1.169   8.345   7.728 -0.0472 -0.1643 -0.0154
  251loPI   C5A 4011   1.309   8.439   7.241  0.1558 -0.0889  0.1146
  251loPI   C6A 4012   1.668   8.468   7.042 -0.1771  0.0391 -0.2343
  251loPI   C1B 4013   0.564   7.615   8.904 -0.1299 -0.0735  0.3008
  251loPI   C2B 4014   0.318   7.567   8.639  0.0296 -0.2665 -0.0440
  251loPI   C3B 4015   0.041   7.681   8.311 -0.2003 -0.5588 -0.2269
  251loPI   C4B 4016  -0.080   7.640   7.872 -0.4900  0.0917 -0.0186
  252loPI    C1 4017   0.892   1.875   9.497  0.0866  0.1418 -0.0725
  252loPI    C2 4018   1.285   1.814   9.541  0.0631 -0.0547 -0.1264
  252loPI    C3 4019   1.049   1.839   9.863  0.0843 -0.1824 -0.1002
  252loPI   PO4 4020   0.797   1.757   9.213 -0.1121 -0.0299  0.2913
  252loPI   GL1 4021   0.595   1.607   8.919 -0.0811 -0.3840 -0.2339
  252loPI   GL2 4022   0.352   1.366   8.875  0.0690 -0.2218  0.1940
  252loPI   C1A 4023   0.647   1.755   8.541  0.0257 -0.0582  0.1971
  252loPI   C2A 4024   0.753   1.891   8.190 -0.0386  0.3329  0.0050
  252loPI   C3A 4025   0.775   2.032   7.755  0.0531  0.3176 -0.3281
  252loPI   C4A 4026   0.977   1.949   7.297  0.0270  0.4560  0.2631
  252loPI   C5A 4027   0.908   1.887   6.845  0.1082  0.0463  0.0097
  252loPI   C6A 4028   1.214   2.278   6.641  0.0256 -0.2530 -0.0853
  252loPI   C1B 4029   0.578   1.310   8.522  0.0530 -0.1746 -0.3538
  252loPI   C2B 4030   0.484   1.439   8.157  0.0641  0.1509 -0.1457
  252loPI   C3B 4031   0.533   1.574   7.725  0.0510  0.2080 -0.0781
  252loPI   C4B 4032   0.584   1.644   7.336 -0.2338 -0.1798  0.3759
  253loPI    C1 4033   0.414   8.103   9.767 -0.0994 -0.1105  0.0533
  253loPI    C2 4034   0.104   8.089  10.021 -0.2118  0.1284 -0.0672
  253loPI    C3 4035   0.456   8.236  10.142 -0.1867 -0.0085  0.0278
  253loPI   PO4 4036   0.221   8.212   9.518 -0.0357 -0.0472 -0.3731
  253loPI   GL1 4037   0.266   8.356   9.146 -0.3426  0.1196 -0.0599
  253loPI   GL2 4038  -0.056   8.372   9.066  0.1074 -0.0782  0.0565
  253loPI   C1A 4039   0.465   8.136   8.901 -0.1803 -0.0241 -0.1076
  253loPI   C2A 4040   0.481   8.061   8.516 -0.1670  0.1923 -0.2039
  253loPI   C3A 4041   0.514   7.980   8.129 -0.0719 -0.2571  0.3135
  253loPI   C4A 4042   0.218   8.098   7.801  0.1751 -0.0857 -0.0782
  253loPI   C5A 4043   0.314   8.330   7.470 -0.1149 -0.1156  0.0509
  253loPI   C6A 4044   0.153   8.597   7.197 -0.0848  0.0365  0.1654
  253loPI   C1B 4045   0.186   8.539   8.659  0.0628  0.1814 -0.2738
  253loPI   C2B 4046   0.310   8.449   8.200 -0.0593 -0.0942  0.0573
  253loPI   C3B 4047   0.499   8.525   7.885  0.2167  0.1694  0.3948
  253loPI   C4B 4048   0.738   8.555   7.599  0.1485  0.2338  0.2665
  254loPI    C1 4049   7.447   0.937   9.562  0.0560 -0.2204 -0.0331
  254loPI    C2 4050   7.664   0.830   9.881 -0.1743 -0.1395  0.1541
  254loPI    C3 4051   7.310   0.657   9.813 -0.2180 -0.0131  0.0546
  254loPI   PO4 4052   7.560   0.917   9.251  0.2430  0.3353  0.3378
  254loPI   GL1 4053   7.747   0.877   8.852  0.0504  0.1630  0.0495
  254loPI   GL2 4054   8.070   0.774   8.706  0.1390  0.0627 -0.0014
  254loPI   C1A 4055   7.742   1.032   8.423 -0.0230 -0.0977 -0.0640
  254loPI   C2A 4056   7.808   1.047   8.093  0.1175 -0.0247 -0.2138
  254loPI   C3A 4057   7.957   1.034   7.750 -0.0923 -0.0936 -0.1011
  254loPI   C4A 4058   8.002   0.749   7.368 -0.3131 -0.0681 -0.0765
  254loPI   C5A 4059   8.139   0.675   6.983 -0.0074 -0.0548  0.1059
  254loPI   C6A 4060   7.998   0.795   6.509  0.1455 -0.1355  0.0353
  254loPI   C1B 4061   8.150   0.566   8.464 -0.1385 -0.2952 -0.1070
  254loPI   C2B 4062   8.151   0.674   8.138 -0.3150  0.1500  0.1329
  254loPI   C3B 4063   8.335   0.626   7.748  0.0424  0.0145 -0.3306
  254loPI   C4B 4064   8.470   0.863   7.331 -0.4442 -0.2054  0.3061
  255loPI    C1 4065  18.984  15.358  10.739 -0.0051  0.1458  0.0044
  255loPI    C2 4066  18.642  15.563  10.775  0.0779  0.2315  0.3448
  255loPI    C3 4067  18.732  15.276  11.039 -0.0016 -0.2001 -0.0825
  255loPI   PO4 4068  19.051  15.221  10.426 -0.5988  0.0360 -0.0575
  255loPI   GL1 4069  18.910  14.951   9.953  0.3373  0.0440 -0.1271
  255loPI   GL2 4070  19.194  14.851   9.901  0.1502 -0.1467 -0.0456
  255loPI   C1A 4071  18.956  15.036   9.492 -0.2357  0.0434  0.0737
  255loPI   C2A 4072  18.935  15.071   9.081  0.0143 -0.0784  0.0083
  255loPI   C3A 4073  18.934  15.266   8.724 -0.0866 -0.0492 -0.3149
  255loPI   C4A 4074  19.031  15.405   8.331 -0.2640  0.2599  0.2736
  255loPI   C5A 4075  18.839  15.575   7.988 -0.1597 -0.1654  0.1039
  255loPI   C6A 4076  18.706  15.489   7.646  0.1345  0.2392  0.1218
  255loPI   C1B 4077  19.436  14.763   9.540  0.1124  0.0504  0.0354
  255loPI   C2B 4078  19.560  14.631   9.223  0.0931 -0.1191  0.2116
  255loPI   C3B 4079  19.537  14.466   8.764  0.2164  0.1764 -0.0034
  255loPI   C4B 4080  19.474  14.507   8.261 -0.1275  0.3675  0.1200
  256loPI    C1 4081  15.261  11.317   9.920 -0.3701 -0.0812 -0.1295
  256loPI    C2 4082  14.917  11.314  10.124 -0.1700 -0.0577  0.2162
  256loPI    C3 4083  15.265  11.275  10.318  0.0280 -0.0113 -0.1216
  256loPI   PO4 4084  15.185  11.293   9.644 -0.2220  0.1446 -0.2759
  256loPI   GL1 4085  15.360  11.505   9.358  0.0463  0.1742 -0.1165
  256loPI   GL2 4086  15.480  11.268   9.174  0.1240  0.1705  0.3852
  256loPI   C1A 4087  15.194  11.592   8.881  0.1134  0.0489  0.0034
  256loPI   C2A 4088  15.216  11.485   8.449 -0.0197  0.1214 -0.0730
  256loPI   C3A 4089  15.366  11.511   8.019 -0.2048  0.2396 -0.0147
  256loPI   C4A 4090  15.375  11.502   7.651 -0.1511 -0.1218  0.1082
  256loPI   C5A 4091  15.357  11.388   7.304 -0.1444 -0.2860 -0.1871
  256loPI   C6A 4092  15.394  11.162   6.862  0.0433  0.0555 -0.0171
  256loPI   C1B 4093  15.488  11.192   8.774 -0.0221  0.0044 -0.0267
  256loPI   C2B 4094  15.700  11.154   8.431 -0.0357 -0.2677  0.0089
  256loPI   C3B 4095  15.677  11.020   8.131 -0.2269 -0.0955  0.0380
  256loPI   C4B 4096  15.407  11.047   7.759  0.2459 -0.1828 -0.2512
  257loPI    C1 4097  15.565   6.427   9.584 -0.0363 -0.2128  0.1533
  257loPI    C2 4098  15.564   6.797   9.735 -0.0212 -0.0407 -0.2566
  257loPI    C3 4099  15.633   6.484   9.975 -0.1979  0.2048  0.1248
  257loPI   PO4 4100  15.739   6.557   9.248 -0.0067 -0.2135 -0.3461
  257loPI   GL1 4101  15.804   6.684   8.829 -0.0368  0.3378  0.0132
  257loPI   GL2 4102  15.812   6.399   8.792  0.1207  0.1053  0.1257
  257loPI   C1A 4103  15.658   6.548   8.371  0.0062  0.0602 -0.0786
  257loPI   C2A 4104  15.363   6.465   8.065 -0.1031 -0.2476  0.3486
  257loPI   C3A 4105  15.065   6.659   7.740 -0.2499 -0.0914 -0.0742
  257loPI   C4A 4106  15.011   6.796   7.244 -0.0090 -0.1912 -0.2365
  257loPI   C5A 4107  14.770   6.962   7.032 -0.1239 -0.1126  0.0478
  257loPI   C6A 4108  14.544   7.056   6.689  0.1121  0.2603  0.1526
  257loPI   C1B 4109  16.120   6.549   8.426 -0.0178 -0.0336  0.3145
  257loPI   C2B 4110  16.174   6.783   8.053 -0.1767 -0.2461  0.0480
  257loPI   C3B 4111  16.196   6.831   7.667 -0.0907  0.1097  0.0594
  257loPI   C4B 4112  15.992   6.860   7.281  0.0383  0.0754 -0.2275
  258loPI    C1 4113  11.632   3.028  10.256 -0.0196 -0.1435 -0.1396
  258loPI    C2 4114  11.424   3.340  10.116 -0.0446 -0.1275 -0.0672
  258loPI    C3 4115  11.562   3.344  10.491  0.0750 -0.1439 -0.1107
  258loPI   PO4 4116  11.767   2.981  10.027  0.0935  0.2987 -0.2566
  258loPI   GL1 4117  11.679   2.899   9.593 -0.2516 -0.2843  0.2293
  258loPI   GL2 4118  11.664   3.051   9.432 -0.1021 -0.0114  0.0917
  258loPI   C1A 4119  12.039   2.733   9.370  0.2726  0.2933  0.0231
  258loPI   C2A 4120  12.128   2.684   8.926 -0.2869 -0.0584 -0.0313
  258loPI   C3A 4121  12.248   2.360   8.670 -0.2920  0.4328 -0.2443
  258loPI   C4A 4122  12.383   2.254   8.398  0.1574 -0.1063 -0.1619
  258loPI   C5A 4123  12.424   2.372   8.041  0.0633  0.3646 -0.3664
  258loPI   C6A 4124  12.391   2.663   7.746 -0.1527  0.1562  0.3480
  258loPI   C1B 4125  11.726   2.938   9.014  0.1614  0.1036  0.0177
  258loPI   C2B 4126  11.852   3.114   8.583  0.0696  0.1562 -0.0779
  258loPI   C3B 4127  11.964   3.189   8.186  0.0639 -0.2197  0.0653
  258loPI   C4B 4128  12.142   3.108   7.817  0.3184  0.2894  0.0285
  259loPI    C1 4129   3.112   4.091   9.302  0.1156  0.1464  0.0084
  259loPI    C2 4130   2.782   4.113   9.527 -0.0712 -0.0403 -0.2424
  259loPI    C3 4131   2.933   4.443   9.360  0.0773  0.1025  0.1628
  259loPI   PO4 4132   3.077   3.945   9.160 -0.0012  0.1221  0.1457
  259loPI   GL1 4133   3.138   3.822   8.783 -0.3229 -0.0292 -0.2510
  259loPI   GL2 4134   3.428   3.822   8.587  0.3054 -0.3034  0.0323
  259loPI   C1A 4135   2.789   3.981   8.476 -0.0016 -0.1658  0.0307
  259loPI   C2A 4136   2.400   4.180   8.421  0.0179 -0.1981  0.0420
  259loPI   C3A 4137   2.298   4.585   8.242  0.3086  0.1667 -0.0437
  259loPI   C4A 4138   2.046   4.915   7.961 -0.0551  0.3198  0.4675
  259loPI   C5A 4139   1.800   5.004   7.586  0.0526 -0.0003  0.1279
  259loPI   C6A 4140   1.642   4.911   7.299  0.1435 -0.3050  0.4066
  259loPI   C1B 4141   3.600   3.944   8.202 -0.1110  0.0140 -0.3448
  259loPI   C2B 4142   3.408   3.820   7.894  0.0097 -0.1212 -0.2193
  259loPI   C3B 4143   3.470   3.872   7.369  0.0113  0.0011  0.1113
  259loPI   C4B 4144   3.673   4.009   6.916 -0.0234  0.1377 -0.2735
  260loPI    C1 4145  19.128  18.401   9.910 -0.4873 -0.1308 -0.0880
  260loPI    C2 4146  19.157  18.304  10.297 -0.1255  0.0278 -0.0709
  260loPI    C3 4147  19.014  18.662  10.191 -0.2414 -0.0226 -0.0861
  260loPI   PO4 4148  19.342  18.338   9.818  0.0199 -0.0259  0.1396
  260loPI   GL1 4149  19.401  18.035   9.509 -0.3223  0.0294  0.2236
  260loPI   GL2 4150  19.388  17.677   9.515  0.3167  0.0613 -0.4898
  260loPI   C1A 4151  19.606  18.171   9.228  0.0790 -0.1812  0.2364
  260loPI   C2A 4152  19.826  18.184   8.825  0.0884 -0.1646 -0.0826
  260loPI   C3A 4153  19.786  18.055   8.407  0.0685 -0.0550  0.1042
  260loPI   C4A 4154  19.878  18.188   7.997  0.0683 -0.1733  0.1042
  260loPI   C5A 4155  19.732  18.235   7.628 -0.2279 -0.3106  0.0824
  260loPI   C6A 4156  19.657  18.484   7.300  0.0475 -0.3769 -0.1528
  260loPI   C1B 4157  19.372  17.629   9.007  0.0850  0.1722  0.0529
  260loPI   C2B 4158  19.385  17.751   8.532 -0.1315 -0.2206 -0.1917
  260loPI   C3B 4159  19.542  17.777   8.059 -0.2074 -0.2811 -0.1583
  260loPI   C4B 4160  19.397  17.869   7.672  0.1984  0.0421 -0.1446
  261loPI    C1 4161   5.867  10.309   9.805 -0.1475 -0.3754 -0.0191
  261loPI    C2 4162   6.150  10.256  10.082 -0.0758 -0.0380 -0.0247
  261loPI    C3 4163   5.765  10.263  10.189 -0.0730 -0.3105  0.0086
  261loPI   PO4 4164   5.831  10.144   9.568  0.0950 -0.2487 -0.0915
  261loPI   GL1 4165   5.841  10.001   9.087  0.2188  0.0920  0.2405
  261loPI   GL2 4166   6.163  10.224   8.969 -0.1130  0.0664  0.1446
  261loPI   C1A 4167   5.797  10.013   8.644  0.1896 -0.0800 -0.1350
  261loPI   C2A 4168   5.932  10.066   8.304 -0.2857  0.1557  0.1042
  261loPI   C3A 4169   6.194  10.142   7.987 -0.0361  0.0810 -0.2028
  261loPI   C4A 4170   6.163   9.784   7.624  0.1401  0.4331 -0.0874
  261loPI   C5A 4171   6.063   9.377   7.449  0.0811 -0.2189 -0.0945
  261loPI   C6A 4172   6.132   9.047   7.625 -0.1778  0.1190 -0.0929
  261loPI   C1B 4173   6.381  10.305   8.573 -0.2208 -0.0116 -0.2646
  261loPI   C2B 4174   6.705  10.405   8.365  0.2747 -0.2366  0.0669
  261loPI   C3B 4175   6.641  10.508   7.994 -0.0826  0.2647 -0.0618
  261loPI   C4B 4176   6.717  10.691   7.558  0.0414  0.0246 -0.2979
  262loPI    C1 4177   0.240   1.225   9.366  0.0988  0.0473  0.0631
  262loPI    C2 4178   0.174   1.383   9.728 -0.0562 -0.0533  0.0796
  262loPI    C3 4179   0.379   1.041   9.693 -0.1720 -0.1240  0.0854
  262loPI   PO4 4180  -0.004   1.351   9.259 -0.0301 -0.1490  0.1504
  262loPI   GL1 4181  -0.048   1.700   9.069  0.0265 -0.2012 -0.0512
  262loPI   GL2 4182   0.093   1.755   8.933  0.0027 -0.3393  0.1154
  262loPI   C1A 4183  -0.192   1.435   8.651 -0.2147 -0.0552  0.0239
  262loPI   C2A 4184  -0.218   1.309   8.129  0.2399  0.2964  0.0880
  262loPI   C3A 4185   0.109   1.431   7.816 -0.1376  0.1041 -0.3465
  262loPI   C4A 4186   0.248   1.234   7.422  0.0149  0.1526  0.1461
  262loPI   C5A 4187   0.192   1.422   6.957 -0.4962 -0.0953 -0.2078
  262loPI   C6A 4188  -0.099   1.709   6.758 -0.3133  0.0325 -0.0404
  262loPI   C1B 4189   0.142   1.710   8.394  0.0849 -0.1683 -0.1479
  262loPI   C2B 4190   0.261   1.914   8.002 -0.0458 -0.1848 -0.0526
  262loPI   C3B 4191   0.191   1.935   7.603  0.1903  0.0380 -0.2783
  262loPI   C4B 4192  -0.043   1.632   7.342  0.0450 -0.0692 -0.4299
  263loPI    C1 4193   8.406  16.759   9.701 -0.1836 -0.1454 -0.2340
  263loPI    C2 4194   8.366  16.459   9.962  0.1164  0.0474  0.0403
  263loPI    C3 4195   8.176  16.805  10.024 -0.1151 -0.0332 -0.2009
  263loPI   PO4 4196   8.334  16.708   9.437  0.0899  0.0252  0.2627
  263loPI   GL1 4197   8.565  16.547   9.115  0.0634 -0.0094  0.1314
  263loPI   GL2 4198   8.700  16.831   9.071  0.0179 -0.4554  0.1192
  263loPI   C1A 4199   8.319  16.585   8.855  0.0237 -0.0352  0.1583
  263loPI   C2A 4200   8.207  16.552   8.402 -0.0496  0.1919 -0.0482
  263loPI   C3A 4201   8.026  16.550   8.007  0.1381 -0.0061  0.2634
  263loPI   C4A 4202   7.781  16.400   7.593 -0.0160  0.1293 -0.2650
  263loPI   C5A 4203   7.994  16.139   7.248  0.1269 -0.0427 -0.1430
  263loPI   C6A 4204   7.864  16.101   6.821  0.0600 -0.2284 -0.2593
  263loPI   C1B 4205   8.587  16.881   8.531  0.1716 -0.2951  0.3942
  263loPI   C2B 4206   8.529  16.817   8.098  0.0506  0.2419 -0.1576
  263loPI   C3B 4207   8.588  16.742   7.696 -0.4313 -0.0386  0.0213
  263loPI   C4B 4208   8.576  16.813   7.290  0.4791 -0.3623 -0.2654
  264loPI    C1 4209   0.634  11.697  10.340  0.0041  0.0162 -0.0578
  264loPI    C2 4210   0.730  11.335  10.479  0.1582 -0.0534 -0.3397
  264loPI    C3 4211   1.012  11.615  10.441  0.0173  0.1393 -0.0051
  264loPI   PO4 4212   0.548  11.688  10.044  0.1812 -0.0047  0.1129
  264loPI   GL1 4213   0.668  11.751   9.670 -0.1432 -0.1916  0.0746
  264loPI   GL2 4214   0.827  11.499   9.476  0.0631 -0.1772 -0.2321
  264loPI   C1A 4215   0.579  11.982   9.305  0.2458 -0.1034  0.1596
  264loPI   C2A 4216   0.638  11.941   8.862 -0.0563  0.0755  0.0372
  264loPI   C3A 4217   0.601  11.987   8.411 -0.0790 -0.4941  0.2120
  264loPI   C4A 4218   0.501  12.067   8.018  0.3460  0.2103  0.0158
  264loPI   C5A 4219   0.386  12.153   7.576  0.1055  0.2124 -0.1918
  264loPI   C6A 4220   0.430  12.138   7.152  0.1191  0.0604  0.1077
  264loPI   C1B 4221   1.007  11.723   9.074 -0.1093  0.0562 -0.2150
  264loPI   C2B 4222   1.151  11.686   8.708 -0.1594  0.2780  0.1873
  264loPI   C3B 4223   1.168  11.650   8.270 -0.0709  0.0703 -0.0741
  264loPI   C4B 4224   1.066  11.584   7.788 -0.0975  0.1459  0.3991
  265loPI    C1 4225  12.859   8.241   9.990 -0.0781  0.0133 -0.0967
  265loPI    C2 4226  13.244   8.167  10.071 -0.1936 -0.5283  0.0025
  265loPI    C3 4227  13.054   8.466  10.257  0.2100 -0.1646 -0.1523
  265loPI   PO4 4228  12.803   8.291   9.728 -0.0487 -0.2355 -0.0450
  265loPI   GL1 4229  12.914   8.231   9.267 -0.0999 -0.1903 -0.0569
  265loPI   GL2 4230  12.656   8.554   9.291  0.0937 -0.1010 -0.0187
  265loPI   C1A 4231  13.116   8.089   8.840  0.2295  0.0460  0.3867
  265loPI   C2A 4232  13.123   8.176   8.438 -0.1287  0.0063  0.0218
  265loPI   C3A 4233  12.835   8.184   8.091 -0.0865  0.0405 -0.0189
  265loPI   C4A 4234  12.841   8.220   7.664 -0.1501  0.5402 -0.2431
  265loPI   C5A 4235  12.543   8.335   7.354  0.1680  0.0364 -0.0478
  265loPI   C6A 4236  12.292   8.582   7.138  0.0251 -0.0567 -0.0173
  265loPI   C1B 4237  12.622   8.930   9.147 -0.1846  0.2919 -0.0265
  265loPI   C2B 4238  12.445   9.078   8.787  0.3794  0.1515  0.1603
  265loPI   C3B 4239  12.299   9.275   8.475  0.1365 -0.0076  0.5068
  265loPI   C4B 4240  12.411   9.433   8.039 -0.1704  0.2612  0.1550
  266loPI    C1 4241   4.696   6.009   9.246 -0.0988 -0.3006 -0.0960
  266loPI    C2 4242   4.315   5.900   9.305 -0.1347 -0.1016  0.0519
  266loPI    C3 4243   4.591   5.826   9.586 -0.1751  0.2507  0.1890
  266loPI   PO4 4244   4.661   5.989   8.961  0.1200 -0.2776 -0.2428
  266loPI   GL1 4245   4.485   6.189   8.643  0.5756  0.2845  0.0644
  266loPI   GL2 4246   4.391   6.468   8.553 -0.0741  0.0913  0.1136
  266loPI   C1A 4247   4.226   6.205   8.203  0.4936  0.0347  0.1249
  266loPI   C2A 4248   3.993   6.404   7.937 -0.1885  0.1295 -0.0613
  266loPI   C3A 4249   3.963   6.516   7.436 -0.2067  0.4007 -0.0528
  266loPI   C4A 4250   4.099   6.223   7.091  0.0382  0.0231 -0.2775
  266loPI   C5A 4251   4.299   5.779   7.091 -0.1563 -0.1683  0.0826
  266loPI   C6A 4252   4.448   5.591   7.548  0.1489  0.0294  0.2626
  266loPI   C1B 4253   4.207   6.824   8.438 -0.1419 -0.1199  0.0267
  266loPI   C2B 4254   4.015   7.123   8.121 -0.0505 -0.2435 -0.0091
  266loPI   C3B 4255   3.997   7.052   7.701 -0.0516 -0.3108  0.0247
  266loPI   C4B 4256   3.896   6.982   7.233 -0.1148 -0.1039  0.1347
  267loPI    C1 4257  15.500  17.893  10.322 -0.3354 -0.1553 -0.0043
  267loPI    C2 4258  15.403  18.129  10.630  0.2435 -0.1085  0.1524
  267loPI    C3 4259  15.417  17.732  10.679 -0.2070 -0.1447  0.0306
  267loPI   PO4 4260  15.666  17.936  10.100 -0.1945  0.0163 -0.0014
  267loPI   GL1 4261  15.763  18.072   9.677  0.0656 -0.0299  0.0490
  267loPI   GL2 4262  15.860  18.442   9.730 -0.1690 -0.2896  0.2732
  267loPI   C1A 4263  15.821  18.101   9.240  0.0233  0.1053  0.4289
  267loPI   C2A 4264  15.914  18.321   8.832 -0.0852 -0.1273  0.0722
  267loPI   C3A 4265  15.944  18.406   8.345  0.0467 -0.2868  0.1999
  267loPI   C4A 4266  16.065  18.523   8.044 -0.0475  0.1587  0.1355
  267loPI   C5A 4267  15.863  18.450   7.702  0.0679 -0.1031 -0.1168
  267loPI   C6A 4268  15.450  18.394   7.599 -0.0227  0.1728  0.1471
  267loPI   C1B 4269  15.690  18.579   9.239  0.2635 -0.0896  0.3682
  267loPI   C2B 4270  15.373  18.831   8.901  0.5105 -0.1094 -0.2168
  267loPI   C3B 4271  15.345  19.017   8.547 -0.1230 -0.1193 -0.0536
  267loPI   C4B 4272  15.431  19.261   8.295  0.1762  0.1594 -0.1743
  268loPI    C1 4273  11.414  10.226   9.860  0.1467  0.1744 -0.1165
  268loPI    C2 4274  11.351  10.429  10.199 -0.1133  0.0187 -0.0693
  268loPI    C3 4275  11.285  10.034  10.187  0.1995 -0.0315 -0.2150
  268loPI   PO4 4276  11.380  10.401   9.632  0.0707 -0.0854 -0.1238
  268loPI   GL1 4277  11.389  10.299   9.285 -0.1203  0.0641  0.1010
  268loPI   GL2 4278  11.153  10.085   9.201  0.1358  0.1354  0.1448
  268loPI   C1A 4279  11.669  10.400   8.884 -0.4611 -0.1127  0.2086
  268loPI   C2A 4280  11.785  10.667   8.444 -0.1454  0.0906 -0.2177
  268loPI   C3A 4281  11.859  10.931   8.075  0.2202  0.0415  0.0360
  268loPI   C4A 4282  11.897  11.049   7.646  0.0984  0.0045 -0.0712
  268loPI   C5A 4283  12.170  11.124   7.327 -0.0677 -0.0507 -0.1661
  268loPI   C6A 4284  12.140  11.332   7.000  0.2457 -0.2779 -0.2087
  268loPI   C1B 4285  11.275  10.099   8.763  0.0732 -0.1722  0.1990
  268loPI   C2B 4286  11.374  10.272   8.430  0.2350  0.0342  0.2881
  268loPI   C3B 4287  11.501  10.551   7.921 -0.1721 -0.2153 -0.0638
  268loPI   C4B 4288  11.497  10.726   7.508 -0.1968  0.0885 -0.2202
  269loPI    C1 4289  10.818  10.364   9.502 -0.1285  0.0310  0.0659
  269loPI    C2 4290  10.982  10.055   9.695 -0.0508 -0.0463 -0.1219
  269loPI    C3 4291  10.915  10.398   9.889  0.0312 -0.1204  0.0404
  269loPI   PO4 4292  10.638  10.211   9.305 -0.1873 -0.2912 -0.1867
  269loPI   GL1 4293  10.353  10.307   8.939 -0.0046 -0.1632  0.1950
  269loPI   GL2 4294  10.527  10.047   8.777 -0.3169  0.0984  0.1465
  269loPI   C1A 4295  10.298  10.255   8.419 -0.1263 -0.2269 -0.2476
  269loPI   C2A 4296  10.151  10.476   8.141  0.0933 -0.0378  0.1015
  269loPI   C3A 4297  10.193  10.487   7.734  0.0218 -0.2342  0.3667
  269loPI   C4A 4298  10.439  10.863   7.525 -0.2061  0.1090  0.0183
  269loPI   C5A 4299  10.757  10.999   7.165 -0.2027 -0.2316 -0.1304
  269loPI   C6A 4300  10.803  10.579   7.028 -0.1312  0.1818  0.2475
  269loPI   C1B 4301  10.856  10.351   8.515  0.5180 -0.1026  0.1955
  269loPI   C2B 4302  11.067  10.315   8.036 -0.0679  0.2595  0.2880
  269loPI   C3B 4303  11.115  10.126   7.665  0.0186  0.0159  0.2061
  269loPI   C4B 4304  11.201  10.367   7.335  0.0855 -0.3177  0.0048
  270loPI    C1 4305  12.710  15.735   9.987  0.0500 -0.1109  0.1541
  270loPI    C2 4306  12.612  15.361  10.090  0.2272 -0.1583  0.1537
  270loPI    C3 4307  12.716  15.626  10.372  0.0786 -0.1016  0.1562
  270loPI   PO4 4308  12.575  15.694   9.695 -0.3155  0.1402 -0.2694
  270loPI   GL1 4309  12.306  15.760   9.319  0.3696  0.0128  0.4398
  270loPI   GL2 4310  12.170  16.022   9.487 -0.0171  0.8297 -0.3310
  270loPI   C1A 4311  12.197  15.614   8.963  0.2308 -0.4445 -0.4375
  270loPI   C2A 4312  12.135  15.732   8.530 -0.1888 -0.0211 -0.1751
  270loPI   C3A 4313  12.140  15.410   8.243  0.2500 -0.0523  0.2757
  270loPI   C4A 4314  12.059  15.415   7.846  0.0583  0.2891  0.0026
  270loPI   C5A 4315  12.308  15.144   7.533 -0.1922 -0.1103  0.0539
  270loPI   C6A 4316  12.289  15.095   7.173 -0.0911  0.2712  0.1545
  270loPI   C1B 4317  11.998  16.040   9.087 -0.1970  0.0933 -0.1959
  270loPI   C2B 4318  12.058  16.220   8.729  0.2821  0.1487 -0.1433
  270loPI   C3B 4319  12.205  16.294   8.350 -0.0416 -0.1763 -0.1690
  270loPI   C4B 4320  12.393  15.991   8.096  0.0153 -0.1801  0.1673
  271loPI    C1 4321   2.030   0.473   9.570  0.3193  0.1514 -0.0330
  271loPI    C2 4322   2.190   0.478   9.936 -0.1126 -0.2015  0.1701
  271loPI    C3 4323   1.917   0.752   9.833 -0.0465 -0.1476  0.1379
  271loPI   PO4 4324   2.165   0.411   9.377  0.2576  0.2635  0.0979
  271loPI   GL1 4325   2.004   0.308   9.031 -0.0833  0.1218 -0.0874
  271loPI   GL2 4326   1.690   0.215   9.119  0.0050 -0.0605 -0.1609
  271loPI   C1A 4327   2.102   0.266   8.591 -0.2244 -0.1592  0.0119
  271loPI   C2A 4328   1.983   0.166   8.109  0.1257 -0.1748  0.0622
  271loPI   C3A 4329   1.958   0.160   7.599  0.0083  0.0293  0.1275
  271loPI   C4A 4330   2.118   0.020   7.252  0.1691 -0.0047 -0.2133
  271loPI   C5A 4331   1.993   0.094   6.866 -0.3161 -0.1462 -0.0266
  271loPI   C6A 4332   1.762   0.193   6.488  0.0921 -0.0613  0.1419
  271loPI   C1B 4333   1.517   0.181   8.708 -0.2347  0.0502  0.1426
  271loPI   C2B 4334   1.459  -0.007   8.237 -0.0519 -0.3374 -0.0944
  271loPI   C3B 4335   1.608  -0.239   7.904  0.3726  0.0974 -0.3446
  271loPI   C4B 4336   1.852  -0.488   7.629  0.2210  0.1496  0.3614
  272loPI    C1 4337  12.969  10.949  10.136 -0.2557  0.0586 -0.3517
  272loPI    C2 4338  13.225  11.130  10.385 -0.1183 -0.1365 -0.3487
  272loPI    C3 4339  12.936  11.342  10.206 -0.0950  0.0425 -0.1779
  272loPI   PO4 4340  13.173  10.799   9.947  0.0589 -0.3385  0.3147
  272loPI   GL1 4341  13.282  10.880   9.565  0.1498  0.3705  0.0392
  272loPI   GL2 4342  13.421  11.141   9.574 -0.2390 -0.1583 -0.0690
  272loPI   C1A 4343  13.240  10.906   9.211 -0.0214 -0.0821 -0.0186
  272loPI   C2A 4344  13.159  10.972   8.747 -0.1856 -0.2744  0.1276
  272loPI   C3A 4345  13.154  11.043   8.376 -0.1629 -0.0290 -0.1649
  272loPI   C4A 4346  13.261  10.918   7.967  0.0080  0.1332 -0.3234
  272loPI   C5A 4347  13.195  11.143   7.683  0.3752 -0.3251  0.3055
  272loPI   C6A 4348  13.064  11.363   7.335  0.1299  0.0630 -0.3467
  272loPI   C1B 4349  13.457  11.336   9.262  0.4311 -0.1405 -0.1280
  272loPI   C2B 4350  13.516  11.248   8.950 -0.1826  0.2329  0.0945
  272loPI   C3B 4351  13.486  11.365   8.572  0.0405  0.1642  0.1208
  272loPI   C4B 4352  13.553  11.405   8.102 -0.0698 -0.0154 -0.0298
  273loPI    C1 4353   1.161  14.172  10.185 -0.0084  0.0937 -0.0754
  273loPI    C2 4354   1.003  14.415  10.461  0.0540  0.0331  0.0142
  273loPI    C3 4355   0.882  14.034  10.436  0.0470  0.0391 -0.0432
  273loPI   PO4 4356   1.120  14.192   9.952  0.3452  0.1122  0.0956
  273loPI   GL1 4357   1.091  14.254   9.545 -0.1460 -0.0723 -0.0499
  273loPI   GL2 4358   1.078  14.534   9.480  0.1895 -0.1985  0.3424
  273loPI   C1A 4359   0.930  14.142   9.163 -0.0868  0.1236 -0.1356
  273loPI   C2A 4360   0.851  14.101   8.722 -0.4377  0.1687  0.0875
  273loPI   C3A 4361   0.782  13.920   8.241  0.3288 -0.0353 -0.2468
  273loPI   C4A 4362   0.571  13.666   7.907  0.1568 -0.1239 -0.0439
  273loPI   C5A 4363   0.622  13.686   7.427  0.0062 -0.0972  0.1628
  273loPI   C6A 4364   0.674  13.440   7.142  0.2346  0.2329  0.1002
  273loPI   C1B 4365   1.116  14.640   9.125 -0.0106  0.3567 -0.0516
  273loPI   C2B 4366   1.109  14.630   8.776  0.1795 -0.0631 -0.0541
  273loPI   C3B 4367   1.024  14.486   8.322  0.0518  0.2054 -0.1961
  273loPI   C4B 4368   0.983  14.357   7.989 -0.0019  0.2194  0.0619
  274loPI    C1 4369  15.290   5.630   9.660  0.2400 -0.0834 -0.1988
  274loPI    C2 4370  15.193   5.269   9.802  0.0185  0.0582  0.0191
  274loPI    C3 4371  15.459   5.494   9.997  0.1892 -0.0026 -0.1404
  274loPI   PO4 4372  15.397   5.595   9.411  0.1628 -0.3219  0.1429
  274loPI   GL1 4373  15.408   5.322   8.999  0.1564 -0.1880 -0.1214
  274loPI   GL2 4374  15.565   5.176   9.011 -0.1078  0.0984 -0.0850
  274loPI   C1A 4375  15.167   5.348   8.624  0.1153 -0.0221  0.0379
  274loPI   C2A 4376  15.429   5.472   8.226  0.0274 -0.0469  0.0321
  274loPI   C3A 4377  15.286   5.541   7.775 -0.0507 -0.1084  0.2942
  274loPI   C4A 4378  14.931   5.643   7.491 -0.2213  0.0045 -0.0231
  274loPI   C5A 4379  14.671   5.371   7.154  0.1077 -0.0438  0.0048
  274loPI   C6A 4380  14.291   5.035   7.243 -0.1029 -0.0902  0.0953
  274loPI   C1B 4381  15.663   5.173   8.559  0.0213  0.0548  0.3002
  274loPI   C2B 4382  15.804   5.145   8.101 -0.0783  0.1574  0.0258
  274loPI   C3B 4383  15.769   5.422   7.660  0.1901 -0.0638  0.1048
  274loPI   C4B 4384  15.997   5.910   7.511 -0.1221 -0.1457  0.1840
  275loPI    C1 4385   1.999   2.541   9.090 -0.0699  0.2245  0.0621
  275loPI    C2 4386   1.635   2.704   9.050 -0.1460  0.0389 -0.0108
  275loPI    C3 4387   1.801   2.672   9.413 -0.1031  0.3339 -0.0022
  275loPI   PO4 4388   2.069   2.553   8.849  0.0442 -0.0982 -0.1114
  275loPI   GL1 4389   1.940   2.765   8.513  0.2127 -0.1038 -0.0698
  275loPI   GL2 4390   2.290   2.688   8.426  0.0538  0.2545  0.1939
  275loPI   C1A 4391   1.959   2.577   8.064 -0.1900  0.1067 -0.1510
  275loPI   C2A 4392   1.977   2.700   7.575  0.1575 -0.0816 -0.1204
  275loPI   C3A 4393   1.837   2.874   7.268 -0.1585  0.0391  0.3270
  275loPI   C4A 4394   1.914   2.921   6.761  0.1694 -0.3534  0.2120
  275loPI   C5A 4395   1.972   3.000   6.304  0.3182  0.0733  0.1732
  275loPI   C6A 4396   1.856   2.966   5.857  0.0181 -0.2366  0.0125
  275loPI   C1B 4397   2.216   3.095   8.052 -0.0303  0.3067 -0.2918
  275loPI   C2B 4398   1.866   3.184   7.638 -0.0313 -0.0007 -0.1168
  275loPI   C3B 4399   1.803   3.473   7.403 -0.0350  0.2130  0.1590
  275loPI   C4B 4400   1.658   3.912   7.209  0.0144  0.0968  0.1331
  276loPI    C1 4401  15.211  13.479   9.657 -0.2175 -0.1222 -0.0341
  276loPI    C2 4402  15.262  13.628  10.024  0.2979  0.1730 -0.2151
  276loPI    C3 4403  14.894  13.541   9.893  0.0996  0.1468  0.3327
  276loPI   PO4 4404  15.430  13.563   9.578 -0.3200 -0.1322 -0.0020
  276loPI   GL1 4405  15.689  13.465   9.211 -0.2787  0.0170 -0.0576
  276loPI   GL2 4406  15.444  13.591   9.114  0.1098  0.0396  0.2053
  276loPI   C1A 4407  15.924  13.493   8.831 -0.1940 -0.0431  0.0271
  276loPI   C2A 4408  16.014  13.251   8.442 -0.4509 -0.0585  0.4282
  276loPI   C3A 4409  15.903  13.516   7.992  0.3066  0.1828  0.1292
  276loPI   C4A 4410  15.707  13.567   7.653 -0.0306  0.1265  0.3513
  276loPI   C5A 4411  15.679  13.539   7.178 -0.1587 -0.1160  0.4111
  276loPI   C6A 4412  15.422  13.451   6.707 -0.2395  0.2171 -0.0321
  276loPI   C1B 4413  15.596  13.851   8.758 -0.1412  0.0226 -0.0929
  276loPI   C2B 4414  15.785  13.839   8.454  0.0240  0.0157 -0.1268
  276loPI   C3B 4415  16.284  13.803   8.472  0.2930 -0.2133  0.0003
  276loPI   C4B 4416  16.290  13.831   7.993  0.2215 -0.1879  0.1018
  277loPI    C1 4417   7.666   8.276   9.064  0.1111  0.1819  0.1507
  277loPI    C2 4418   7.564   7.966   9.296  0.1311  0.2120  0.2000
  277loPI    C3 4419   7.752   8.281   9.455 -0.1182  0.3631  0.2009
  277loPI   PO4 4420   7.654   8.219   8.858  0.4792  0.0674  0.2032
  277loPI   GL1 4421   7.880   8.074   8.545 -0.2243  0.2985  0.0008
  277loPI   GL2 4422   7.533   7.871   8.541 -0.1245  0.2878  0.0973
  277loPI   C1A 4423   7.940   8.288   8.154  0.0717  0.1055 -0.4660
  277loPI   C2A 4424   7.777   8.533   7.777  0.1809  0.1035 -0.1804
  277loPI   C3A 4425   7.828   8.702   7.421 -0.1604  0.0506  0.2228
  277loPI   C4A 4426   7.732   9.010   7.237 -0.3785  0.0300 -0.0205
  277loPI   C5A 4427   7.677   9.315   6.930 -0.0998 -0.0231 -0.0171
  277loPI   C6A 4428   7.794   9.487   6.613  0.1809 -0.1128 -0.0313
  277loPI   C1B 4429   7.615   7.922   8.077 -0.0834 -0.1378 -0.2856
  277loPI   C2B 4430   7.526   7.910   7.635  0.2811 -0.1289  0.0811
  277loPI   C3B 4431   7.604   8.238   7.396  0.0266  0.0577 -0.1153
  277loPI   C4B 4432   7.496   8.546   7.118 -0.1871  0.3239 -0.0364
  278loPI    C1 4433   6.912  13.042   9.908 -0.1138 -0.1383 -0.0122
  278loPI    C2 4434   6.699  12.827  10.169 -0.2008  0.0740  0.0942
  278loPI    C3 4435   6.828  13.192  10.270  0.1483 -0.0207  0.0021
  278loPI   PO4 4436   6.873  12.875   9.683 -0.0906 -0.2515  0.1320
  278loPI   GL1 4437   6.944  12.728   9.342  0.2390  0.0384  0.1013
  278loPI   GL2 4438   6.599  12.765   9.271 -0.1069 -0.0017  0.1685
  278loPI   C1A 4439   7.058  12.427   9.112  0.2098 -0.0588 -0.1179
  278loPI   C2A 4440   7.032  12.307   8.719  0.0144  0.0290 -0.0744
  278loPI   C3A 4441   6.960  12.194   8.306 -0.2193  0.1291 -0.0701
  278loPI   C4A 4442   6.818  12.060   7.961 -0.1505 -0.1631  0.1121
  278loPI   C5A 4443   6.970  12.091   7.526  0.5017 -0.0718  0.2042
  278loPI   C6A 4444   6.823  11.926   7.129 -0.0555  0.2015  0.2428
  278loPI   C1B 4445   6.780  12.695   8.833 -0.4476  0.0669  0.2521
  278loPI   C2B 4446   6.945  12.715   8.466  0.3108  0.0143 -0.0023
  278loPI   C3B 4447   7.013  12.652   8.007 -0.0944  0.1082  0.1878
  278loPI   C4B 4448   7.252  12.497   7.635  0.0349 -0.1361 -0.2084
  279loPI    C1 4449  14.486   4.471   9.693 -0.3127  0.1248  0.0310
  279loPI    C2 4450  14.420   4.162   9.938  0.1334 -0.0082 -0.0077
  279loPI    C3 4451  14.639   4.473  10.063  0.1600  0.0334 -0.1559
  279loPI   PO4 4452  14.474   4.352   9.483  0.3086  0.1536  0.3703
  279loPI   GL1 4453  14.491   4.078   9.245  0.0963  0.0252  0.1919
  279loPI   GL2 4454  14.323   4.202   8.980 -0.0391  0.0592 -0.1025
  279loPI   C1A 4455  14.852   4.126   8.939  0.0353 -0.1285 -0.1154
  279loPI   C2A 4456  14.881   3.990   8.579 -0.1272 -0.0825  0.1355
  279loPI   C3A 4457  14.860   4.099   8.188 -0.1447 -0.0610 -0.0272
  279loPI   C4A 4458  14.999   4.119   7.718 -0.0458  0.2072 -0.0378
  279loPI   C5A 4459  15.085   4.129   7.304 -0.0476 -0.2136 -0.2404
  279loPI   C6A 4460  15.153   3.947   6.986 -0.0185 -0.1494 -0.0345
  279loPI   C1B 4461  14.465   4.349   8.608  0.1274  0.1915 -0.0953
  279loPI   C2B 4462  14.454   4.396   8.280  0.2114  0.0245 -0.3047
  279loPI   C3B 4463  14.486   4.464   7.858  0.1974 -0.0210  0.2156
  279loPI   C4B 4464  14.715   4.441   7.442  0.1070  0.1439  0.2917
  280loPI    C1 4465   6.337   5.473   9.035  0.0665 -0.0201  0.0819
  280loPI    C2 4466   6.638   5.267   9.199  0.0086 -0.0048  0.2084
  280loPI    C3 4467   6.552   5.636   9.330  0.1793  0.1442 -0.0885
  280loPI   PO4 4468   6.348   5.237   8.761 -0.0612 -0.1622 -0.0917
  280loPI   GL1 4469   6.246   5.188   8.336 -0.2202  0.1377  0.4675
  280loPI   GL2 4470   5.887   5.283   8.184  0.0009 -0.0570  0.2858
  280loPI   C1A 4471   6.268   5.042   7.968 -0.0166  0.0253  0.1320
  280loPI   C2A 4472   6.272   4.869   7.575 -0.2029 -0.1327 -0.0935
  280loPI   C3A 4473   6.215   4.854   7.176 -0.1537  0.1274  0.1499
  280loPI   C4A 4474   6.137   4.846   6.715  0.0996 -0.0653 -0.1557
  280loPI   C5A 4475   5.936   4.804   6.201 -0.0419  0.1483  0.0677
  280loPI   C6A 4476   5.684   4.853   5.869 -0.1582  0.1307 -0.0542
  280loPI   C1B 4477   5.930   5.297   7.754  0.1916  0.2289 -0.0966
  280loPI   C2B 4478   5.857   5.142   7.386  0.2321 -0.3304  0.0065
  280loPI   C3B 4479   5.843   5.212   6.959  0.2287  0.0071 -0.0989
  280loPI   C4B 4480   6.015   5.327   6.556  0.1061 -0.3722 -0.0190
  281loPI    C1 4481   9.718   0.075   9.984  0.1837 -0.2016  0.1033
  281loPI    C2 4482   9.349   0.071   9.830  0.2025  0.1265  0.0407
  281loPI    C3 4483   9.402   0.131  10.222  0.1863 -0.0259  0.0671
  281loPI   PO4 4484   9.820  -0.263   9.817  0.1177  0.3091 -0.0949
  281loPI   GL1 4485   9.819  -0.533   9.460  0.3003 -0.0284 -0.0983
  281loPI   GL2 4486  10.145  -0.370   9.320 -0.0501  0.1112 -0.0503
  281loPI   C1A 4487   9.602  -0.290   9.074  0.4241  0.0509 -0.1556
  281loPI   C2A 4488   9.326  -0.319   8.672 -0.2720 -0.2519 -0.0177
  281loPI   C3A 4489   9.328  -0.207   8.213  0.0365  0.0125  0.2958
  281loPI   C4A 4490   9.553  -0.323   7.873 -0.0182 -0.2574 -0.1236
  281loPI   C5A 4491   9.686  -0.742   7.706  0.0415 -0.1105 -0.1124
  281loPI   C6A 4492   9.869  -1.114   7.662 -0.1736  0.0824  0.1100
  281loPI   C1B 4493  10.027  -0.429   8.985 -0.1544 -0.0554 -0.4074
  281loPI   C2B 4494   9.961  -0.380   8.580 -0.1307 -0.0819 -0.3130
  281loPI   C3B 4495  10.093  -0.243   8.101  0.2235 -0.0634  0.2990
  281loPI   C4B 4496   9.920   0.098   8.018  0.2292  0.0600 -0.0749
  282loPI    C1 4497  16.576  12.938   9.813  0.0966 -0.1071 -0.1841
  282loPI    C2 4498  16.869  12.926   9.541  0.2912 -0.0266  0.0188
  282loPI    C3 4499  16.957  12.902   9.931  0.0316  0.0538  0.0842
  282loPI   PO4 4500  16.377  13.152   9.736 -0.1550  0.0160 -0.2243
  282loPI   GL1 4501  16.198  13.408   9.327  0.0736  0.0040 -0.0338
  282loPI   GL2 4502  16.047  13.046   9.366 -0.0763  0.1099  0.0652
  282loPI   C1A 4503  16.471  13.445   8.909 -0.0703 -0.1419 -0.1490
  282loPI   C2A 4504  16.522  13.377   8.509  0.1471 -0.0115 -0.0383
  282loPI   C3A 4505  16.417  13.349   8.056  0.2366  0.1878 -0.3702
  282loPI   C4A 4506  16.325  13.431   7.604 -0.1761 -0.0281 -0.0132
  282loPI   C5A 4507  16.101  13.217   7.347 -0.4935  0.4125  0.4674
  282loPI   C6A 4508  15.661  13.100   7.435  0.0629 -0.1419 -0.2652
  282loPI   C1B 4509  16.097  13.086   8.936  0.1038  0.1071  0.0321
  282loPI   C2B 4510  16.127  12.784   8.599 -0.0136 -0.2285 -0.0425
  282loPI   C3B 4511  16.173  12.754   8.201 -0.2823 -0.1072 -0.1048
  282loPI   C4B 4512  16.069  13.030   7.867  0.0933  0.0006  0.0832
  283loPI    C1 4513  17.897   4.955   9.767  0.1343  0.0681 -0.0239
  283loPI    C2 4514  18.024   5.142  10.097  0.0480 -0.1479  0.1341
  283loPI    C3 4515  17.938   4.752  10.109 -0.1787 -0.1072 -0.0872
  283loPI   PO4 4516  18.042   5.090   9.563  0.0998 -0.2961  0.4110
  283loPI   GL1 4517  18.197   5.112   9.080 -0.3160  0.1819  0.1439
  283loPI   GL2 4518  18.411   5.314   8.856  0.0017 -0.1732  0.1205
  283loPI   C1A 4519  18.020   4.999   8.683 -0.1350 -0.2795 -0.2440
  283loPI   C2A 4520  17.913   4.922   8.124  0.0015 -0.1702  0.0393
  283loPI   C3A 4521  18.130   4.782   7.750  0.1239  0.1891 -0.2911
  283loPI   C4A 4522  18.150   4.828   7.286 -0.5322  0.0135 -0.2856
  283loPI   C5A 4523  18.356   5.058   6.992  0.0563 -0.0610 -0.0431
  283loPI   C6A 4524  18.292   5.059   6.569  0.0952 -0.0541 -0.1156
  283loPI   C1B 4525  18.427   5.281   8.489 -0.0916 -0.1333  0.0828
  283loPI   C2B 4526  18.460   5.367   8.132 -0.1085  0.1198  0.4015
  283loPI   C3B 4527  18.603   5.189   7.721  0.0708  0.1778 -0.3170
  283loPI   C4B 4528  18.591   4.886   7.393 -0.1987 -0.0539 -0.2521
  284loPI    C1 4529  16.420   5.588   9.654 -0.0404  0.0201  0.1968
  284loPI    C2 4530  16.813   5.660   9.642 -0.0536  0.0708  0.0532
  284loPI    C3 4531  16.672   5.355   9.859  0.0830 -0.0694 -0.0526
  284loPI   PO4 4532  16.381   5.562   9.373  0.2288 -0.2206  0.0675
  284loPI   GL1 4533  16.394   5.725   8.902 -0.0091  0.2568 -0.2019
  284loPI   GL2 4534  16.193   5.835   8.986 -0.2970  0.0278 -0.5075
  284loPI   C1A 4535  16.587   5.499   8.610 -0.0574  0.1388 -0.1405
  284loPI   C2A 4536  16.592   5.558   8.128 -0.0609 -0.1867  0.2466
  284loPI   C3A 4537  16.826   5.551   7.780  0.1676 -0.3276 -0.0033
  284loPI   C4A 4538  16.996   5.513   7.387 -0.3147 -0.0977 -0.1949
  284loPI   C5A 4539  16.963   5.664   7.059 -0.0019  0.2076  0.2474
  284loPI   C6A 4540  16.822   6.008   6.786  0.0702  0.0314 -0.1061
  284loPI   C1B 4541  16.373   5.945   8.469 -0.1453 -0.2423  0.0139
  284loPI   C2B 4542  16.203   6.029   8.060  0.0800 -0.0395  0.0927
  284loPI   C3B 4543  15.897   6.333   7.958 -0.1116 -0.0990  0.5057
  284loPI   C4B 4544  15.774   6.422   7.689  0.2258 -0.0860  0.2319
  285loPI    C1 4545  16.641   2.552  10.359  0.1313  0.4057 -0.0265
  285loPI    C2 4546  16.492   2.770  10.659  0.0249  0.2509  0.0347
  285loPI    C3 4547  16.820   2.549  10.716 -0.1509  0.0073  0.1194
  285loPI   PO4 4548  16.640   2.637  10.136  0.0906 -0.1853  0.0598
  285loPI   GL1 4549  16.606   2.528   9.656 -0.1302  0.0649 -0.0567
  285loPI   GL2 4550  16.778   2.735   9.623  0.0318  0.0823  0.1588
  285loPI   C1A 4551  16.296   2.447   9.408 -0.2597 -0.2393  0.0719
  285loPI   C2A 4552  16.300   2.518   9.002  0.0465  0.0383  0.0542
  285loPI   C3A 4553  16.266   2.306   8.645  0.2082 -0.2181  0.1086
  285loPI   C4A 4554  16.060   2.290   8.266 -0.2619  0.0368  0.1315
  285loPI   C5A 4555  15.957   2.161   7.894  0.0128  0.2746 -0.1007
  285loPI   C6A 4556  15.920   1.892   7.522 -0.0984 -0.0309 -0.1685
  285loPI   C1B 4557  16.749   2.641   9.155 -0.2193  0.4110 -0.0894
  285loPI   C2B 4558  16.798   2.330   8.779 -0.0679  0.1928  0.0910
  285loPI   C3B 4559  16.719   2.358   8.367  0.1628  0.0376  0.0986
  285loPI   C4B 4560  16.473   2.354   8.006 -0.0721 -0.0384  0.0735
  286loPI    C1 4561  16.783   0.753  10.015 -0.2724  0.2480  0.0656
  286loPI    C2 4562  16.921   1.127  10.036 -0.0307  0.1740 -0.1558
  286loPI    C3 4563  17.176   0.819  10.056 -0.2351  0.0181  0.0941
  286loPI   PO4 4564  16.698   0.760   9.732 -0.2237 -0.0573 -0.1266
  286loPI   GL1 4565  16.684   0.914   9.324 -0.2535  0.0941 -0.0740
  286loPI   GL2 4566  16.447   1.147   9.404  0.2858 -0.0833 -0.0774
  286loPI   C1A 4567  16.958   0.871   8.993  0.1750  0.3346 -0.0053
  286loPI   C2A 4568  17.187   0.991   8.694 -0.2345 -0.4612 -0.1955
  286loPI   C3A 4569  17.203   1.079   8.272  0.0672 -0.0514 -0.2175
  286loPI   C4A 4570  16.996   1.140   7.819  0.1667 -0.1734 -0.2148
  286loPI   C5A 4571  16.656   0.961   7.565 -0.1039 -0.5530 -0.2387
  286loPI   C6A 4572  16.465   1.146   7.158 -0.0980  0.0016 -0.2126
  286loPI   C1B 4573  16.370   1.149   8.959 -0.0160  0.0335  0.1210
  286loPI   C2B 4574  16.208   0.910   8.541 -0.2291 -0.0023  0.0699
  286loPI   C3B 4575  16.286   0.925   8.068  0.0431  0.0344 -0.2213
  286loPI   C4B 4576  16.229   1.063   7.718  0.2204  0.1914  0.1163
  287loPI    C1 4577   6.222  17.403   9.579  0.0143 -0.2603  0.0848
  287loPI    C2 4578   6.450  17.250   9.871  0.4303 -0.0637 -0.1287
  287loPI    C3 4579   6.413  17.647   9.833 -0.1115 -0.0919  0.0194
  287loPI   PO4 4580   6.320  17.368   9.392  0.1727  0.1151  0.3304
  287loPI   GL1 4581   6.610  17.328   8.975  0.3552 -0.0906 -0.2569
  287loPI   GL2 4582   6.733  17.590   8.830 -0.0473  0.0017 -0.3039
  287loPI   C1A 4583   6.313  17.449   8.586 -0.1105  0.3244  0.0987
  287loPI   C2A 4584   6.365  17.435   8.195  0.1603  0.0456 -0.2288
  287loPI   C3A 4585   6.682  17.309   7.942 -0.0025  0.1383 -0.0140
  287loPI   C4A 4586   6.643  17.404   7.521 -0.1635  0.1805  0.1848
  287loPI   C5A 4587   6.895  17.357   7.220  0.0465 -0.0943  0.3000
  287loPI   C6A 4588   6.863  16.990   7.089 -0.0406 -0.2524  0.2072
  287loPI   C1B 4589   6.749  17.775   8.374  0.2235  0.0916  0.3341
  287loPI   C2B 4590   6.786  17.786   7.924  0.2448 -0.1990 -0.2006
  287loPI   C3B 4591   7.073  17.577   7.644 -0.0779 -0.2453 -0.0192
  287loPI   C4B 4592   7.365  17.419   7.348 -0.1613  0.1671 -0.0220
  288loPI    C1 4593  10.675   4.436   8.861  0.2114 -0.0077 -0.0651
  288loPI    C2 4594  10.481   4.282   9.174  0.1348 -0.3037 -0.2541
  288loPI    C3 4595  10.295   4.538   8.930  0.1833 -0.1008 -0.0812
  288loPI   PO4 4596  10.850   4.235   8.769  0.2728  0.0155  0.0003
  288loPI   GL1 4597  10.740   4.097   8.310 -0.3208 -0.1284  0.0921
  288loPI   GL2 4598  10.635   3.760   8.202  0.0155  0.0211  0.1200
  288loPI   C1A 4599  10.934   4.243   7.951  0.1357 -0.0984 -0.1653
  288loPI   C2A 4600  10.979   4.231   7.506  0.3815  0.1147 -0.0094
  288loPI   C3A 4601  10.969   4.123   7.145 -0.1484 -0.0093  0.3093
  288loPI   C4A 4602  11.163   4.305   6.762 -0.3933  0.3333  0.0378
  288loPI   C5A 4603  11.385   4.476   6.362  0.0634  0.0465 -0.2561
  288loPI   C6A 4604  11.765   4.149   6.222 -0.2615 -0.2988  0.0983
  288loPI   C1B 4605  10.748   3.708   7.841 -0.2288 -0.0451  0.1343
  288loPI   C2B 4606  10.838   3.694   7.419  0.3643  0.0304  0.0614
  288loPI   C3B 4607  11.042   3.559   6.999 -0.1556  0.2587  0.1262
  288loPI   C4B 4608  11.079   3.328   6.591  0.0256  0.2377  0.0646
  289loPI    C1 4609   9.850  11.832  10.146  0.0218  0.0045 -0.1376
  289loPI    C2 4610   9.480  11.860  10.293  0.0951  0.3115 -0.0040
  289loPI    C3 4611   9.643  11.501  10.230 -0.3377  0.1686 -0.3567
  289loPI   PO4 4612   9.844  11.991   9.898  0.2126 -0.0422 -0.3244
  289loPI   GL1 4613   9.609  12.221   9.672 -0.1619  0.0551 -0.1193
  289loPI   GL2 4614   9.271  12.141   9.587  0.1388 -0.0420  0.2253
  289loPI   C1A 4615   9.810  12.444   9.349  0.0615 -0.0875 -0.1000
  289loPI   C2A 4616   9.925  12.590   8.980 -0.3678 -0.1400 -0.1326
  289loPI   C3A 4617   9.906  12.488   8.531  0.0307  0.0524 -0.0669
  289loPI   C4A 4618   9.935  12.499   8.027  0.1434 -0.2021 -0.1886
  289loPI   C5A 4619   9.958  12.752   7.603  0.1365 -0.0168  0.0999
  289loPI   C6A 4620   9.732  13.104   7.391 -0.3018  0.3326 -0.2539
  289loPI   C1B 4621   9.373  12.230   9.159 -0.2933 -0.0567 -0.0699
  289loPI   C2B 4622   9.381  12.309   8.764  0.1435  0.0903 -0.1119
  289loPI   C3B 4623   9.148  12.267   8.381  0.1898 -0.0408  0.0818
  289loPI   C4B 4624   9.064  12.284   7.912  0.2659 -0.0045  0.2045
  290loPI    C1 4625  19.324   0.969   9.777  0.2171  0.2154 -0.3549
  290loPI    C2 4626  19.181   1.318   9.909  0.2105  0.0920 -0.0258
  290loPI    C3 4627  19.082   0.978  10.095  0.4682 -0.0540 -0.1502
  290loPI   PO4 4628  19.252   0.953   9.541  0.0671  0.0378  0.0915
  290loPI   GL1 4629  19.191   0.712   9.210 -0.1771  0.0995 -0.5043
  290loPI   GL2 4630  19.240   0.604   8.973 -0.1403 -0.3177  0.0760
  290loPI   C1A 4631  19.021   1.018   8.819 -0.0067  0.1861  0.1110
  290loPI   C2A 4632  18.953   0.899   8.378  0.2243 -0.2336  0.4122
  290loPI   C3A 4633  18.781   0.934   7.973 -0.1429  0.2291 -0.0421
  290loPI   C4A 4634  18.640   0.915   7.564  0.2026 -0.0009  0.2206
  290loPI   C5A 4635  18.288   1.106   7.263 -0.2303  0.1168  0.0413
  290loPI   C6A 4636  17.942   1.416   7.543 -0.1261 -0.0919 -0.0434
  290loPI   C1B 4637  19.161   0.509   8.574  0.2975  0.1072  0.5232
  290loPI   C2B 4638  19.175   0.558   8.092  0.2363  0.3546 -0.1522
  290loPI   C3B 4639  18.966   0.542   7.674 -0.2140  0.0612  0.2142
  290loPI   C4B 4640  19.347   0.714   7.394 -0.2013 -0.0832 -0.0721
  291loPI    C1 4641  18.378   0.452   9.746 -0.0603  0.0199 -0.0763
  291loPI    C2 4642  18.735   0.298   9.841 -0.0404  0.0921 -0.0339
  291loPI    C3 4643  18.451   0.333  10.121 -0.1492 -0.1488 -0.1116
  291loPI   PO4 4644  18.333   0.455   9.488 -0.1240  0.0574  0.1622
  291loPI   GL1 4645  18.374   0.246   9.231  0.2917  0.0865 -0.0600
  291loPI   GL2 4646  18.047   0.279   9.143  0.2352 -0.1151 -0.0317
  291loPI   C1A 4647  18.316   0.150   8.733 -0.2712  0.2440  0.1810
  291loPI   C2A 4648  18.328   0.116   8.349  0.4047  0.1836 -0.0409
  291loPI   C3A 4649  18.189   0.131   7.975 -0.0501 -0.1461  0.0600
  291loPI   C4A 4650  17.949   0.277   7.822  0.0734  0.3215  0.0519
  291loPI   C5A 4651  17.482   0.118   7.644 -0.0774  0.2143 -0.1970
  291loPI   C6A 4652  17.053   0.009   7.423  0.1291 -0.0109  0.0047
  291loPI   C1B 4653  17.743   0.093   8.902  0.0342 -0.3791  0.0151
  291loPI   C2B 4654  17.781   0.052   8.449 -0.2600  0.2976 -0.0452
  291loPI   C3B 4655  17.490   0.065   8.139 -0.1144 -0.1807 -0.0373
  291loPI   C4B 4656  17.135  -0.101   7.934 -0.1236  0.0201 -0.1324
  292loPI    C1 4657  18.732   1.771   9.593  0.0848 -0.0487  0.0775
  292loPI    C2 4658  18.699   2.024   9.901  0.0699 -0.0048  0.0399
  292loPI    C3 4659  18.815   1.646   9.964 -0.1590 -0.0616  0.1295
  292loPI   PO4 4660  18.803   1.982   9.354  0.2658 -0.3214 -0.2419
  292loPI   GL1 4661  18.662   2.122   8.959  0.0006  0.0904 -0.2985
  292loPI   GL2 4662  18.705   2.423   8.986 -0.0701  0.2071  0.1898
  292loPI   C1A 4663  18.652   2.132   8.525  0.0073  0.2393 -0.1801
  292loPI   C2A 4664  18.893   2.289   8.181  0.2188 -0.2517  0.3102
  292loPI   C3A 4665  18.689   1.956   7.837  0.1049  0.2716  0.1071
  292loPI   C4A 4666  18.879   1.656   7.542  0.1424  0.3875  0.1157
  292loPI   C5A 4667  19.132   1.274   7.577  0.2838 -0.0396  0.1074
  292loPI   C6A 4668  19.261   0.920   7.797  0.2664  0.2344 -0.1077
  292loPI   C1B 4669  18.666   2.683   8.631  0.0512 -0.0933  0.1131
  292loPI   C2B 4670  18.639   2.807   8.191 -0.3135 -0.0905 -0.0547
  292loPI   C3B 4671  18.612   2.937   7.854 -0.1332  0.0356  0.0001
  292loPI   C4B 4672  18.720   3.080   7.392 -0.0137  0.2039 -0.1718
  293loPI    C1 4673  17.444  16.741  10.009  0.0703  0.3559  0.1409
  293loPI    C2 4674  17.213  16.949  10.262 -0.0924  0.1402  0.1721
  293loPI    C3 4675  17.125  16.568  10.178 -0.0861  0.2316 -0.2706
  293loPI   PO4 4676  17.519  17.068   9.850 -0.2430  0.1600  0.1537
  293loPI   GL1 4677  17.464  17.336   9.529 -0.1943  0.0700  0.1696
  293loPI   GL2 4678  17.346  17.026   9.394  0.0412  0.1521 -0.1098
  293loPI   C1A 4679  17.622  17.436   9.150 -0.1234 -0.3037 -0.3529
  293loPI   C2A 4680  17.833  17.596   8.811  0.0588 -0.0320 -0.0245
  293loPI   C3A 4681  18.020  17.503   8.401  0.0209 -0.3117 -0.3702
  293loPI   C4A 4682  17.995  17.576   7.981  0.0875  0.1674  0.0565
  293loPI   C5A 4683  17.941  17.758   7.606 -0.0975  0.0480  0.1041
  293loPI   C6A 4684  17.756  18.212   7.475  0.2707  0.1758  0.1041
  293loPI   C1B 4685  17.156  16.980   9.049 -0.0452 -0.1785 -0.0499
  293loPI   C2B 4686  17.207  16.823   8.683  0.1509  0.1706 -0.1473
  293loPI   C3B 4687  17.072  16.943   8.234 -0.0128 -0.0920  0.3097
  293loPI   C4B 4688  17.333  17.012   7.900 -0.1198  0.3640 -0.0416
  294loPI    C1 4689  18.358  16.000   9.945  0.1156  0.1038 -0.0810
  294loPI    C2 4690  18.628  16.292   9.984  0.1224  0.0711  0.1251
  294loPI    C3 4691  18.748  15.911   9.965  0.1107  0.0778 -0.1033
  294loPI   PO4 4692  18.176  16.217   9.765  0.2009 -0.1470 -0.0128
  294loPI   GL1 4693  17.851  16.211   9.501 -0.2187  0.0390 -0.0076
  294loPI   GL2 4694  17.743  16.496   9.305 -0.0698 -0.0307  0.2573
  294loPI   C1A 4695  18.047  16.178   9.116 -0.3447 -0.4095  0.0127
  294loPI   C2A 4696  18.015  16.152   8.757 -0.2113 -0.0471  0.0121
  294loPI   C3A 4697  18.024  16.124   8.364  0.1494  0.0381 -0.1518
  294loPI   C4A 4698  18.041  16.109   8.009  0.0966  0.1378  0.1208
  294loPI   C5A 4699  17.903  16.182   7.616  0.1388 -0.0295  0.0949
  294loPI   C6A 4700  17.573  16.230   7.318  0.0604  0.0612  0.2560
  294loPI   C1B 4701  17.701  16.511   8.874  0.2954 -0.1942  0.0994
  294loPI   C2B 4702  17.709  16.495   8.465  0.3231 -0.1895 -0.3054
  294loPI   C3B 4703  17.564  16.687   8.278  0.3604  0.1913  0.0055
  294loPI   C4B 4704  17.588  16.499   7.884 -0.2034 -0.1347 -0.0588
  295loPI    C1 4705   2.365   2.960   8.994 -0.1159 -0.1945  0.2037
  295loPI    C2 4706   2.036   3.129   9.147  0.1460  0.2561  0.2878
  295loPI    C3 4707   2.272   2.906   9.379 -0.2322 -0.2958  0.1620
  295loPI   PO4 4708   2.459   3.009   8.780  0.1487  0.2400 -0.1283
  295loPI   GL1 4709   2.548   3.318   8.486  0.3336 -0.0392 -0.0038
  295loPI   GL2 4710   2.456   3.610   8.437 -0.2686  0.0405 -0.2689
  295loPI   C1A 4711   2.671   3.281   8.093 -0.1422  0.0947 -0.2316
  295loPI   C2A 4712   2.716   3.312   7.678 -0.1100 -0.0722  0.0369
  295loPI   C3A 4713   2.605   3.519   7.382  0.3512 -0.0968 -0.0400
  295loPI   C4A 4714   2.524   3.496   6.881 -0.0584 -0.1738 -0.1652
  295loPI   C5A 4715   2.335   3.202   6.657 -0.0409  0.2594  0.2734
  295loPI   C6A 4716   2.366   2.665   6.719  0.0516 -0.2445  0.2340
  295loPI   C1B 4717   2.535   3.900   8.068  0.1902 -0.0360 -0.5274
  295loPI   C2B 4718   2.524   4.365   7.868 -0.1464 -0.1021  0.0284
  295loPI   C3B 4719   2.162   4.569   7.658  0.1766  0.1438 -0.0655
  295loPI   C4B 4720   2.163   4.768   7.205 -0.0418 -0.1553  0.0866
  296loPI    C1 4721  19.438   9.497   9.582 -0.0544  0.0384  0.0923
  296loPI    C2 4722  19.253   9.669   9.271 -0.0356  0.0044  0.0624
  296loPI    C3 4723  19.038   9.497   9.562 -0.0501 -0.1015 -0.0100
  296loPI   PO4 4724  19.589   9.382   9.441 -0.0847  0.1214 -0.0976
  296loPI   GL1 4725  19.621   9.194   9.137  0.0793 -0.4422  0.0069
  296loPI   GL2 4726  19.671   9.011   9.011  0.0516 -0.2605  0.1217
  296loPI   C1A 4727  19.593   9.494   8.799  0.0678 -0.3880  0.0246
  296loPI   C2A 4728  19.722   9.515   8.397 -0.0273  0.2123  0.0533
  296loPI   C3A 4729  19.684   9.391   7.952 -0.2305  0.1998 -0.1933
  296loPI   C4A 4730  19.589   9.401   7.486  0.2853  0.1756 -0.2772
  296loPI   C5A 4731  19.295   9.502   7.201 -0.0124  0.0949 -0.3412
  296loPI   C6A 4732  18.895   9.399   7.297 -0.1040 -0.2147  0.0582
  296loPI   C1B 4733  19.696   9.019   8.520  0.1953 -0.0552  0.0756
  296loPI   C2B 4734  19.728   8.923   8.046  0.0088  0.1984 -0.2122
  296loPI   C3B 4735  19.718   8.961   7.633  0.0052 -0.1222  0.2161
  296loPI   C4B 4736  19.443   9.052   7.172 -0.1710 -0.1785  0.2726
  297loPI    C1 4737  11.206  17.585  10.030  0.3856  0.0339  0.0624
  297loPI    C2 4738  10.911  17.850  10.082 -0.0848 -0.4766  0.0902
  297loPI    C3 4739  11.130  17.731  10.395  0.1312 -0.1293  0.0771
  297loPI   PO4 4740  11.299  17.646   9.780  0.0820 -0.1073 -0.0976
  297loPI   GL1 4741  11.239  17.593   9.347 -0.1192 -0.2477  0.1746
  297loPI   GL2 4742  10.997  17.502   9.367  0.1484 -0.3015  0.0502
  297loPI   C1A 4743  11.329  17.967   9.110 -0.2156  0.0136 -0.4900
  297loPI   C2A 4744  11.736  18.097   9.036  0.0249  0.0070 -0.1908
  297loPI   C3A 4745  11.692  18.413   8.712 -0.1122 -0.1853 -0.2390
  297loPI   C4A 4746  11.994  18.685   8.518  0.1124 -0.0632  0.0505
  297loPI   C5A 4747  12.154  18.614   8.017 -0.1544 -0.1503  0.0168
  297loPI   C6A 4748  12.148  18.352   7.550 -0.1892 -0.2041  0.0435
  297loPI   C1B 4749  11.019  17.661   8.893  0.2590  0.0080  0.2641
  297loPI   C2B 4750  11.163  17.891   8.523 -0.1060 -0.0240 -0.0922
  297loPI   C3B 4751  11.491  18.013   8.110 -0.0251 -0.3118  0.1911
  297loPI   C4B 4752  11.625  18.521   8.087 -0.0115  0.1019  0.0766
  298loPI    C1 4753  17.426   9.988  10.010  0.0770 -0.1697  0.2429
  298loPI    C2 4754  17.548   9.633  10.146  0.2540 -0.0929  0.2873
  298loPI    C3 4755  17.691   9.969  10.309  0.2984 -0.0007  0.0614
  298loPI   PO4 4756  17.501   9.942   9.752 -0.1072  0.3271 -0.1152
  298loPI   GL1 4757  17.526   9.980   9.398 -0.0903 -0.0274 -0.1135
  298loPI   GL2 4758  17.196  10.030   9.275 -0.1268 -0.0089  0.0991
  298loPI   C1A 4759  17.649   9.929   9.016 -0.0910  0.0789  0.1541
  298loPI   C2A 4760  17.550   9.886   8.529  0.0858  0.1727 -0.3461
  298loPI   C3A 4761  17.692  10.126   8.328 -0.0378  0.1482 -0.1817
  298loPI   C4A 4762  17.872  10.165   7.960 -0.1908  0.1826 -0.1798
  298loPI   C5A 4763  18.013   9.889   7.725  0.6807  0.3903  0.0638
  298loPI   C6A 4764  17.809   9.610   7.357 -0.0724  0.1864  0.5477
  298loPI   C1B 4765  17.140  10.034   8.824  0.0901  0.0495 -0.2004
  298loPI   C2B 4766  17.164  10.207   8.473  0.1809  0.4411 -0.1890
  298loPI   C3B 4767  17.365  10.156   7.979  0.2183 -0.2373 -0.2225
  298loPI   C4B 4768  17.572  10.304   7.603  0.0076  0.3950 -0.1514
  299loPI    C1 4769  12.311   2.591   9.899 -0.0241 -0.2776 -0.0739
  299loPI    C2 4770  12.186   2.343  10.187 -0.0616 -0.1493  0.0214
  299loPI    C3 4771  11.919   2.532   9.957 -0.0340 -0.1672 -0.0255
  299loPI   PO4 4772  12.474   2.444   9.731 -0.0174 -0.0423  0.0967
  299loPI   GL1 4773  12.573   2.292   9.331 -0.0863  0.0772 -0.0868
  299loPI   GL2 4774  12.709   2.047   9.349  0.2870 -0.1377 -0.1745
  299loPI   C1A 4775  12.187   2.095   9.078  0.0168 -0.1349 -0.3116
  299loPI   C2A 4776  11.929   1.993   8.760  0.0091 -0.0099  0.1175
  299loPI   C3A 4777  11.858   2.121   8.368 -0.1692 -0.2149  0.3677
  299loPI   C4A 4778  11.970   2.108   8.045  0.4078 -0.1426 -0.0389
  299loPI   C5A 4779  12.178   2.195   7.676 -0.2102  0.1644 -0.0423
  299loPI   C6A 4780  12.614   2.174   7.615 -0.0285  0.1696 -0.0021
  299loPI   C1B 4781  12.677   2.089   8.902 -0.2086 -0.1755  0.1696
  299loPI   C2B 4782  12.869   2.028   8.434  0.1050  0.0817 -0.2351
  299loPI   C3B 4783  12.917   1.899   7.998  0.0224 -0.0495 -0.0318
  299loPI   C4B 4784  13.184   1.862   7.556 -0.1379 -0.1654 -0.0509
  300loPI    C1 4785  13.641  10.067   9.885  0.1209  0.0586 -0.3006
  300loPI    C2 4786  14.010   9.916   9.912  0.0365 -0.0973  0.0396
  300loPI    C3 4787  13.722   9.783  10.155 -0.2050  0.1401 -0.1113
  300loPI   PO4 4788  13.674  10.004   9.553 -0.1085 -0.0469 -0.3873
  300loPI   GL1 4789  13.738   9.788   9.241  0.3141  0.2447  0.0184
  300loPI   GL2 4790  13.881  10.170   9.100 -0.2089 -0.1013 -0.1513
  300loPI   C1A 4791  13.820   9.649   8.849  0.1317 -0.0849 -0.2124
  300loPI   C2A 4792  14.001   9.394   8.541  0.4368 -0.3994  0.0493
  300loPI   C3A 4793  14.055   9.470   8.153  0.0206 -0.2105  0.0910
  300loPI   C4A 4794  14.149   9.485   7.676 -0.2423  0.0974  0.0192
  300loPI   C5A 4795  14.156   9.894   7.361  0.3730 -0.1783  0.0569
  300loPI   C6A 4796  14.392  10.291   7.335 -0.1442 -0.0924 -0.2284
  300loPI   C1B 4797  13.914  10.195   8.685 -0.1500 -0.1005 -0.0562
  300loPI   C2B 4798  14.177  10.031   8.462 -0.1200 -0.1254  0.0405
  300loPI   C3B 4799  14.494   9.784   8.238 -0.0339 -0.1420 -0.1878
  300loPI   C4B 4800  14.768   9.751   7.913 -0.2273  0.1961  0.1446
  301loPI    C1 4801   7.388  13.286   9.951  0.0198  0.1560 -0.1348
  301loPI    C2 4802   7.595  13.614  10.048  0.0769  0.0980 -0.0580
  301loPI    C3 4803   7.297  13.489  10.284  0.0888  0.0656 -0.0601
  301loPI   PO4 4804   7.261  13.309   9.742 -0.0265  0.1180 -0.0062
  301loPI   GL1 4805   7.035  13.252   9.418  0.0766  0.0116  0.1749
  301loPI   GL2 4806   6.936  13.592   9.376  0.2122  0.0585  0.2967
  301loPI   C1A 4807   6.921  13.114   9.047  0.1123 -0.1758  0.3118
  301loPI   C2A 4808   7.124  13.159   8.670 -0.0782  0.4289  0.1141
  301loPI   C3A 4809   7.225  13.065   8.227 -0.0677 -0.0248  0.0673
  301loPI   C4A 4810   7.474  12.869   7.915  0.1285  0.4220  0.1178
  301loPI   C5A 4811   7.786  12.586   7.698 -0.0120  0.2683 -0.3666
  301loPI   C6A 4812   7.911  12.235   7.819 -0.4064  0.1126 -0.1257
  301loPI   C1B 4813   6.932  13.596   8.824 -0.2953  0.0978 -0.0263
  301loPI   C2B 4814   6.885  13.567   8.410  0.0215 -0.0204  0.1048
  301loPI   C3B 4815   6.986  13.455   7.987  0.2202  0.1397  0.2789
  301loPI   C4B 4816   7.022  13.129   7.735 -0.2337 -0.3240  0.3329
  302loPI    C1 4817  12.991   6.907   9.396 -0.1343  0.0918  0.0081
  302loPI    C2 4818  12.634   6.802   9.543  0.0228 -0.0672  0.2845
  302loPI    C3 4819  12.909   6.964   9.784  0.2775 -0.3119  0.1644
  302loPI   PO4 4820  13.042   7.132   9.182 -0.0487 -0.0346  0.0632
  302loPI   GL1 4821  12.958   7.151   8.791  0.1805 -0.1678  0.1339
  302loPI   GL2 4822  12.773   6.990   8.616  0.0155 -0.0378  0.1043
  302loPI   C1A 4823  12.996   7.129   8.182  0.3244 -0.0730 -0.2292
  302loPI   C2A 4824  13.086   6.885   7.878  0.2365  0.2143 -0.2019
  302loPI   C3A 4825  13.261   6.568   7.569  0.1582  0.0861  0.1778
  302loPI   C4A 4826  13.324   6.620   7.097 -0.1666  0.0090 -0.0752
  302loPI   C5A 4827  13.191   6.940   6.885  0.2247 -0.5514 -0.0150
  302loPI   C6A 4828  13.087   7.237   6.529 -0.3114  0.1958  0.3172
  302loPI   C1B 4829  12.628   6.829   8.353  0.0788  0.4481 -0.3077
  302loPI   C2B 4830  12.580   6.738   7.945 -0.0892  0.0301  0.1035
  302loPI   C3B 4831  12.741   6.852   7.548  0.1691 -0.3011  0.0795
  302loPI   C4B 4832  12.955   6.966   7.364  0.0079 -0.0739 -0.1729
  303loPI    C1 4833   4.161   4.160   9.319 -0.3034  0.2362  0.0239
  303loPI    C2 4834   4.395   4.483   9.346 -0.0305  0.0407  0.0503
  303loPI    C3 4835   4.056   4.463   9.558 -0.0184  0.2813  0.0960
  303loPI   PO4 4836   4.092   4.169   9.060  0.1992 -0.1323 -0.0936
  303loPI   GL1 4837   3.874   4.303   8.803 -0.1202  0.0307 -0.0250
  303loPI   GL2 4838   4.195   4.377   8.541  0.0111  0.1686 -0.2545
  303loPI   C1A 4839   3.712   4.394   8.370 -0.1489 -0.0814 -0.1283
  303loPI   C2A 4840   3.540   4.386   8.066  0.0141 -0.1708  0.2556
  303loPI   C3A 4841   3.468   4.230   7.698 -0.1100 -0.5076  0.0809
  303loPI   C4A 4842   3.483   4.378   7.250  0.0797  0.2568  0.3399
  303loPI   C5A 4843   3.536   4.586   6.833 -0.0371  0.2594 -0.4213
  303loPI   C6A 4844   3.441   4.687   6.482  0.4035 -0.1677 -0.2109
  303loPI   C1B 4845   4.091   4.272   8.105 -0.1445  0.0778 -0.0172
  303loPI   C2B 4846   3.928   4.021   7.776  0.2099 -0.0817  0.1077
  303loPI   C3B 4847   3.966   4.288   7.445  0.1789  0.0732  0.2765
  303loPI   C4B 4848   4.060   4.331   7.066 -0.3384  0.2071  0.2398
  304loPI    C1 4849   1.205  12.361  10.422  0.0705  0.0284 -0.2784
  304loPI    C2 4850   0.807  12.330  10.418  0.0716 -0.0067 -0.1508
  304loPI    C3 4851   1.028  12.043  10.588  0.1346  0.1662  0.0636
  304loPI   PO4 4852   1.279  12.367  10.169  0.0998 -0.0964  0.1605
  304loPI   GL1 4853   1.438  12.414   9.742 -0.1393  0.1881  0.1144
  304loPI   GL2 4854   1.100  12.257   9.666  0.0481  0.0596 -0.0072
  304loPI   C1A 4855   1.436  12.438   9.275  0.0934 -0.2095 -0.1848
  304loPI   C2A 4856   1.569  12.358   8.792  0.1290 -0.0933 -0.3092
  304loPI   C3A 4857   1.629  12.509   8.360  0.3410  0.5098 -0.2756
  304loPI   C4A 4858   1.657  12.625   7.936 -0.0294  0.2207 -0.0869
  304loPI   C5A 4859   1.451  12.981   7.713  0.2960  0.0527 -0.0091
  304loPI   C6A 4860   1.562  13.592   7.690  0.4030 -0.0989 -0.1164
  304loPI   C1B 4861   1.026  12.178   9.233 -0.0743  0.0195 -0.3627
  304loPI   C2B 4862   1.106  12.163   8.800 -0.1351  0.0459  0.1240
  304loPI   C3B 4863   1.118  12.292   8.484 -0.1221 -0.0342 -0.0277
  304loPI   C4B 4864   1.034  12.080   8.065 -0.1601 -0.1720 -0.0541
  305loPI    C1 4865   9.560   2.884   9.189 -0.2109  0.1919  0.0445
  305loPI    C2 4866   9.526   2.589   9.457  0.1335  0.1909  0.0920
  305loPI    C3 4867   9.366   2.948   9.532 -0.2055  0.0475  0.0752
  305loPI   PO4 4868   9.646   2.674   9.007 -0.0164 -0.1400  0.0496
  305loPI   GL1 4869   9.600   2.318   8.672  0.1406 -0.1155  0.0738
  305loPI   GL2 4870   9.712   2.643   8.472 -0.0997  0.1087  0.1843
  305loPI   C1A 4871   9.555   2.160   8.204  0.0169 -0.2226  0.4896
  305loPI   C2A 4872   9.551   2.280   7.715  0.0202 -0.0663 -0.0852
  305loPI   C3A 4873   9.469   2.380   7.328 -0.4339  0.2712  0.1761
  305loPI   C4A 4874   9.433   2.335   6.920 -0.0271 -0.2120 -0.1143
  305loPI   C5A 4875   9.467   2.688   6.606  0.1248  0.0633 -0.2813
  305loPI   C6A 4876   9.448   2.867   6.262  0.2411 -0.1489  0.0659
  305loPI   C1B 4877   9.696   2.732   7.943  0.1925 -0.1735 -0.3281
  305loPI   C2B 4878   9.889   2.718   7.542 -0.0671  0.0965  0.5588
  305loPI   C3B 4879  10.169   2.688   7.132 -0.1451  0.0293  0.2945
  305loPI   C4B 4880  10.418   2.438   6.954 -0.1773  0.0373  0.1366
  306loPI    C1 4881  11.279   6.095   9.625 -0.1841 -0.0691 -0.1715
  306loPI    C2 4882  10.924   6.270   9.687 -0.1711 -0.1171  0.0493
  306loPI    C3 4883  11.251   6.408   9.872 -0.1203 -0.2321  0.0466
  306loPI   PO4 4884  11.367   6.088   9.411  0.2306 -0.2317  0.1617
  306loPI   GL1 4885  11.232   5.816   9.151  0.2834  0.1168 -0.1344
  306loPI   GL2 4886  11.016   5.709   8.948 -0.5551 -0.1360  0.2072
  306loPI   C1A 4887  11.434   5.507   8.759 -0.1367  0.0115 -0.0686
  306loPI   C2A 4888  11.483   5.567   8.263  0.1358  0.2242 -0.2212
  306loPI   C3A 4889  11.530   5.639   7.879 -0.1396 -0.0970  0.2486
  306loPI   C4A 4890  11.640   5.948   7.420  0.0002  0.0300  0.1575
  306loPI   C5A 4891  11.808   6.188   6.979  0.2954  0.0876 -0.2496
  306loPI   C6A 4892  11.780   6.128   6.559 -0.2328  0.1262 -0.1014
  306loPI   C1B 4893  10.935   5.694   8.506 -0.1695 -0.0950  0.3344
  306loPI   C2B 4894  10.997   5.851   8.133 -0.2517 -0.0637  0.2569
  306loPI   C3B 4895  11.197   5.983   7.744  0.0669 -0.2371 -0.2178
  306loPI   C4B 4896  11.214   5.741   7.348 -0.0069  0.5244  0.3760
  307loPI    C1 4897  13.790   5.434   9.666 -0.1877  0.0373  0.0665
  307loPI    C2 4898  13.948   5.287  10.003 -0.0576 -0.1057 -0.0556
  307loPI    C3 4899  13.943   5.682   9.940 -0.1259 -0.0751  0.1346
  307loPI   PO4 4900  13.850   5.122   9.493 -0.0181 -0.4406  0.1120
  307loPI   GL1 4901  13.691   4.899   9.060 -0.0287  0.1204 -0.0850
  307loPI   GL2 4902  13.461   4.776   8.886  0.2616 -0.4538 -0.1332
  307loPI   C1A 4903  13.792   5.200   8.740 -0.5150 -0.1721 -0.1674
  307loPI   C2A 4904  13.759   5.271   8.240 -0.2423 -0.2665 -0.1944
  307loPI   C3A 4905  13.794   5.424   7.764 -0.0203  0.1779  0.4581
  307loPI   C4A 4906  14.178   5.508   7.422  0.1773 -0.1340  0.0247
  307loPI   C5A 4907  14.170   5.473   6.995 -0.1156  0.2571 -0.1314
  307loPI   C6A 4908  13.996   5.480   6.588  0.1510  0.1039 -0.0424
  307loPI   C1B 4909  13.651   4.821   8.468 -0.2995  0.2028 -0.0968
  307loPI   C2B 4910  13.622   4.741   8.124  0.2884  0.1185  0.0796
  307loPI   C3B 4911  13.552   4.550   7.717  0.1125 -0.1372  0.3506
  307loPI   C4B 4912  13.657   4.302   7.368 -0.0000 -0.1249  0.0555
  308loPI    C1 4913  14.747  19.417  10.514 -0.2018  0.0472 -0.1055
  308loPI    C2 4914  15.036  19.685  10.580 -0.0786 -0.0819 -0.1168
  308loPI    C3 4915  14.661  19.762  10.697  0.0150 -0.0381  0.1617
  308loPI   PO4 4916  14.681  19.366  10.211  0.2477  0.4720 -0.2157
  308loPI   GL1 4917  14.846  19.379   9.764 -0.1499  0.1978 -0.2730
  308loPI   GL2 4918  14.557  19.309   9.658  0.1600  0.0963  0.4112
  308loPI   C1A 4919  15.180  19.342   9.410  0.1427  0.0376 -0.1992
  308loPI   C2A 4920  15.489  19.393   9.081 -0.0774  0.2424 -0.4955
  308loPI   C3A 4921  15.745  19.435   8.694 -0.0535 -0.1661 -0.0010
  308loPI   C4A 4922  15.819  19.518   8.313 -0.4366  0.1186 -0.1768
  308loPI   C5A 4923  15.622  19.549   7.912 -0.2642 -0.0418 -0.2178
  308loPI   C6A 4924  15.543  19.697   7.471 -0.4027 -0.1431  0.3113
  308loPI   C1B 4925  14.671  19.445   9.175  0.2596  0.0058 -0.2855
  308loPI   C2B 4926  14.458  19.417   8.756 -0.1269  0.2077  0.1940
  308loPI   C3B 4927  14.368  19.467   8.305 -0.0759 -0.1920 -0.0128
  308loPI   C4B 4928  14.212  19.197   8.014 -0.2325  0.0249  0.1039
  309loPI    C1 4929   7.717   0.130   9.333 -0.1429 -0.2067  0.1914
  309loPI    C2 4930   7.512   0.444   9.193  0.0842 -0.0911  0.1138
  309loPI    C3 4931   7.751   0.486   9.511  0.1185 -0.1842  0.1008
  309loPI   PO4 4932   7.874   0.077   9.172 -0.0662  0.1810 -0.2184
  309loPI   GL1 4933   7.907   0.191   8.819 -0.0943  0.2257 -0.2546
  309loPI   GL2 4934   7.640   0.354   8.745  0.1470  0.0407 -0.2007
  309loPI   C1A 4935   8.104  -0.037   8.503  0.1161  0.0586  0.1671
  309loPI   C2A 4936   8.135   0.093   8.103  0.2012  0.0418  0.1817
  309loPI   C3A 4937   8.126   0.188   7.803  0.1002  0.2771  0.2994
  309loPI   C4A 4938   8.262   0.341   7.364 -0.0634  0.0163  0.0181
  309loPI   C5A 4939   8.562   0.333   6.954  0.3777 -0.1013  0.0778
  309loPI   C6A 4940   8.588   0.256   6.508  0.1919 -0.1039  0.0667
  309loPI   C1B 4941   7.650   0.540   8.323 -0.0356 -0.0552  0.1184
  309loPI   C2B 4942   7.659   0.491   7.875 -0.1896 -0.0097 -0.2135
  309loPI   C3B 4943   7.710   0.165   7.521  0.0176 -0.1661  0.0497
  309loPI   C4B 4944   7.759   0.228   7.063  0.2081  0.0870  0.1883
  310loPI    C1 4945  17.551  15.398   9.976 -0.0279 -0.2316  0.0076
  310loPI    C2 4946  17.366  15.752  10.005  0.1768 -0.1380  0.1949
  310loPI    C3 4947  17.327  15.481  10.297  0.0703 -0.2473  0.0804
  310loPI   PO4 4948  17.444  15.245   9.712  0.0486 -0.1936 -0.0555
  310loPI   GL1 4949  17.305  15.248   9.383  0.1818  0.2066 -0.2438
  310loPI   GL2 4950  17.176  14.951   9.264 -0.2966 -0.3547 -0.0169
  310loPI   C1A 4951  17.424  15.512   9.064  0.0953  0.1673 -0.0692
  310loPI   C2A 4952  17.366  15.550   8.581  0.2218  0.5195 -0.0758
  310loPI   C3A 4953  17.376  15.552   8.141 -0.0177 -0.0529 -0.2762
  310loPI   C4A 4954  17.496  15.284   7.809 -0.1777 -0.3680  0.0423
  310loPI   C5A 4955  17.825  15.225   7.449  0.0321  0.4481 -0.3234
  310loPI   C6A 4956  18.213  15.470   7.320  0.1347  0.1042  0.1508
  310loPI   C1B 4957  17.302  15.119   8.785 -0.1280 -0.3603 -0.2172
  310loPI   C2B 4958  17.120  15.182   8.334 -0.1395 -0.0666 -0.2976
  310loPI   C3B 4959  16.994  15.223   7.953 -0.3202 -0.0820  0.0216
  310loPI   C4B 4960  16.751  15.200   7.491 -0.1411 -0.2270 -0.2280
  311loPI    C1 4961   1.027  19.325  10.150  0.0454 -0.0717  0.0162
  311loPI    C2 4962   1.382  19.230  10.307  0.1111  0.1013 -0.0259
  311loPI    C3 4963   1.053  19.217  10.534  0.1497 -0.0200  0.0239
  311loPI   PO4 4964   1.039  19.141   9.894  0.1962 -0.0353 -0.1425
  311loPI   GL1 4965   0.873  19.156   9.489  0.0094  0.1949 -0.3942
  311loPI   GL2 4966   0.718  19.319   9.303 -0.0963  0.0402  0.3170
  311loPI   C1A 4967   0.576  18.901   9.263  0.2625 -0.0428 -0.1671
  311loPI   C2A 4968   0.156  18.670   9.066  0.2224 -0.1196  0.0737
  311loPI   C3A 4969   0.071  18.583   8.712  0.0309  0.2698 -0.1095
  311loPI   C4A 4970  -0.044  18.454   8.309  0.3064  0.0516 -0.4444
  311loPI   C5A 4971  -0.139  18.309   7.903 -0.0392 -0.1266  0.4303
  311loPI   C6A 4972  -0.344  18.411   7.517 -0.1903 -0.1566  0.0294
  311loPI   C1B 4973   0.793  19.086   8.876  0.1745  0.1681 -0.0924
  311loPI   C2B 4974   0.782  19.035   8.473 -0.0031  0.3048  0.1242
  311loPI   C3B 4975   0.669  18.956   8.079 -0.1289 -0.0401  0.0746
  311loPI   C4B 4976   0.542  19.014   7.651  0.2252 -0.3765  0.0208
  312loPI    C1 4977   3.465   5.782   9.370 -0.0383  0.1207 -0.1067
  312loPI    C2 4978   3.562   5.682   9.745  0.0222  0.0064 -0.1524
  312loPI    C3 4979   3.286   5.964   9.678  0.0028  0.0190 -0.0223
  312loPI   PO4 4980   3.458   5.622   9.228 -0.3782  0.2527 -0.3158
  312loPI   GL1 4981   3.359   5.662   8.805  0.2799 -0.1125  0.1240
  312loPI   GL2 4982   3.384   5.273   8.755  0.1158  0.5241 -0.1961
  312loPI   C1A 4983   3.163   5.717   8.443 -0.0659 -0.2499  0.0584
  312loPI   C2A 4984   3.265   5.885   8.087 -0.0264  0.1162 -0.0335
  312loPI   C3A 4985   3.363   5.716   7.697  0.0034  0.0399 -0.2595
  312loPI   C4A 4986   3.263   5.738   7.266 -0.2668  0.1942 -0.2082
  312loPI   C5A 4987   3.269   5.717   6.823  0.0011 -0.2456  0.0811
  312loPI   C6A 4988   3.222   5.937   6.448  0.0100  0.2017 -0.0904
  312loPI   C1B 4989   3.617   5.056   8.367  0.1211  0.2235 -0.2018
  312loPI   C2B 4990   3.519   5.307   7.940 -0.2046  0.1245 -0.1734
  312loPI   C3B 4991   3.410   5.235   7.574  0.0816 -0.3259 -0.0993
  312loPI   C4B 4992   3.179   5.297   7.158  0.1254 -0.2267 -0.3467
  313loPI    C1 4993   0.641  10.491  10.080  0.3389 -0.0565 -0.0859
  313loPI    C2 4994   0.658  10.868  10.211  0.2221 -0.0347 -0.1313
  313loPI    C3 4995   0.652  10.566  10.473 -0.0208  0.0086 -0.0843
  313loPI   PO4 4996   0.768  10.514   9.854 -0.0183 -0.0796 -0.0478
  313loPI   GL1 4997   0.805  10.277   9.420 -0.0741  0.3568  0.0378
  313loPI   GL2 4998   1.069  10.518   9.405  0.2413 -0.2270 -0.0420
  313loPI   C1A 4999   0.758  10.261   8.930  0.2869 -0.1053 -0.2268
  313loPI   C2A 5000   0.617  10.381   8.460 -0.0925 -0.3443  0.1620
  313loPI   C3A 5001   0.435  10.111   8.050  0.2164 -0.1327 -0.1060
  313loPI   C4A 5002   0.566  10.181   7.717 -0.0984  0.0842 -0.3955
  313loPI   C5A 5003   0.688  10.342   7.288 -0.1013  0.0642  0.1234
  313loPI   C6A 5004   0.326  10.527   7.089 -0.0306 -0.0832  0.1440
  313loPI   C1B 5005   1.154  10.542   9.010 -0.1331  0.0040 -0.0034
  313loPI   C2B 5006   1.089  10.625   8.615  0.0879  0.0588 -0.3342
  313loPI   C3B 5007   0.848  10.720   8.186  0.0279  0.2637 -0.2465
  313loPI   C4B 5008   0.473  10.627   8.063  0.1847 -0.0181 -0.0283
  314loPI    C1 5009  14.008   4.163   9.697  0.0204 -0.0862  0.0256
  314loPI    C2 5010  13.668   4.369   9.748 -0.0453 -0.2066  0.0777
  314loPI    C3 5011  13.997   4.471   9.952 -0.0462 -0.0818  0.0175
  314loPI   PO4 5012  14.024   4.140   9.425  0.1909  0.0444  0.0724
  314loPI   GL1 5013  14.052   3.820   9.145  0.0232  0.0050 -0.0458
  314loPI   GL2 5014  14.274   3.634   9.196 -0.1946  0.0981  0.1625
  314loPI   C1A 5015  14.040   3.837   8.790 -0.0594  0.0706 -0.3344
  314loPI   C2A 5016  14.323   3.835   8.392  0.1682  0.3532  0.0775
  314loPI   C3A 5017  14.415   3.999   8.017 -0.0026  0.0205  0.4031
  314loPI   C4A 5018  14.267   3.933   7.572 -0.3406  0.5729 -0.6656
  314loPI   C5A 5019  14.095   3.987   7.171 -0.0694 -0.0306 -0.2248
  314loPI   C6A 5020  13.849   3.880   6.846  0.0623 -0.0217 -0.0409
  314loPI   C1B 5021  14.500   3.220   9.058  0.0127  0.2564 -0.3061
  314loPI   C2B 5022  14.457   3.170   8.647  0.4702  0.1635 -0.5306
  314loPI   C3B 5023  14.256   3.294   8.362  0.0637 -0.2519 -0.1004
  314loPI   C4B 5024  14.223   3.537   7.949 -0.0866  0.1708  0.1890
  315loPI    C1 5025   9.808  14.356   9.710  0.1746 -0.2892  0.1987
  315loPI    C2 5026   9.810  14.385  10.109 -0.2131  0.3637  0.1689
  315loPI    C3 5027  10.081  14.585   9.893  0.1415 -0.1689  0.0990
  315loPI   PO4 5028   9.553  14.213   9.654 -0.0193 -0.0668  0.0435
  315loPI   GL1 5029   9.284  14.072   9.282  0.3384 -0.0173  0.2360
  315loPI   GL2 5030   9.381  14.367   9.165 -0.2712 -0.0042  0.0537
  315loPI   C1A 5031   9.317  13.727   8.926  0.0299 -0.0669  0.7543
  315loPI   C2A 5032   9.358  13.706   8.533 -0.0080  0.1238  0.1003
  315loPI   C3A 5033   9.290  13.597   8.164 -0.2002  0.1173 -0.0851
  315loPI   C4A 5034   9.102  13.583   7.713 -0.0628 -0.4598 -0.3548
  315loPI   C5A 5035   8.962  13.690   7.239 -0.1505  0.0884 -0.4619
  315loPI   C6A 5036   8.499  13.744   7.001  0.1938 -0.0265 -0.2285
  315loPI   C1B 5037   9.394  14.570   8.755  0.0687 -0.4222  0.0929
  315loPI   C2B 5038   9.426  14.536   8.299  0.4374  0.1221  0.1541
  315loPI   C3B 5039   9.472  14.662   7.857 -0.2652 -0.1203 -0.1095
  315loPI   C4B 5040   9.437  14.852   7.502 -0.0179 -0.0122 -0.2733
  316loPI    C1 5041  11.494   0.406  10.074 -0.2910 -0.0989  0.0858
  316loPI    C2 5042  11.800   0.659  10.121 -0.0082 -0.3836 -0.1665
  316loPI    C3 5043  11.436   0.758  10.254  0.1661  0.0081  0.0374
  316loPI   PO4 5044  11.506   0.292   9.822 -0.3290  0.0466 -0.2078
  316loPI   GL1 5045  11.588   0.166   9.389  0.1836 -0.0114  0.0627
  316loPI   GL2 5046  11.600   0.447   9.326  0.1035  0.3922 -0.1043
  316loPI   C1A 5047  12.085   0.157   9.269  0.1882 -0.2414 -0.0565
  316loPI   C2A 5048  12.467   0.126   9.136  0.0707 -0.0244  0.2402
  316loPI   C3A 5049  12.730  -0.049   8.844  0.0114 -0.0587  0.1237
  316loPI   C4A 5050  12.782  -0.480   8.749 -0.0860 -0.2043  0.1168
  316loPI   C5A 5051  12.947  -0.753   8.616 -0.3055  0.0492 -0.1239
  316loPI   C6A 5052  12.799  -1.159   8.320 -0.1590  0.0470 -0.1366
  316loPI   C1B 5053  11.700   0.552   8.932 -0.1907  0.0068 -0.0408
  316loPI   C2B 5054  11.453   0.791   8.527  0.0871 -0.1163 -0.1361
  316loPI   C3B 5055  11.488   0.889   8.146 -0.1008  0.2779  0.2159
  316loPI   C4B 5056  11.501   1.023   7.695  0.0287 -0.1664 -0.1506
  317loPI    C1 5057   7.869  13.216   9.653  0.2392  0.2466  0.2582
  317loPI    C2 5058   7.841  13.046  10.014  0.1248 -0.0837  0.0974
  317loPI    C3 5059   8.176  13.005   9.799 -0.0992 -0.5917 -0.1732
  317loPI   PO4 5060   7.612  13.065   9.492  0.0188  0.0636 -0.1297
  317loPI   GL1 5061   7.495  12.977   9.193  0.0088 -0.0022  0.1995
  317loPI   GL2 5062   7.394  12.836   8.932  0.1647 -0.3857  0.5185
  317loPI   C1A 5063   7.368  13.387   9.021 -0.1010 -0.1039  0.1263
  317loPI   C2A 5064   7.414  13.643   8.635 -0.0895 -0.2324 -0.3155
  317loPI   C3A 5065   7.348  13.588   8.292 -0.2687  0.0597 -0.1040
  317loPI   C4A 5066   7.457  13.363   7.879  0.0265  0.0981 -0.2695
  317loPI   C5A 5067   7.635  13.535   7.565 -0.2272  0.0971  0.1868
  317loPI   C6A 5068   7.534  13.744   7.146 -0.3007 -0.1314 -0.0863
  317loPI   C1B 5069   7.472  12.683   8.490  0.0735  0.0129 -0.0954
  317loPI   C2B 5070   7.776  12.595   8.176 -0.4114 -0.1570 -0.1664
  317loPI   C3B 5071   8.135  12.525   8.118  0.0275 -0.2915  0.0202
  317loPI   C4B 5072   8.249  12.169   8.218  0.0940 -0.2766  0.3558
  318loPI    C1 5073  17.068   3.349   9.746 -0.2055 -0.1061 -0.0619
  318loPI    C2 5074  17.416   3.195   9.622 -0.1169  0.0330  0.0119
  318loPI    C3 5075  17.076   3.096   9.436 -0.0272 -0.0333 -0.1180
  318loPI   PO4 5076  17.085   3.587   9.711 -0.3088  0.1378  0.0032
  318loPI   GL1 5077  17.260   3.750   9.300  0.1036 -0.4087  0.0678
  318loPI   GL2 5078  17.071   3.532   9.196  0.0773  0.0166 -0.0932
  318loPI   C1A 5079  17.377   4.137   8.900  0.2338  0.0961  0.2862
  318loPI   C2A 5080  17.294   4.043   8.412 -0.0856 -0.1795 -0.2677
  318loPI   C3A 5081  17.273   4.152   7.982  0.2049 -0.1710  0.0669
  318loPI   C4A 5082  17.160   4.160   7.507 -0.3210  0.2608  0.0025
  318loPI   C5A 5083  17.303   3.910   7.197  0.0572 -0.1502 -0.0563
  318loPI   C6A 5084  17.411   3.544   6.991 -0.1485  0.2179  0.1496
  318loPI   C1B 5085  17.150   3.698   8.740  0.2832 -0.1191  0.1387
  318loPI   C2B 5086  17.111   3.626   8.238  0.2121 -0.1825  0.1269
  318loPI   C3B 5087  17.271   3.305   8.181  0.0261 -0.0857  0.0526
  318loPI   C4B 5088  17.274   3.061   7.827  0.2931  0.0766  0.0927
  319loPI    C1 5089   1.099  18.060  10.028 -0.1037  0.0446  0.1036
  319loPI    C2 5090   1.353  18.337  10.164 -0.0089  0.0827 -0.1458
  319loPI    C3 5091   1.013  18.264  10.361 -0.0820  0.4458 -0.1300
  319loPI   PO4 5092   1.279  17.887   9.898 -0.0289  0.0208 -0.0572
  319loPI   GL1 5093   1.351  17.962   9.553 -0.0620 -0.0763 -0.4099
  319loPI   GL2 5094   1.395  17.813   9.349 -0.1062  0.3869 -0.1212
  319loPI   C1A 5095   1.008  18.017   9.090 -0.0804 -0.1975  0.0577
  319loPI   C2A 5096   0.851  18.143   8.758 -0.1104  0.1474  0.1325
  319loPI   C3A 5097   0.801  18.164   8.341  0.3166 -0.1372  0.0019
  319loPI   C4A 5098   0.907  18.022   7.978 -0.1534  0.0792  0.1994
  319loPI   C5A 5099   0.798  18.115   7.589  0.2185  0.0576  0.0212
  319loPI   C6A 5100   0.690  18.462   7.411  0.0276  0.0126 -0.2990
  319loPI   C1B 5101   1.439  17.788   8.977 -0.2308  0.1131  0.2659
  319loPI   C2B 5102   1.759  17.716   8.662 -0.1477  0.4110 -0.2627
  319loPI   C3B 5103   1.700  17.770   8.239 -0.1523 -0.2784 -0.1098
  319loPI   C4B 5104   1.889  17.447   8.160  0.1945  0.0222  0.3409
  320loPI    C1 5105   6.948  16.820   9.747  0.1601 -0.0371  0.0704
  320loPI    C2 5106   7.214  17.088   9.879  0.0082  0.1379  0.0239
  320loPI    C3 5107   7.142  16.757  10.091 -0.0051  0.2668  0.2229
  320loPI   PO4 5108   6.974  16.679   9.548 -0.0827 -0.1018  0.1572
  320loPI   GL1 5109   7.147  16.409   9.329  0.1741  0.1404  0.1204
  320loPI   GL2 5110   7.489  16.326   9.271  0.2373  0.0373 -0.1306
  320loPI   C1A 5111   6.922  16.308   8.931  0.1387  0.0210  0.0214
  320loPI   C2A 5112   6.964  16.089   8.567  0.1124  0.0808  0.2311
  320loPI   C3A 5113   7.114  15.787   8.267  0.2168  0.0435 -0.0133
  320loPI   C4A 5114   7.253  15.426   8.099 -0.1871  0.3226 -0.0148
  320loPI   C5A 5115   7.617  15.224   7.887  0.1238  0.0554  0.0723
  320loPI   C6A 5116   7.856  15.029   7.630 -0.0892  0.2803  0.0646
  320loPI   C1B 5117   7.374  16.176   8.849 -0.0249 -0.0702  0.1093
  320loPI   C2B 5118   7.502  16.122   8.435  0.0920  0.0079 -0.0005
  320loPI   C3B 5119   7.690  16.463   8.386 -0.2781 -0.2225 -0.0739
  320loPI   C4B 5120   7.745  16.584   8.683 -0.1079  0.1482 -0.1826
  321loPI    C1 5121  15.705  17.371  10.257 -0.0435  0.1148  0.0510
  321loPI    C2 5122  15.667  17.068  10.516 -0.1671 -0.0721 -0.1818
  321loPI    C3 5123  15.351  17.297  10.428 -0.0515  0.1898  0.0676
  321loPI   PO4 5124  15.786  17.258  10.054  0.0211 -0.0144  0.0373
  321loPI   GL1 5125  15.930  17.165   9.627 -0.2713  0.1825  0.0148
  321loPI   GL2 5126  16.138  17.252   9.508 -0.0973  0.1913  0.0312
  321loPI   C1A 5127  15.700  17.235   9.272 -0.2476  0.0524 -0.1661
  321loPI   C2A 5128  15.705  17.357   8.891  0.1370 -0.1047  0.2322
  321loPI   C3A 5129  15.678  17.402   8.481  0.0506  0.1592 -0.0683
  321loPI   C4A 5130  15.583  17.522   8.081  0.1471 -0.3526 -0.1955
  321loPI   C5A 5131  15.541  17.861   7.708  0.0602  0.0758 -0.0895
  321loPI   C6A 5132  15.470  17.745   7.298  0.0074  0.0597  0.1503
  321loPI   C1B 5133  16.282  17.177   9.089 -0.1560  0.0309 -0.0681
  321loPI   C2B 5134  16.169  17.192   8.599 -0.1199 -0.4129 -0.0578
  321loPI   C3B 5135  16.314  16.983   8.298 -0.3871  0.1733  0.0462
  321loPI   C4B 5136  16.206  16.947   7.820 -0.0324  0.1735  0.1038
  322loPI    C1 5137   8.077  18.859   9.770 -0.3231  0.1418 -0.0096
  322loPI    C2 5138   7.961  18.528   9.961 -0.0477  0.0643  0.0274
  322loPI    C3 5139   7.781  18.877  10.038  0.1443  0.0614  0.5316
  322loPI   PO4 5140   8.315  18.759   9.633  0.1508  0.0858  0.2587
  322loPI   GL1 5141   8.544  18.443   9.302 -0.3375 -0.1662 -0.1639
  322loPI   GL2 5142   8.729  18.693   9.059  0.4586  0.4077  0.1980
  322loPI   C1A 5143   8.242  18.606   8.823  0.3959 -0.0403 -0.0144
  322loPI   C2A 5144   8.432  18.708   8.437 -0.0285 -0.2694  0.0081
  322loPI   C3A 5145   8.622  18.600   8.064 -0.2069 -0.3348  0.1135
  322loPI   C4A 5146   8.763  18.589   7.599 -0.1308 -0.2373 -0.3691
  322loPI   C5A 5147   8.828  18.983   7.336  0.0262 -0.1543 -0.2265
  322loPI   C6A 5148   8.695  19.279   7.058 -0.2424  0.3609 -0.0026
  322loPI   C1B 5149   8.719  18.390   8.728 -0.1410 -0.1109  0.1361
  322loPI   C2B 5150   8.892  18.322   8.385  0.0988 -0.0714 -0.1385
  322loPI   C3B 5151   9.127  17.995   8.166  0.1055 -0.1459 -0.3051
  322loPI   C4B 5152   9.422  17.883   7.756  0.0595 -0.1098 -0.1649
  323loPI    C1 5153  11.146  12.801  10.492 -0.0296  0.0646 -0.1753
  323loPI    C2 5154  11.214  13.163  10.337 -0.2356  0.1410 -0.0897
  323loPI    C3 5155  11.084  13.128  10.714  0.3415 -0.0466  0.1017
  323loPI   PO4 5156  11.391  12.611  10.391 -0.2024 -0.2049  0.3614
  323loPI   GL1 5157  11.549  12.228  10.378  0.0854  0.0512 -0.2168
  323loPI   GL2 5158  11.717  11.937  10.153  0.1553  0.0558  0.1006
  323loPI   C1A 5159  11.780  12.399   9.954  0.1238  0.0914 -0.1324
  323loPI   C2A 5160  12.120  12.406   9.651 -0.2365 -0.1818  0.0039
  323loPI   C3A 5161  12.471  12.397   9.317  0.1498  0.2624 -0.0028
  323loPI   C4A 5162  12.609  12.370   9.023 -0.2263  0.0199 -0.3955
  323loPI   C5A 5163  12.446  12.295   8.556 -0.1794 -0.0066  0.1947
  323loPI   C6A 5164  12.094  12.170   8.607 -0.0623  0.2622 -0.0441
  323loPI   C1B 5165  11.883  11.869   9.609  0.1280  0.1591 -0.0031
  323loPI   C2B 5166  12.130  12.082   9.236  0.0127  0.1740 -0.0574
  323loPI   C3B 5167  12.121  12.499   8.964 -0.1634 -0.1578 -0.3695
  323loPI   C4B 5168  12.077  12.679   8.658  0.1219 -0.0072 -0.4705
  324loPI    C1 5169   5.028  13.455   9.673  0.1944  0.2073 -0.1702
  324loPI    C2 5170   5.252  13.493  10.002 -0.3117 -0.0395  0.2172
  324loPI    C3 5171   5.128  13.131   9.885 -0.1914  0.0534 -0.2154
  324loPI   PO4 5172   5.061  13.697   9.557 -0.2768 -0.6577  0.0634
  324loPI   GL1 5173   5.104  13.891   9.249  0.1430 -0.0846  0.1348
  324loPI   GL2 5174   4.948  13.695   9.060 -0.1606 -0.0279 -0.0842
  324loPI   C1A 5175   5.365  13.991   8.898  0.2217  0.0001 -0.0260
  324loPI   C2A 5176   5.398  13.913   8.429 -0.1229  0.1938 -0.2698
  324loPI   C3A 5177   5.547  13.775   8.148 -0.2397 -0.0466  0.2003
  324loPI   C4A 5178   5.576  13.548   7.812  0.1368 -0.0402  0.0245
  324loPI   C5A 5179   5.898  13.270   7.499  0.1517 -0.1833  0.1806
  324loPI   C6A 5180   6.206  13.153   7.464  0.1642  0.3750  0.3655
  324loPI   C1B 5181   4.887  13.967   8.733  0.0279  0.1371 -0.1743
  324loPI   C2B 5182   4.845  13.970   8.329  0.3378  0.1551 -0.1936
  324loPI   C3B 5183   4.656  13.937   7.936 -0.4262  0.1193  0.2739
  324loPI   C4B 5184   4.356  13.878   7.612 -0.0578 -0.1255 -0.0773
  325loPI    C1 5185   4.927   0.964   9.298 -0.0824  0.0580  0.0261
  325loPI    C2 5186   5.326   0.949   9.319 -0.0948 -0.1909  0.1157
  325loPI    C3 5187   5.105   0.864   9.642 -0.2208 -0.0520  0.0670
  325loPI   PO4 5188   4.906   0.947   8.954  0.3949  0.3876 -0.3927
  325loPI   GL1 5189   4.977   0.798   8.635 -0.1044 -0.0706  0.0703
  325loPI   GL2 5190   4.631   0.710   8.547 -0.1062  0.2552  0.3067
  325loPI   C1A 5191   5.024   0.778   8.236 -0.0086 -0.2233  0.4001
  325loPI   C2A 5192   4.852   0.758   7.819  0.2182  0.1372  0.0638
  325loPI   C3A 5193   4.922   0.772   7.451 -0.0231  0.0721  0.0642
  325loPI   C4A 5194   4.990   0.535   7.163 -0.2380 -0.1049  0.1823
  325loPI   C5A 5195   4.978   0.619   6.708  0.1395  0.0559  0.2848
  325loPI   C6A 5196   5.076   0.761   6.343 -0.2328  0.0064 -0.0117
  325loPI   C1B 5197   4.490   0.712   8.163  0.0026  0.0161 -0.0522
  325loPI   C2B 5198   4.298   0.746   7.756  0.0618  0.3551 -0.1271
  325loPI   C3B 5199   3.885   0.784   7.518 -0.1085 -0.0788  0.0639
  325loPI   C4B 5200   3.474   0.721   7.377 -0.2848 -0.1418 -0.0785
  326loPI    C1 5201  18.506   5.264   9.768  0.1562  0.1465  0.0326
  326loPI    C2 5202  18.576   5.657   9.738  0.0777  0.1732  0.1944
  326loPI    C3 5203  18.395   5.510  10.063 -0.1346  0.0370  0.0172
  326loPI   PO4 5204  18.570   5.174   9.462 -0.1870 -0.0827 -0.4999
  326loPI   GL1 5205  18.868   5.063   9.130  0.1647 -0.4119 -0.1477
  326loPI   GL2 5206  18.643   4.875   9.028 -0.0229 -0.0630 -0.1979
  326loPI   C1A 5207  18.992   5.332   8.765 -0.0422  0.1234 -0.0419
  326loPI   C2A 5208  18.933   5.285   8.276  0.0142 -0.2336 -0.0496
  326loPI   C3A 5209  19.094   5.328   7.786 -0.0999  0.0851  0.1303
  326loPI   C4A 5210  19.050   5.193   7.327  0.2121 -0.1223  0.0318
  326loPI   C5A 5211  19.125   5.436   6.972 -0.2026  0.2085 -0.0158
  326loPI   C6A 5212  19.054   5.698   6.610 -0.4455 -0.1594  0.2911
  326loPI   C1B 5213  18.727   4.889   8.560  0.0381  0.5095 -0.2147
  326loPI   C2B 5214  18.557   4.854   8.128  0.1252 -0.1107  0.0814
  326loPI   C3B 5215  18.807   4.665   7.751  0.0232  0.0986 -0.2705
  326loPI   C4B 5216  18.966   4.449   7.471 -0.0557  0.0943 -0.1531
  327loPI    C1 5217   6.054   7.375   8.970  0.1784 -0.1352 -0.1039
  327loPI    C2 5218   6.394   7.587   8.962  0.1068 -0.0238 -0.2393
  327loPI    C3 5219   6.345   7.298   9.234  0.1361  0.2478  0.0610
  327loPI   PO4 5220   6.055   7.260   8.715  0.1321 -0.0249 -0.1198
  327loPI   GL1 5221   5.906   7.440   8.408  0.3516 -0.0618  0.0569
  327loPI   GL2 5222   5.726   7.252   8.183  0.0180  0.3739  0.2363
  327loPI   C1A 5223   6.201   7.521   8.097  0.0410 -0.1403  0.1707
  327loPI   C2A 5224   6.095   7.585   7.659 -0.2262 -0.1157 -0.2253
  327loPI   C3A 5225   5.950   7.648   7.292  0.1879  0.0396  0.0584
  327loPI   C4A 5226   5.636   7.610   6.962  0.0926 -0.2116  0.2004
  327loPI   C5A 5227   5.548   7.495   6.525 -0.2675  0.1096 -0.0947
  327loPI   C6A 5228   5.643   7.585   6.093  0.0989 -0.1844  0.1365
  327loPI   C1B 5229   5.616   7.303   7.802 -0.2767 -0.0215  0.0273
  327loPI   C2B 5230   5.459   7.323   7.359  0.0384 -0.0710 -0.1723
  327loPI   C3B 5231   5.203   7.424   6.912  0.0112  0.0318 -0.1071
  327loPI   C4B 5232   4.900   7.318   6.600 -0.0455  0.1016  0.0495
  328loPI    C1 5233   8.353  12.260   9.875 -0.0336 -0.0639  0.0599
  328loPI    C2 5234   8.008  12.200  10.068 -0.0298 -0.2236  0.0182
  328loPI    C3 5235   8.341  12.280  10.274 -0.1193  0.0762  0.0509
  328loPI   PO4 5236   8.265  12.483   9.687  0.1203 -0.0092  0.0936
  328loPI   GL1 5237   8.146  12.627   9.310  0.2393  0.2534 -0.2291
  328loPI   GL2 5238   7.940  12.698   9.215  0.2603 -0.2036  0.0296
  328loPI   C1A 5239   8.394  12.529   9.011  0.0805  0.0358  0.0790
  328loPI   C2A 5240   8.479  12.443   8.604 -0.1832  0.1252 -0.1005
  328loPI   C3A 5241   8.682  12.406   8.234  0.0821  0.0009 -0.0718
  328loPI   C4A 5242   8.531  12.361   7.860 -0.0664  0.0445  0.0025
  328loPI   C5A 5243   8.233  12.512   7.529 -0.1632 -0.0293  0.0767
  328loPI   C6A 5244   7.938  12.732   7.236  0.3864  0.2917  0.1917
  328loPI   C1B 5245   7.605  12.434   9.122 -0.1611  0.0221  0.0498
  328loPI   C2B 5246   7.551  12.197   8.816  0.1978  0.1180  0.1405
  328loPI   C3B 5247   7.481  12.099   8.454 -0.3908  0.0131 -0.1648
  328loPI   C4B 5248   7.367  12.354   8.129  0.0470  0.0033  0.0220
  329loPI    C1 5249  15.098  12.714  10.017 -0.2079  0.1027  0.0442
  329loPI    C2 5250  15.330  13.024   9.919 -0.1628  0.0711  0.0507
  329loPI    C3 5251  15.446  12.769  10.205 -0.0324 -0.1520 -0.1968
  329loPI   PO4 5252  14.986  12.656   9.797 -0.0590  0.0575  0.1269
  329loPI   GL1 5253  14.849  13.024   9.565  0.1431 -0.0045 -0.6214
  329loPI   GL2 5254  15.009  13.174   9.262  0.0562 -0.2333 -0.2901
  329loPI   C1A 5255  14.641  12.833   9.120 -0.0103 -0.0347  0.1592
  329loPI   C2A 5256  14.666  12.964   8.707  0.0041  0.2240  0.0360
  329loPI   C3A 5257  14.653  13.069   8.321 -0.0048 -0.1940 -0.0970
  329loPI   C4A 5258  14.388  13.184   7.980 -0.1924  0.5103 -0.1350
  329loPI   C5A 5259  14.261  13.282   7.489  0.1322 -0.3259  0.1120
  329loPI   C6A 5260  14.605  13.555   7.283 -0.0064 -0.0230  0.4492
  329loPI   C1B 5261  15.035  13.277   8.839 -0.1695 -0.2018  0.1305
  329loPI   C2B 5262  15.031  13.348   8.460  0.1321  0.0792  0.0320
  329loPI   C3B 5263  14.997  13.352   7.984  0.1801  0.1009  0.0213
  329loPI   C4B 5264  14.760  13.248   7.608 -0.4484 -0.0681  0.0712
  330loPI    C1 5265  16.158   9.384  10.000 -0.3239  0.2411  0.0585
  330loPI    C2 5266  16.091   9.736  10.176  0.0433  0.1225  0.4543
  330loPI    C3 5267  16.229   9.429  10.391 -0.1783 -0.2387  0.0939
  330loPI   PO4 5268  16.302   9.522   9.752 -0.0842 -0.0065 -0.2125
  330loPI   GL1 5269  16.481   9.388   9.309 -0.0348  0.1645 -0.2934
  330loPI   GL2 5270  16.137   9.242   9.087 -0.0114 -0.0687  0.1684
  330loPI   C1A 5271  16.450   9.764   8.916 -0.0343 -0.1136 -0.2911
  330loPI   C2A 5272  16.473  10.039   8.519  0.2456 -0.1789  0.1825
  330loPI   C3A 5273  16.549   9.900   8.015  0.3753  0.3637  0.1831
  330loPI   C4A 5274  16.478   9.557   7.778 -0.0150 -0.2872  0.0170
  330loPI   C5A 5275  16.182   9.762   7.438 -0.1442 -0.1558 -0.1422
  330loPI   C6A 5276  16.141  10.235   7.323  0.1732 -0.0491  0.2749
  330loPI   C1B 5277  15.740   9.242   8.976  0.0680 -0.0665  0.2020
  330loPI   C2B 5278  15.512   9.028   8.597  0.0150 -0.0429 -0.0941
  330loPI   C3B 5279  15.355   9.067   8.193 -0.1308  0.0504 -0.3944
  330loPI   C4B 5280  15.499   9.036   7.762 -0.3148 -0.2362  0.0118
  331loPI    C1 5281   3.777  13.614   9.671  0.0219 -0.0418 -0.0085
  331loPI    C2 5282   3.906  13.422   9.997  0.1717  0.0395 -0.0189
  331loPI    C3 5283   4.134  13.433   9.669  0.0379 -0.0093 -0.1144
  331loPI   PO4 5284   3.513  13.686   9.717  0.2233 -0.1609  0.4617
  331loPI   GL1 5285   3.213  13.900   9.398 -0.0307 -0.1225 -0.1379
  331loPI   GL2 5286   2.920  14.001   9.294  0.1076 -0.1728  0.1806
  331loPI   C1A 5287   3.422  13.785   9.067 -0.1396  0.2318  0.4066
  331loPI   C2A 5288   3.426  13.588   8.602 -0.1251 -0.0810 -0.0753
  331loPI   C3A 5289   3.444  13.627   8.189 -0.2986  0.0831 -0.2020
  331loPI   C4A 5290   3.301  13.764   7.747 -0.0655  0.6559 -0.0217
  331loPI   C5A 5291   3.452  13.568   7.332 -0.2967 -0.0008 -0.0733
  331loPI   C6A 5292   3.555  13.814   6.989  0.4322  0.0200  0.0587
  331loPI   C1B 5293   2.656  14.084   8.999 -0.2035 -0.2234  0.0299
  331loPI   C2B 5294   2.600  14.081   8.560 -0.1489  0.0796 -0.1533
  331loPI   C3B 5295   2.461  14.149   8.185  0.1076 -0.2652  0.0424
  331loPI   C4B 5296   2.438  14.421   7.771  0.0025  0.1127 -0.1611
  332loPI    C1 5297  12.609   0.277  10.312  0.0423  0.1621 -0.2150
  332loPI    C2 5298  12.286   0.324  10.543  0.1111 -0.0827 -0.0659
  332loPI    C3 5299  12.592   0.580  10.572  0.0426 -0.0061 -0.0164
  332loPI   PO4 5300  12.537   0.362   9.976  0.0230 -0.1625 -0.1083
  332loPI   GL1 5301  12.378   0.718   9.718  0.2742  0.1432 -0.0761
  332loPI   GL2 5302  12.485   0.437   9.480 -0.0931  0.1490 -0.3274
  332loPI   C1A 5303  12.050   0.650   9.379 -0.0100 -0.4202  0.1294
  332loPI   C2A 5304  12.181   0.506   8.957 -0.2500 -0.4084 -0.2021
  332loPI   C3A 5305  12.420   0.494   8.676 -0.2156 -0.0818 -0.1731
  332loPI   C4A 5306  12.465   0.075   8.457 -0.2363 -0.2852 -0.0073
  332loPI   C5A 5307  12.561  -0.175   8.078 -0.2913  0.3537 -0.3799
  332loPI   C6A 5308  12.627  -0.453   7.708  0.1304  0.4504  0.1419
  332loPI   C1B 5309  12.749   0.519   9.183 -0.0206 -0.1282 -0.3105
  332loPI   C2B 5310  12.759   0.812   8.809 -0.2909 -0.4358 -0.2394
  332loPI   C3B 5311  12.745   0.926   8.446 -0.0428 -0.3387  0.1576
  332loPI   C4B 5312  12.961   0.793   8.047 -0.0720 -0.0800 -0.0462
  333loPI    C1 5313   2.841   9.230   9.697 -0.0243 -0.3003 -0.2622
  333loPI    C2 5314   2.712   9.272  10.073  0.3110  0.1827 -0.1916
  333loPI    C3 5315   2.785   8.907   9.927 -0.0939 -0.0288  0.1120
  333loPI   PO4 5316   2.590   9.419   9.512 -0.4453 -0.0463 -0.2606
  333loPI   GL1 5317   2.337   9.335   9.182  0.1476  0.1377  0.0332
  333loPI   GL2 5318   2.644   9.234   9.049  0.1317  0.0606  0.3101
  333loPI   C1A 5319   2.318   9.646   8.923  0.0586 -0.0107 -0.0818
  333loPI   C2A 5320   2.243   9.764   8.452 -0.3441  0.0785 -0.1345
  333loPI   C3A 5321   2.231   9.891   7.943  0.5594 -0.4340  0.0910
  333loPI   C4A 5322   1.999   9.919   7.532 -0.1119  0.0013 -0.2752
  333loPI   C5A 5323   1.739  10.094   7.303 -0.1662 -0.0221  0.0261
  333loPI   C6A 5324   2.036  10.238   6.944  0.0330  0.0299  0.1003
  333loPI   C1B 5325   2.706   9.353   8.740  0.1071  0.2729 -0.0024
  333loPI   C2B 5326   2.692   9.607   8.277  0.2596 -0.1139  0.0983
  333loPI   C3B 5327   2.867   9.905   7.915 -0.3253  0.0185  0.0519
  333loPI   C4B 5328   2.978  10.374   7.851 -0.0092  0.1294 -0.0294
  334loPI    C1 5329   0.385  12.166  10.141 -0.0288  0.0588  0.0442
  334loPI    C2 5330   0.091  12.391   9.991 -0.0618  0.1122  0.1874
  334loPI    C3 5331   0.085  12.287  10.377 -0.0654 -0.1640  0.1150
  334loPI   PO4 5332   0.624  12.307   9.998  0.1238 -0.3336  0.2561
  334loPI   GL1 5333   0.548  12.602   9.694  0.1486  0.2132 -0.1113
  334loPI   GL2 5334   0.373  12.359   9.573  0.1080 -0.2133 -0.0408
  334loPI   C1A 5335   0.860  12.596   9.378  0.1135 -0.3385 -0.0320
  334loPI   C2A 5336   0.746  12.504   8.846  0.0990 -0.2313 -0.1142
  334loPI   C3A 5337   0.671  12.498   8.293 -0.1635  0.0698 -0.2628
  334loPI   C4A 5338   0.758  12.471   7.809  0.0722 -0.2659 -0.1366
  334loPI   C5A 5339   0.802  12.745   7.624 -0.2266 -0.0697  0.5596
  334loPI   C6A 5340   0.706  13.163   7.566 -0.3631 -0.1835 -0.2457
  334loPI   C1B 5341   0.306  12.389   9.097 -0.3146 -0.0585  0.2402
  334loPI   C2B 5342   0.264  12.321   8.682 -0.1687 -0.1910  0.1695
  334loPI   C3B 5343   0.171  12.343   8.322  0.1125  0.2406 -0.2390
  334loPI   C4B 5344  -0.010  12.329   7.927  0.0464  0.0073  0.1676
  335loPI    C1 5345  18.408   9.530   9.813 -0.0188 -0.1171  0.1223
  335loPI    C2 5346  18.715   9.344   9.991  0.1653  0.0690  0.0044
  335loPI    C3 5347  18.480   9.592  10.201 -0.0325 -0.2298  0.1430
  335loPI   PO4 5348  18.460   9.655   9.588  0.0026 -0.0099  0.0904
  335loPI   GL1 5349  18.699   9.758   9.194 -0.0306  0.1432 -0.0341
  335loPI   GL2 5350  18.814   9.575   8.856  0.0340  0.0462 -0.1721
  335loPI   C1A 5351  18.728  10.042   8.852  0.5322  0.2361  0.0865
  335loPI   C2A 5352  18.735  10.154   8.445 -0.1143  0.1293 -0.2000
  335loPI   C3A 5353  18.999  10.045   8.066 -0.1299 -0.0535 -0.2688
  335loPI   C4A 5354  19.060   9.927   7.665  0.1191 -0.0518  0.0100
  335loPI   C5A 5355  19.178   9.952   7.277 -0.3007 -0.1909  0.1355
  335loPI   C6A 5356  19.508  10.125   7.052 -0.1801  0.0065  0.1222
  335loPI   C1B 5357  18.757   9.615   8.379 -0.0866 -0.1004 -0.1613
  335loPI   C2B 5358  18.719   9.581   7.873  0.1217  0.3656  0.2050
  335loPI   C3B 5359  18.560   9.737   7.552 -0.0150  0.0088 -0.1171
  335loPI   C4B 5360  18.674  10.039   7.322 -0.1199 -0.2504  0.0526
  336loPI    C1 5361  12.849   2.168  10.053 -0.1556  0.0250  0.0039
  336loPI    C2 5362  12.981   2.386  10.361 -0.0801  0.0415 -0.0398
  336loPI    C3 5363  12.650   2.164  10.400 -0.0117 -0.0394  0.0866
  336loPI   PO4 5364  13.022   2.086   9.949  0.0646  0.2788  0.1058
  336loPI   GL1 5365  13.168   1.706   9.766  0.1304 -0.1140 -0.0181
  336loPI   GL2 5366  13.494   1.617   9.599 -0.2680 -0.1112  0.0188
  336loPI   C1A 5367  13.065   1.613   9.419  0.1789  0.0083  0.1131
  336loPI   C2A 5368  12.972   1.704   9.042 -0.1460 -0.5168 -0.2292
  336loPI   C3A 5369  12.882   1.594   8.685  0.1777 -0.0790  0.0007
  336loPI   C4A 5370  12.785   1.454   8.382 -0.2971 -0.1379  0.5202
  336loPI   C5A 5371  12.939   1.351   8.000 -0.0044  0.0133 -0.1553
  336loPI   C6A 5372  12.930   1.471   7.568  0.1803  0.0312 -0.2213
  336loPI   C1B 5373  13.595   1.624   9.173 -0.1611  0.1936  0.1165
  336loPI   C2B 5374  13.497   1.684   8.738 -0.3484  0.2998 -0.5409
  336loPI   C3B 5375  13.304   1.629   8.349  0.3413  0.3232 -0.2264
  336loPI   C4B 5376  13.396   1.629   7.948  0.0275 -0.0175 -0.2166
  337loPI    C1 5377   5.900  16.532   9.977  0.0879  0.2895  0.1646
  337loPI    C2 5378   5.808  16.721  10.317  0.0704  0.0206  0.3115
  337loPI    C3 5379   6.171  16.558  10.270 -0.0081 -0.1524  0.2994
  337loPI   PO4 5380   5.934  16.608   9.717 -0.1773  0.2752  0.1463
  337loPI   GL1 5381   6.100  16.473   9.350 -0.1705  0.0122 -0.0941
  337loPI   GL2 5382   5.792  16.239   9.245 -0.2575  0.1519  0.2268
  337loPI   C1A 5383   6.260  16.440   8.931  0.0567  0.2630  0.4358
  337loPI   C2A 5384   6.601  16.513   8.635 -0.3529  0.2639  0.0242
  337loPI   C3A 5385   6.623  16.455   8.241  0.1085  0.1582  0.2515
  337loPI   C4A 5386   6.711  16.417   7.779  0.1132 -0.1952 -0.1682
  337loPI   C5A 5387   6.792  16.383   7.360  0.0673  0.0133 -0.5586
  337loPI   C6A 5388   7.088  16.572   7.033 -0.2357 -0.0891 -0.5629
  337loPI   C1B 5389   5.814  16.200   8.782 -0.0775 -0.1476  0.0178
  337loPI   C2B 5390   5.721  15.790   8.476  0.0061 -0.1212  0.1583
  337loPI   C3B 5391   5.527  15.780   8.089 -0.0676  0.3085  0.5114
  337loPI   C4B 5392   5.518  15.691   7.568  0.3523 -0.2294 -0.0397
  338loPI    C1 5393   2.297  11.970  10.095  0.0041 -0.2529  0.0493
  338loPI    C2 5394   2.406  11.810  10.445  0.0846 -0.1222  0.0847
  338loPI    C3 5395   2.175  12.137  10.438 -0.0299 -0.2042  0.0137
  338loPI   PO4 5396   2.368  11.772   9.908 -0.4851  0.0906  0.0684
  338loPI   GL1 5397   2.186  11.854   9.441 -0.0259  0.2156 -0.0940
  338loPI   GL2 5398   2.379  12.144   9.560 -0.0028  0.0016 -0.3036
  338loPI   C1A 5399   2.113  11.862   8.989 -0.0849 -0.0719  0.2219
  338loPI   C2A 5400   2.012  11.780   8.500  0.1561 -0.0782  0.0873
  338loPI   C3A 5401   2.163  11.591   8.081  0.0350  0.3651 -0.2103
  338loPI   C4A 5402   2.232  11.745   7.686 -0.0313 -0.1430 -0.0153
  338loPI   C5A 5403   2.279  12.111   7.412  0.1241  0.0016 -0.0239
  338loPI   C6A 5404   2.143  12.557   7.486  0.2583  0.1202  0.1399
  338loPI   C1B 5405   2.433  12.288   9.103 -0.0796  0.0100  0.1094
  338loPI   C2B 5406   2.542  12.523   8.746 -0.1007  0.2941  0.0306
  338loPI   C3B 5407   2.556  12.534   8.292  0.2333 -0.0544  0.1809
  338loPI   C4B 5408   2.472  12.267   7.834  0.2971 -0.1990  0.1368
  339loPI    C1 5409  16.115  11.329   9.939 -0.2171 -0.0502 -0.0838
  339loPI    C2 5410  16.439  11.367  10.171 -0.1097 -0.1035 -0.2237
  339loPI    C3 5411  16.076  11.440  10.321 -0.0406 -0.1306 -0.0413
  339loPI   PO4 5412  16.215  11.301   9.701  0.2085 -0.3523  0.0384
  339loPI   GL1 5413  16.572  11.364   9.484  0.1735 -0.2075  0.0249
  339loPI   GL2 5414  16.750  11.199   9.720  0.0269  0.1762  0.0881
  339loPI   C1A 5415  16.397  11.291   9.084  0.3053 -0.0619 -0.1513
  339loPI   C2A 5416  16.325  11.303   8.523  0.0937 -0.0920  0.2412
  339loPI   C3A 5417  16.097  11.378   8.206 -0.0528  0.0768 -0.0436
  339loPI   C4A 5418  15.908  11.494   7.851 -0.0432  0.1627  0.0119
  339loPI   C5A 5419  15.751  11.846   7.528  0.2567 -0.1883  0.4142
  339loPI   C6A 5420  15.350  11.907   7.341  0.1095  0.1880 -0.0044
  339loPI   C1B 5421  16.948  11.154   9.264  0.1349 -0.1016  0.0162
  339loPI   C2B 5422  17.164  10.870   8.944  0.2582 -0.0182 -0.2363
  339loPI   C3B 5423  17.116  10.991   8.440  0.5644  0.2856  0.1280
  339loPI   C4B 5424  17.030  11.139   8.034  0.0878  0.0030 -0.2717
  340loPI    C1 5425   8.369  10.407   9.890 -0.0715 -0.0490  0.0436
  340loPI    C2 5426   8.743  10.398   9.747 -0.0005  0.1633  0.2095
  340loPI    C3 5427   8.652  10.199  10.082 -0.0533  0.0575  0.1330
  340loPI   PO4 5428   8.338  10.669   9.676 -0.1669 -0.0579  0.3388
  340loPI   GL1 5429   8.550  10.878   9.289 -0.0014  0.0975  0.0506
  340loPI   GL2 5430   8.274  10.702   9.124 -0.1803 -0.0336 -0.4398
  340loPI   C1A 5431   8.526  11.049   8.844  0.5229 -0.1584  0.0533
  340loPI   C2A 5432   8.395  11.183   8.356  0.0707  0.1669  0.3795
  340loPI   C3A 5433   8.362  11.195   7.904 -0.1082  0.0452 -0.1804
  340loPI   C4A 5434   8.326  11.039   7.569 -0.1847 -0.1143  0.3446
  340loPI   C5A 5435   8.563  11.140   7.132 -0.1862 -0.1294 -0.1576
  340loPI   C6A 5436   8.848  11.164   6.809 -0.0965 -0.1404  0.0969
  340loPI   C1B 5437   8.309  10.700   8.569 -0.0623  0.0141  0.1947
  340loPI   C2B 5438   8.424  10.708   8.176  0.1548 -0.3510  0.1079
  340loPI   C3B 5439   8.376  10.612   7.811 -0.2908 -0.0772  0.0896
  340loPI   C4B 5440   8.503  10.632   7.293  0.1473 -0.1050 -0.2800
  341loPI    C1 5441   6.484   2.037   9.235 -0.0328  0.0146 -0.0642
  341loPI    C2 5442   6.751   1.880   9.488 -0.1894 -0.0560  0.0591
  341loPI    C3 5443   6.617   2.252   9.545  0.1123  0.0933 -0.1799
  341loPI   PO4 5444   6.661   2.048   8.917 -0.2350  0.3501 -0.0630
  341loPI   GL1 5445   6.883   1.838   8.593  0.2890 -0.0513 -0.2382
  341loPI   GL2 5446   6.922   2.141   8.411  0.0168 -0.0302  0.0867
  341loPI   C1A 5447   6.776   1.706   8.195  0.2919  0.0784  0.1749
  341loPI   C2A 5448   6.759   1.673   7.823 -0.2767 -0.0643 -0.0094
  341loPI   C3A 5449   6.676   1.692   7.378  0.1815  0.2649  0.1523
  341loPI   C4A 5450   6.627   1.819   6.902 -0.1215 -0.0475  0.0476
  341loPI   C5A 5451   6.689   2.186   6.574 -0.3134  0.3410  0.3707
  341loPI   C6A 5452   6.804   2.579   6.494  0.0656 -0.0238 -0.0645
  341loPI   C1B 5453   6.912   2.147   7.912 -0.2302  0.3272 -0.3484
  341loPI   C2B 5454   6.864   2.143   7.443 -0.1228 -0.1009 -0.0261
  341loPI   C3B 5455   6.898   2.270   7.046 -0.0513  0.2831  0.0583
  341loPI   C4B 5456   7.259   2.394   6.758 -0.1632  0.1535  0.3926
  342loPI    C1 5457  16.317  15.137  10.244 -0.1081  0.1939 -0.0046
  342loPI    C2 5458  15.930  15.194  10.159 -0.1553 -0.0361  0.0515
  342loPI    C3 5459  16.049  15.162  10.540 -0.0779  0.0527  0.0352
  342loPI   PO4 5460  16.433  15.248   9.991  0.0953 -0.0783 -0.1099
  342loPI   GL1 5461  16.177  15.309   9.650 -0.2152  0.3642  0.3710
  342loPI   GL2 5462  15.840  15.480   9.701  0.0317 -0.2066  0.0563
  342loPI   C1A 5463  16.169  15.301   9.162 -0.1785 -0.0607 -0.0760
  342loPI   C2A 5464  16.328  15.204   8.718  0.0873 -0.0506 -0.0291
  342loPI   C3A 5465  16.129  15.140   8.285 -0.0655  0.1742 -0.0847
  342loPI   C4A 5466  15.991  14.960   7.875  0.1880  0.0030  0.0632
  342loPI   C5A 5467  15.643  14.806   7.752  0.1463  0.3931 -0.2809
  342loPI   C6A 5468  15.687  14.769   7.332  0.0471  0.1604  0.4616
  342loPI   C1B 5469  15.557  15.582   9.376  0.0970 -0.1465 -0.3199
  342loPI   C2B 5470  15.486  15.773   9.014  0.0439 -0.0009 -0.2919
  342loPI   C3B 5471  15.370  15.639   8.632  0.0621 -0.3629 -0.1351
  342loPI   C4B 5472  15.400  15.615   8.176 -0.0533  0.0728  0.0167
  343loPI    C1 5473   8.882  16.595   9.870 -0.0542 -0.2589  0.3048
  343loPI    C2 5474   8.996  16.977   9.902 -0.0986 -0.2191  0.0187
  343loPI    C3 5475   8.731  16.825  10.160 -0.2029 -0.0110  0.0359
  343loPI   PO4 5476   8.901  16.500   9.563 -0.2111  0.2887  0.0479
  343loPI   GL1 5477   9.073  16.389   9.077 -0.3422 -0.2742  0.0597
  343loPI   GL2 5478   9.442  16.439   8.993  0.2342 -0.1472  0.0222
  343loPI   C1A 5479   8.963  16.488   8.642 -0.1648 -0.2681  0.3491
  343loPI   C2A 5480   9.133  16.263   8.273 -0.1010 -0.0266 -0.1087
  343loPI   C3A 5481   9.323  16.308   7.822 -0.0638  0.1137 -0.2625
  343loPI   C4A 5482   9.521  16.477   7.393 -0.2429 -0.3269  0.0804
  343loPI   C5A 5483   9.798  16.631   7.083 -0.2564  0.0858  0.0567
  343loPI   C6A 5484   9.886  17.167   6.945  0.2120  0.2580 -0.0259
  343loPI   C1B 5485   9.438  16.585   8.526 -0.1847  0.0783 -0.4405
  343loPI   C2B 5486   9.384  16.689   8.106 -0.2709  0.0081  0.0741
  343loPI   C3B 5487   9.274  16.834   7.709 -0.1669 -0.0494 -0.0779
  343loPI   C4B 5488   8.963  17.079   7.578  0.0427  0.2394 -0.0983
  344loPI    C1 5489  15.820   1.292  10.026 -0.0391  0.1683 -0.1112
  344loPI    C2 5490  16.014   1.136  10.339  0.3716 -0.0498 -0.4648
  344loPI    C3 5491  15.982   1.533  10.302 -0.0065 -0.0229  0.0388
  344loPI   PO4 5492  15.606   1.161  10.014 -0.1738 -0.2678 -0.1655
  344loPI   GL1 5493  15.463   1.117   9.597  0.0988 -0.2139 -0.0820
  344loPI   GL2 5494  15.111   0.905   9.484  0.0957  0.1408 -0.0301
  344loPI   C1A 5495  15.479   1.098   9.164 -0.1130 -0.0068 -0.0917
  344loPI   C2A 5496  15.306   1.003   8.808  0.1515  0.0620  0.1363
  344loPI   C3A 5497  15.332   0.846   8.418  0.0392 -0.0948 -0.1076
  344loPI   C4A 5498  15.217   0.844   7.990 -0.0342 -0.1117 -0.2663
  344loPI   C5A 5499  15.057   1.113   7.647  0.1095  0.0799 -0.1307
  344loPI   C6A 5500  15.099   1.336   7.277 -0.2507  0.0358  0.2594
  344loPI   C1B 5501  15.017   0.722   9.143  0.0649 -0.1011  0.4046
  344loPI   C2B 5502  14.994   0.602   8.668  0.0794  0.2065 -0.0165
  344loPI   C3B 5503  14.897   0.585   8.248  0.0455 -0.2811 -0.0449
  344loPI   C4B 5504  14.686   0.297   8.037 -0.1780 -0.1748  0.1846
  345loPI    C1 5505   6.089  16.054   9.921  0.1472 -0.0937 -0.1808
  345loPI    C2 5506   6.313  15.743  10.038 -0.1566 -0.2346  0.0415
  345loPI    C3 5507   6.244  16.046  10.290 -0.1577 -0.1581 -0.0503
  345loPI   PO4 5508   6.073  16.036   9.662  0.0677 -0.1206  0.0047
  345loPI   GL1 5509   6.228  16.002   9.216  0.0456 -0.4322 -0.0809
  345loPI   GL2 5510   6.251  15.661   9.335  0.0085  0.1685  0.0857
  345loPI   C1A 5511   5.953  15.806   9.026  0.1097 -0.0725  0.2115
  345loPI   C2A 5512   5.847  15.402   8.952  0.3115  0.1144 -0.0722
  345loPI   C3A 5513   5.696  15.275   8.592  0.2350 -0.1241  0.0770
  345loPI   C4A 5514   5.535  15.279   8.110 -0.2037 -0.1727  0.1783
  345loPI   C5A 5515   5.514  15.145   7.636  0.5687 -0.1446  0.2093
  345loPI   C6A 5516   5.511  15.297   7.231  0.0314 -0.0287 -0.2205
  345loPI   C1B 5517   6.301  15.514   8.918 -0.0710 -0.1221 -0.1208
  345loPI   C2B 5518   6.193  15.362   8.565 -0.0311  0.0209  0.0932
  345loPI   C3B 5519   6.015  15.442   8.159  0.0443 -0.0862 -0.1671
  345loPI   C4B 5520   6.036  15.676   7.758  0.1670 -0.1025 -0.0473
  346loPI    C1 5521   9.225   7.695   9.018 -0.1956 -0.1241  0.1768
  346loPI    C2 5522   9.463   7.695   9.339  0.0191  0.0810  0.0209
  346loPI    C3 5523   9.092   7.549   9.366 -0.0038  0.1965  0.3894
  346loPI   PO4 5524   9.343   7.544   8.834 -0.1563  0.0179  0.0460
  346loPI   GL1 5525   9.137   7.354   8.473 -0.2479  0.2930 -0.0009
  346loPI   GL2 5526   8.806   7.306   8.434 -0.0030  0.0183  0.1124
  346loPI   C1A 5527   9.276   7.434   8.154  0.1851 -0.0772 -0.2145
  346loPI   C2A 5528   9.286   7.635   7.817  0.2027 -0.3352 -0.0894
  346loPI   C3A 5529   9.073   7.808   7.439  0.0677 -0.0118 -0.0533
  346loPI   C4A 5530   9.005   8.039   6.975  0.5735  0.2372 -0.1947
  346loPI   C5A 5531   8.821   8.119   6.648  0.1042  0.1865 -0.1138
  346loPI   C6A 5532   8.378   8.239   6.268  0.1831  0.1620 -0.2809
  346loPI   C1B 5533   8.824   7.303   8.017  0.4003 -0.2500 -0.0194
  346loPI   C2B 5534   9.023   7.317   7.579  0.0036  0.3569  0.0482
  346loPI   C3B 5535   9.223   7.183   7.193  0.0795 -0.4090 -0.0470
  346loPI   C4B 5536   9.338   7.241   6.779 -0.0457 -0.2849  0.1390
  347loPI    C1 5537  11.760  11.828  10.620 -0.1260  0.0098 -0.2556
  347loPI    C2 5538  11.669  11.672  10.977  0.0219  0.0533 -0.1980
  347loPI    C3 5539  11.395  11.882  10.775 -0.1626 -0.2350 -0.2535
  347loPI   PO4 5540  11.921  11.581  10.460 -0.0867 -0.0168 -0.3643
  347loPI   GL1 5541  12.160  11.619  10.069  0.1782 -0.0529  0.2217
  347loPI   GL2 5542  12.565  11.673  10.004 -0.0966 -0.0075 -0.0042
  347loPI   C1A 5543  12.197  12.051  10.073  0.1300  0.1636  0.2101
  347loPI   C2A 5544  12.415  12.489  10.057  0.1714  0.0085 -0.1863
  347loPI   C3A 5545  12.497  12.779   9.628  0.0952 -0.0139  0.0629
  347loPI   C4A 5546  12.357  12.929   9.185  0.0902  0.2016  0.0682
  347loPI   C5A 5547  12.287  13.112   8.761  0.1253  0.1319  0.2627
  347loPI   C6A 5548  12.252  13.322   8.364  0.0495  0.3972  0.2318
  347loPI   C1B 5549  12.561  12.006   9.716  0.0020  0.3686  0.0288
  347loPI   C2B 5550  12.842  12.051   9.372 -0.1795  0.2275 -0.0289
  347loPI   C3B 5551  12.954  11.993   8.949  0.1257 -0.1140 -0.2819
  347loPI   C4B 5552  12.933  12.155   8.568  0.0661  0.2438  0.3100
  348loPI    C1 5553   1.774   8.283  10.130 -0.3186 -0.0071  0.1593
  348loPI    C2 5554   1.707   7.889  10.127  0.0107 -0.0657  0.1242
  348loPI    C3 5555   1.818   8.070  10.466  0.0680 -0.0411  0.0925
  348loPI   PO4 5556   1.884   8.311   9.846  0.1987 -0.4743 -0.2273
  348loPI   GL1 5557   1.929   8.528   9.475 -0.1235 -0.3375 -0.0465
  348loPI   GL2 5558   1.697   8.662   9.411 -0.0074 -0.4199 -0.0717
  348loPI   C1A 5559   2.290   8.770   9.021  0.1143  0.0123 -0.0823
  348loPI   C2A 5560   2.246   9.130   8.738 -0.1738 -0.1216  0.1759
  348loPI   C3A 5561   2.302   9.295   8.364  0.0904 -0.2217 -0.1199
  348loPI   C4A 5562   2.067   9.377   7.964 -0.1641  0.2990 -0.3448
  348loPI   C5A 5563   2.210   9.348   7.559  0.0745  0.1298  0.0906
  348loPI   C6A 5564   2.521   8.900   7.510 -0.0378 -0.2640  0.2396
  348loPI   C1B 5565   1.693   8.645   8.980  0.1120 -0.1818  0.0623
  348loPI   C2B 5566   1.807   8.772   8.495 -0.2660 -0.2201 -0.1552
  348loPI   C3B 5567   1.806   8.890   8.163 -0.1514  0.0658 -0.3555
  348loPI   C4B 5568   2.103   8.926   7.769 -0.1084 -0.3414  0.2228
  349loPI    C1 5569   9.529  10.485   9.862  0.1130  0.1782  0.0892
  349loPI    C2 5570   9.698  10.343   9.529 -0.2710  0.2362 -0.1361
  349loPI    C3 5571   9.927  10.459   9.835  0.0707 -0.3016 -0.1755
  349loPI   PO4 5572   9.213  10.562   9.628  0.1260  0.0283  0.0559
  349loPI   GL1 5573   9.007  10.641   9.291  0.1800 -0.3181 -0.3888
  349loPI   GL2 5574   9.336  10.724   9.215 -0.2700 -0.2420  0.0724
  349loPI   C1A 5575   8.956  10.859   8.892 -0.1833 -0.2579 -0.0105
  349loPI   C2A 5576   8.906  10.963   8.539 -0.3151  0.0008 -0.2275
  349loPI   C3A 5577   8.954  10.926   8.112  0.2797 -0.2897  0.0426
  349loPI   C4A 5578   8.819  10.888   7.588 -0.1530 -0.3580  0.3476
  349loPI   C5A 5579   9.141  10.987   7.180  0.2776  0.3426  0.1248
  349loPI   C6A 5580   9.535  10.951   7.204 -0.3179 -0.1083  0.1621
  349loPI   C1B 5581   9.502  10.891   8.875  0.0693  0.1346  0.0037
  349loPI   C2B 5582   9.831  11.113   8.582 -0.0007  0.0560 -0.2352
  349loPI   C3B 5583   9.984  11.154   8.214  0.0029 -0.2141  0.1209
  349loPI   C4B 5584  10.313  10.948   8.009 -0.1421  0.2417 -0.4044
  350loPI    C1 5585  11.816  16.834  10.060 -0.0832 -0.0720  0.0324
  350loPI    C2 5586  11.602  16.825   9.722 -0.1410  0.0073  0.0665
  350loPI    C3 5587  11.572  16.525   9.986  0.0301 -0.1365 -0.0751
  350loPI   PO4 5588  12.086  16.953   9.918  0.1385 -0.3288  0.3060
  350loPI   GL1 5589  12.066  17.042   9.488  0.0755  0.3007 -0.0273
  350loPI   GL2 5590  11.896  16.796   9.296 -0.3970 -0.3967 -0.2039
  350loPI   C1A 5591  12.029  17.254   9.114  0.1086 -0.1749  0.2851
  350loPI   C2A 5592  12.234  17.273   8.730 -0.0913 -0.0818 -0.0463
  350loPI   C3A 5593  12.507  17.215   8.293  0.3303 -0.1383  0.0032
  350loPI   C4A 5594  12.597  17.251   7.856 -0.0674  0.0291  0.0604
  350loPI   C5A 5595  12.433  17.025   7.510  0.2953  0.0651  0.0430
  350loPI   C6A 5596  12.370  16.564   7.450  0.1321 -0.6486  0.0467
  350loPI   C1B 5597  12.170  16.522   9.108 -0.0529 -0.1183  0.0902
  350loPI   C2B 5598  12.215  16.671   8.763 -0.2232 -0.3409 -0.0622
  350loPI   C3B 5599  12.293  16.777   8.316  0.1513 -0.2737  0.0792
  350loPI   C4B 5600  12.257  16.567   7.955 -0.0884 -0.1077 -0.1901
  351loPI    C1 5601  12.450  19.204  10.326  0.0176  0.1145 -0.1672
  351loPI    C2 5602  12.208  19.464  10.142  0.0200  0.2288 -0.0109
  351loPI    C3 5603  12.111  19.321  10.502  0.0704  0.0928 -0.0507
  351loPI   PO4 5604  12.613  19.061  10.100 -0.2649 -0.0262  0.1018
  351loPI   GL1 5605  12.605  18.981   9.616 -0.0483 -0.3786 -0.1942
  351loPI   GL2 5606  12.878  18.930   9.711 -0.0240  0.0164 -0.1440
  351loPI   C1A 5607  12.501  19.147   9.221  0.0876  0.2532  0.2829
  351loPI   C2A 5608  12.237  19.221   8.762 -0.1252  0.2605  0.0254
  351loPI   C3A 5609  11.962  19.283   8.469  0.1303  0.3587  0.0484
  351loPI   C4A 5610  12.076  19.222   8.069 -0.0788 -0.0978 -0.3227
  351loPI   C5A 5611  12.234  19.331   7.679 -0.0567 -0.3578  0.1674
  351loPI   C6A 5612  12.424  19.321   7.393  0.0320  0.4812  0.1895
  351loPI   C1B 5613  12.999  18.696   9.293 -0.2619  0.1304 -0.2569
  351loPI   C2B 5614  13.323  18.760   8.964  0.2156  0.0318 -0.3334
  351loPI   C3B 5615  13.567  18.911   8.669 -0.1357  0.4494  0.0588
  351loPI   C4B 5616  13.444  18.913   8.247 -0.2153  0.1744  0.2620
  352loPI    C1 5617   7.806  14.989   9.767 -0.1883 -0.0271  0.1374
  352loPI    C2 5618   8.030  15.121  10.071 -0.2162  0.1034  0.1022
  352loPI    C3 5619   7.904  14.742  10.065  0.3218 -0.0829 -0.0648
  352loPI   PO4 5620   7.660  15.175   9.657 -0.3635 -0.0460 -0.0011
  352loPI   GL1 5621   7.775  15.345   9.270 -0.1766  0.0646  0.2648
  352loPI   GL2 5622   8.076  15.270   9.182  0.1412  0.1918  0.1207
  352loPI   C1A 5623   7.807  15.332   8.786  0.0544 -0.1219  0.3258
  352loPI   C2A 5624   7.670  15.100   8.448  0.0900  0.1149 -0.1916
  352loPI   C3A 5625   7.824  14.828   8.208 -0.0881 -0.1017 -0.4283
  352loPI   C4A 5626   7.753  14.538   7.842 -0.0154 -0.1175 -0.1731
  352loPI   C5A 5627   7.404  14.672   7.497  0.0133  0.1326  0.1468
  352loPI   C6A 5628   6.991  14.715   7.335  0.2115  0.0261 -0.3693
  352loPI   C1B 5629   8.226  14.938   8.915 -0.1466 -0.0387 -0.1955
  352loPI   C2B 5630   8.044  14.718   8.626  0.0253 -0.1575  0.1673
  352loPI   C3B 5631   8.300  14.800   8.377 -0.2497 -0.0659 -0.0907
  352loPI   C4B 5632   8.359  14.876   8.004 -0.0620 -0.1488 -0.2649
  353loPI    C1 5633  18.898   8.826   9.835 -0.3379  0.0244  0.1826
  353loPI    C2 5634  18.710   8.683   9.512 -0.1410  0.1207  0.0231
  353loPI    C3 5635  18.779   8.444   9.825 -0.2512  0.0017 -0.0422
  353loPI   PO4 5636  19.111   8.959   9.733 -0.3569 -0.0786 -0.1131
  353loPI   GL1 5637  19.163   8.918   9.202 -0.4002 -0.1758  0.1287
  353loPI   GL2 5638  19.123   9.129   9.226 -0.1438 -0.0911 -0.1802
  353loPI   C1A 5639  19.197   8.782   8.837 -0.2164  0.0992  0.0719
  353loPI   C2A 5640  19.309   8.729   8.375 -0.0329 -0.0633  0.2258
  353loPI   C3A 5641  19.269   8.999   8.040  0.2151 -0.0023 -0.3145
  353loPI   C4A 5642  19.101   9.012   7.563 -0.1000 -0.0456 -0.1918
  353loPI   C5A 5643  18.760   8.947   7.118  0.3237  0.4780 -0.0117
  353loPI   C6A 5644  18.504   9.084   6.798  0.0960 -0.1660  0.3033
  353loPI   C1B 5645  19.167   9.298   8.808 -0.0225  0.0750  0.3309
  353loPI   C2B 5646  19.267   9.287   8.452  0.2355 -0.0570 -0.0064
  353loPI   C3B 5647  19.148   9.488   8.159  0.1241  0.0099  0.2380
  353loPI   C4B 5648  19.188   9.460   7.768  0.3563  0.0297 -0.0621
  354loPI    C1 5649   3.648  16.651   9.875  0.6146  0.0100  0.2685
  354loPI    C2 5650   3.663  16.767  10.257  0.1010  0.3968  0.1830
  354loPI    C3 5651   3.836  16.990   9.974 -0.0717  0.4534  0.1214
  354loPI   PO4 5652   3.439  16.648   9.744  0.2573 -0.1600  0.2967
  354loPI   GL1 5653   3.419  16.327   9.375 -0.0670 -0.1430 -0.0375
  354loPI   GL2 5654   3.605  16.576   9.264  0.1184 -0.1174 -0.1550
  354loPI   C1A 5655   3.466  16.059   9.030 -0.1113  0.2605  0.0049
  354loPI   C2A 5656   3.199  15.715   8.950 -0.1319  0.1512 -0.3609
  354loPI   C3A 5657   2.802  15.749   8.632 -0.0827 -0.0144 -0.3153
  354loPI   C4A 5658   2.514  16.021   8.415 -0.3785 -0.0141 -0.1010
  354loPI   C5A 5659   2.631  15.922   7.991 -0.0917 -0.2220 -0.1438
  354loPI   C6A 5660   2.585  15.958   7.524 -0.0329  0.0018 -0.0195
  354loPI   C1B 5661   3.359  16.545   8.917 -0.2879 -0.2092 -0.0022
  354loPI   C2B 5662   3.303  16.586   8.438  0.2411  0.0732  0.2526
  354loPI   C3B 5663   3.301  16.552   7.938 -0.2214 -0.2033 -0.0022
  354loPI   C4B 5664   3.187  16.517   7.483  0.0533 -0.3322 -0.1470
  355loPI    C1 5665   0.624   5.380   9.795 -0.1703 -0.0304 -0.0410
  355loPI    C2 5666   0.603   5.022   9.973  0.1209  0.0251  0.1115
  355loPI    C3 5667   0.415   5.337  10.133 -0.1287 -0.0549 -0.0183
  355loPI   PO4 5668   0.738   5.283   9.511  0.0773 -0.0579  0.2260
  355loPI   GL1 5669   0.577   5.145   9.113 -0.1436 -0.3326 -0.0278
  355loPI   GL2 5670   0.759   4.891   9.117 -0.2299 -0.0208 -0.0030
  355loPI   C1A 5671   0.446   5.398   8.752  0.1503  0.2070 -0.2014
  355loPI   C2A 5672   0.260   5.267   8.366 -0.1828  0.2835 -0.1621
  355loPI   C3A 5673   0.015   5.181   8.068  0.2018 -0.0319 -0.1525
  355loPI   C4A 5674   0.077   5.265   7.626  0.0558 -0.0230  0.3851
  355loPI   C5A 5675   0.113   5.226   7.249  0.0065 -0.0988 -0.0017
  355loPI   C6A 5676   0.078   5.000   6.910  0.1134 -0.1883 -0.1642
  355loPI   C1B 5677   0.372   4.806   8.822  0.0627  0.0232 -0.1685
  355loPI   C2B 5678   0.233   4.732   8.363 -0.1708 -0.1020  0.3683
  355loPI   C3B 5679   0.413   4.927   7.995  0.2764 -0.0953  0.3270
  355loPI   C4B 5680   0.395   4.915   7.539 -0.1960 -0.2295 -0.0924
  356loPI    C1 5681   3.981   1.424   9.438 -0.0396  0.1838  0.1310
  356loPI    C2 5682   4.173   1.188   9.698  0.0175 -0.0352 -0.1064
  356loPI    C3 5683   3.965   1.504   9.830  0.3333  0.0607  0.1747
  356loPI   PO4 5684   4.044   1.227   9.209 -0.0069  0.0680  0.0196
  356loPI   GL1 5685   4.161   1.159   8.793  0.1325 -0.1533 -0.0321
  356loPI   GL2 5686   4.402   1.151   8.793  0.0686 -0.0554  0.0062
  356loPI   C1A 5687   4.125   1.027   8.354  0.1251  0.1281  0.0570
  356loPI   C2A 5688   3.930   1.092   7.965  0.0508 -0.0722 -0.2863
  356loPI   C3A 5689   3.752   1.263   7.707  0.2559 -0.0724  0.2315
  356loPI   C4A 5690   3.559   1.632   7.427 -0.0347 -0.1144 -0.0536
  356loPI   C5A 5691   3.508   1.713   6.915 -0.0620  0.1273  0.0910
  356loPI   C6A 5692   3.606   1.329   6.673 -0.1053 -0.0437  0.0664
  356loPI   C1B 5693   4.609   1.141   8.419 -0.0472  0.0882  0.1528
  356loPI   C2B 5694   4.665   1.146   8.048 -0.1387  0.0292 -0.1845
  356loPI   C3B 5695   4.637   1.170   7.613  0.4520 -0.1683  0.2006
  356loPI   C4B 5696   4.509   1.256   7.175  0.1392 -0.2074 -0.2721
  357loPI    C1 5697  17.909   2.317   9.799 -0.0007  0.1936 -0.0745
  357loPI    C2 5698  17.586   2.372  10.030 -0.2113 -0.1287 -0.2840
  357loPI    C3 5699  17.918   2.211  10.185 -0.1728  0.1344 -0.0859
  357loPI   PO4 5700  17.978   2.554   9.698 -0.0553 -0.2241 -0.1123
  357loPI   GL1 5701  18.161   2.663   9.375  0.0167 -0.0587 -0.2978
  357loPI   GL2 5702  18.167   2.448   9.101  0.0075 -0.0616  0.3269
  357loPI   C1A 5703  18.091   2.947   9.059 -0.1376  0.1834 -0.1418
  357loPI   C2A 5704  17.880   3.170   8.779 -0.1790  0.1911  0.2523
  357loPI   C3A 5705  17.557   3.076   8.481  0.0697  0.0457  0.0300
  357loPI   C4A 5706  17.487   2.821   8.239  0.0587  0.1062  0.0923
  357loPI   C5A 5707  17.552   2.653   7.745  0.2137  0.0739 -0.0956
  357loPI   C6A 5708  17.502   2.806   7.339  0.0433 -0.1897  0.1287
  357loPI   C1B 5709  18.263   2.442   8.631 -0.0550  0.0895 -0.0286
  357loPI   C2B 5710  18.366   2.364   8.145  0.2429 -0.1085 -0.3577
  357loPI   C3B 5711  18.497   2.436   7.675  0.1150  0.1856 -0.0627
  357loPI   C4B 5712  18.771   2.244   7.422 -0.0157  0.1319  0.1360
  358loPI    C1 5713   7.402   3.755   9.016 -0.0408  0.1575  0.1872
  358loPI    C2 5714   7.289   4.128   9.106 -0.1611  0.0844  0.3422
  358loPI    C3 5715   7.312   3.851   9.394  0.0498  0.0033  0.2488
  358loPI   PO4 5716   7.581   3.752   8.901  0.0799  0.3421  0.0717
  358loPI   GL1 5717   7.713   3.704   8.520 -0.0434  0.1943 -0.0715
  358loPI   GL2 5718   7.683   4.102   8.411 -0.1237 -0.3358 -0.1928
  358loPI   C1A 5719   7.559   3.705   8.118 -0.1942  0.1361 -0.2350
  358loPI   C2A 5720   7.394   3.654   7.697 -0.0455  0.1349 -0.1948
  358loPI   C3A 5721   7.480   3.665   7.246 -0.0439 -0.4182 -0.3024
  358loPI   C4A 5722   7.718   3.630   6.942 -0.2835  0.0071 -0.3186
  358loPI   C5A 5723   7.890   3.561   6.659  0.0650 -0.3760 -0.3078
  358loPI   C6A 5724   8.163   3.504   6.207  0.1416  0.3161 -0.0806
  358loPI   C1B 5725   7.781   4.168   7.912  0.5562 -0.1473  0.2506
  358loPI   C2B 5726   7.679   4.499   7.653 -0.0484 -0.1626 -0.2006
  358loPI   C3B 5727   7.599   4.519   7.239 -0.2640  0.0384 -0.1057
  358loPI   C4B 5728   7.746   4.542   6.824 -0.0800 -0.0196  0.2122
  359loPI    C1 5729   3.516   8.830   9.812 -0.0080 -0.2286 -0.1027
  359loPI    C2 5730   3.213   8.638   9.989  0.0253 -0.2057 -0.0204
  359loPI    C3 5731   3.539   8.436   9.875  0.0706 -0.1944  0.0886
  359loPI   PO4 5732   3.547   8.992   9.551  0.2114 -0.1323  0.1674
  359loPI   GL1 5733   3.724   9.079   9.259  0.2630  0.1184 -0.1074
  359loPI   GL2 5734   3.793   9.364   9.397  0.1991  0.0166 -0.2747
  359loPI   C1A 5735   3.771   9.007   8.787  0.2794  0.0065 -0.1208
  359loPI   C2A 5736   3.791   9.091   8.341 -0.0449 -0.0377 -0.4217
  359loPI   C3A 5737   3.687   9.533   8.087  0.0773  0.2636 -0.1837
  359loPI   C4A 5738   3.538   9.558   7.629  0.0827  0.3801 -0.0044
  359loPI   C5A 5739   3.692   9.226   7.306 -0.0987 -0.2286  0.3969
  359loPI   C6A 5740   3.705   8.796   7.621  0.0383 -0.2998  0.0657
  359loPI   C1B 5741   4.015   9.422   9.025  0.1024 -0.0824 -0.4791
  359loPI   C2B 5742   4.037   9.518   8.539 -0.1786 -0.0312  0.0025
  359loPI   C3B 5743   4.181   9.607   8.212  0.1321  0.1042  0.1892
  359loPI   C4B 5744   4.089   9.676   7.791 -0.2262  0.1005  0.1838
  360loPI    C1 5745   7.386  10.826   9.629  0.0660 -0.0622 -0.0330
  360loPI    C2 5746   7.317  10.627   9.969  0.2535 -0.0644  0.0047
  360loPI    C3 5747   7.527  10.968   9.976 -0.1756  0.2071 -0.0418
  360loPI   PO4 5748   7.487  10.633   9.426  0.1599  0.4706  0.1635
  360loPI   GL1 5749   7.679  10.693   9.088  0.0473  0.0646  0.4227
  360loPI   GL2 5750   7.800  10.441   8.918 -0.4299 -0.1927  0.1115
  360loPI   C1A 5751   7.478  10.868   8.786 -0.2895 -0.1495 -0.0669
  360loPI   C2A 5752   7.364  11.152   8.355  0.2056 -0.0539 -0.1428
  360loPI   C3A 5753   7.417  11.255   7.950 -0.0389  0.1255  0.1362
  360loPI   C4A 5754   7.425  11.309   7.529 -0.1431  0.2251 -0.5394
  360loPI   C5A 5755   7.703  11.546   7.314 -0.1384 -0.0080 -0.0743
  360loPI   C6A 5756   7.707  11.878   6.999 -0.0702  0.0509 -0.3439
  360loPI   C1B 5757   7.678  10.506   8.457 -0.2124  0.1718 -0.0392
  360loPI   C2B 5758   7.455  10.597   7.964  0.1301 -0.0945  0.0821
  360loPI   C3B 5759   7.384  10.637   7.585 -0.1911  0.0698 -0.1161
  360loPI   C4B 5760   7.523  10.737   7.087 -0.1184 -0.2333  0.3674
  361loPI    C1 5761  11.040  15.273  10.286 -0.0547  0.1007 -0.1451
  361loPI    C2 5762  10.981  15.052  10.615  0.0164  0.2348 -0.0415
  361loPI    C3 5763  10.668  15.180  10.401 -0.0279  0.0999 -0.0582
  361loPI   PO4 5764  11.293  15.158  10.189 -0.0163 -0.0903 -0.0769
  361loPI   GL1 5765  11.383  14.990   9.839  0.3772 -0.4193  0.0178
  361loPI   GL2 5766  11.547  14.798   9.612 -0.3383  0.0787  0.0929
  361loPI   C1A 5767  11.306  15.215   9.429  0.2540  0.0477 -0.2023
  361loPI   C2A 5768  11.302  15.275   8.992  0.4189  0.0309  0.0668
  361loPI   C3A 5769  11.387  15.270   8.540 -0.1288 -0.1158 -0.3010
  361loPI   C4A 5770  11.350  15.285   8.127  0.1243  0.1152 -0.3838
  361loPI   C5A 5771  11.576  15.498   7.816 -0.2891  0.2818  0.0198
  361loPI   C6A 5772  11.818  15.474   7.401  0.0603  0.0923  0.0223
  361loPI   C1B 5773  11.569  14.867   9.240  0.4001 -0.2721  0.0880
  361loPI   C2B 5774  11.463  14.841   8.795 -0.2340 -0.0856 -0.2790
  361loPI   C3B 5775  11.403  14.759   8.363 -0.0685 -0.0381  0.0996
  361loPI   C4B 5776  11.597  14.695   7.975  0.1540 -0.0477 -0.0402
  362loPI    C1 5777   7.989   9.474   9.469  0.1411 -0.0447  0.1052
  362loPI    C2 5778   8.153   9.142   9.620  0.2498  0.0221  0.1349
  362loPI    C3 5779   7.755   9.176   9.598  0.2376 -0.0938  0.1679
  362loPI   PO4 5780   8.312   9.597   9.335  0.3502  0.0082 -0.0620
  362loPI   GL1 5781   8.435   9.740   8.980 -0.4103  0.2169  0.1100
  362loPI   GL2 5782   8.753   9.873   8.969  0.2668 -0.2363  0.1063
  362loPI   C1A 5783   8.306   9.715   8.506  0.1298 -0.4800 -0.1954
  362loPI   C2A 5784   8.210   9.788   8.091 -0.3413 -0.0117 -0.3665
  362loPI   C3A 5785   8.040   9.984   7.576  0.2147 -0.0729 -0.4117
  362loPI   C4A 5786   8.060  10.170   7.227  0.1353  0.0842  0.2889
  362loPI   C5A 5787   7.968  10.522   6.965  0.0089  0.1642 -0.0865
  362loPI   C6A 5788   7.899  10.758   6.654 -0.0078  0.1804  0.0077
  362loPI   C1B 5789   8.927   9.960   8.586  0.1384  0.2189  0.2391
  362loPI   C2B 5790   8.695   9.884   8.209  0.2377 -0.2131 -0.1181
  362loPI   C3B 5791   8.519  10.080   7.837 -0.0371 -0.0545 -0.1424
  362loPI   C4B 5792   8.597  10.137   7.466 -0.2124 -0.1270  0.0614
  363loPI    C1 5793   4.353  14.790  10.134 -0.1131 -0.0608 -0.0989
  363loPI    C2 5794   4.144  14.487   9.976 -0.0632  0.0306 -0.3453
  363loPI    C3 5795   4.505  14.420  10.135 -0.1984 -0.0960 -0.0859
  363loPI   PO4 5796   4.479  14.941   9.915 -0.1098 -0.3251 -0.1279
  363loPI   GL1 5797   4.395  15.031   9.474 -0.0892  0.1621 -0.0569
  363loPI   GL2 5798   4.113  14.805   9.565  0.1920 -0.1085  0.3196
  363loPI   C1A 5799   4.504  15.148   9.103 -0.0887  0.3892  0.2130
  363loPI   C2A 5800   4.525  15.069   8.630  0.1271  0.2029  0.0370
  363loPI   C3A 5801   4.580  15.139   8.135 -0.0338  0.0119 -0.0612
  363loPI   C4A 5802   4.448  15.201   7.670  0.2055  0.1103 -0.0992
  363loPI   C5A 5803   4.159  15.000   7.410  0.0858  0.0366 -0.0288
  363loPI   C6A 5804   3.832  15.071   7.149  0.1268  0.3998  0.0894
  363loPI   C1B 5805   4.305  14.622   9.186  0.2556 -0.3122 -0.0569
  363loPI   C2B 5806   4.236  14.679   8.720 -0.1578 -0.1760 -0.0930
  363loPI   C3B 5807   4.195  14.695   8.235  0.1560 -0.2425  0.2184
  363loPI   C4B 5808   4.332  14.755   7.910  0.3545  0.0186 -0.0291
  364loPI    C1 5809   1.401   0.554   9.659  0.0101  0.0284  0.2340
  364loPI    C2 5810   1.399   0.942   9.756  0.0387  0.0299  0.2287
  364loPI    C3 5811   1.395   0.663  10.044 -0.1070  0.0336  0.2312
  364loPI   PO4 5812   1.402   0.615   9.395 -0.1927 -0.1024 -0.0657
  364loPI   GL1 5813   1.503   0.664   8.881  0.3614  0.0601  0.2338
  364loPI   GL2 5814   1.834   0.687   8.718  0.0607 -0.2559  0.1171
  364loPI   C1A 5815   1.211   0.642   8.581  0.3318  0.1552 -0.2016
  364loPI   C2A 5816   1.144   0.589   8.132 -0.1229 -0.0105 -0.2406
  364loPI   C3A 5817   0.996   0.560   7.696  0.2516  0.1232  0.2021
  364loPI   C4A 5818   0.709   0.421   7.338 -0.1646  0.0615 -0.0196
  364loPI   C5A 5819   0.684   0.644   6.945 -0.0320  0.3069 -0.0871
  364loPI   C6A 5820   0.813   0.697   6.527 -0.0080 -0.1502 -0.0102
  364loPI   C1B 5821   2.045   0.690   8.265  0.2969  0.0661  0.0070
  364loPI   C2B 5822   2.188   0.577   7.873  0.3577 -0.0510  0.1900
  364loPI   C3B 5823   2.426   0.457   7.584  0.4101 -0.1935 -0.3161
  364loPI   C4B 5824   2.874   0.226   7.527  0.2575  0.0896 -0.2589
  365loPI    C1 5825  15.906   2.666  10.076  0.1744 -0.0063 -0.0211
  365loPI    C2 5826  16.134   2.446   9.831  0.1475 -0.1478  0.0798
  365loPI    C3 5827  16.186   2.424  10.227  0.0507 -0.0770  0.0968
  365loPI   PO4 5828  15.795   2.952   9.901 -0.3548  0.1019  0.1277
  365loPI   GL1 5829  15.933   3.246   9.532 -0.2720 -0.2620  0.2745
  365loPI   GL2 5830  16.112   3.440   9.425  0.0782 -0.3380  0.1941
  365loPI   C1A 5831  15.735   3.071   9.169  0.1755 -0.2234  0.1509
  365loPI   C2A 5832  15.391   2.978   8.907 -0.1402 -0.4159 -0.1510
  365loPI   C3A 5833  15.502   2.845   8.500  0.4274 -0.0812  0.1769
  365loPI   C4A 5834  15.291   2.874   8.077 -0.1278  0.0020 -0.1362
  365loPI   C5A 5835  15.190   2.833   7.684  0.0869  0.0521  0.0326
  365loPI   C6A 5836  14.842   2.970   7.433  0.5259  0.0570 -0.2878
  365loPI   C1B 5837  16.184   3.451   9.034  0.1340 -0.0051  0.0829
  365loPI   C2B 5838  16.269   3.225   8.661 -0.4759 -0.3936 -0.1115
  365loPI   C3B 5839  16.418   2.994   8.220 -0.0874  0.3083  0.2940
  365loPI   C4B 5840  16.683   2.963   7.901 -0.1497  0.2480  0.0168
  366loPI    C1 5841   6.992  16.251   9.926 -0.1255  0.2922  0.1782
  366loPI    C2 5842   6.736  16.042  10.152 -0.0443  0.0220  0.0247
  366loPI    C3 5843   7.003  16.285  10.325  0.0859 -0.2606  0.2285
  366loPI   PO4 5844   7.144  16.074   9.729 -0.1408 -0.1449 -0.0365
  366loPI   GL1 5845   7.041  15.910   9.366  0.1135 -0.0906  0.0335
  366loPI   GL2 5846   6.886  15.559   9.400 -0.0394  0.2835  0.2597
  366loPI   C1A 5847   7.092  15.713   8.905 -0.3545  0.1301 -0.1996
  366loPI   C2A 5848   7.232  15.479   8.629  0.0311 -0.1246 -0.2683
  366loPI   C3A 5849   7.620  15.616   8.396  0.6087  0.0825 -0.1230
  366loPI   C4A 5850   7.729  15.717   7.976 -0.0394  0.6743  0.0465
  366loPI   C5A 5851   7.326  15.714   7.672 -0.1175  0.0891 -0.1363
  366loPI   C6A 5852   6.990  16.004   7.722 -0.2301  0.0606 -0.3531
  366loPI   C1B 5853   6.810  15.283   8.987 -0.1020  0.0591 -0.3375
  366loPI   C2B 5854   6.750  15.342   8.596  0.0019  0.4066  0.1574
  366loPI   C3B 5855   6.569  15.518   8.232  0.1928  0.0591  0.1178
  366loPI   C4B 5856   6.621  15.963   8.030 -0.2189  0.2169  0.0414
  367loPI    C1 5857   8.957   0.809   9.810  0.1321 -0.0887 -0.3859
  367loPI    C2 5858   9.207   0.545   9.976 -0.1074 -0.0535  0.0458
  367loPI    C3 5859   9.227   0.930  10.080 -0.2467 -0.0270 -0.0235
  367loPI   PO4 5860   8.955   0.726   9.510 -0.1045 -0.1065 -0.0604
  367loPI   GL1 5861   9.047   0.747   9.059  0.0505  0.2902  0.0995
  367loPI   GL2 5862   9.372   0.870   9.135  0.1011 -0.1461  0.2513
  367loPI   C1A 5863   8.873   0.622   8.608  0.2795  0.3533 -0.0278
  367loPI   C2A 5864   9.044   0.549   8.205 -0.1149  0.0682  0.1392
  367loPI   C3A 5865   9.107   0.511   7.917 -0.1380 -0.1633  0.3071
  367loPI   C4A 5866   9.190   0.449   7.486 -0.0944 -0.0882 -0.0026
  367loPI   C5A 5867   9.096   0.778   7.235  0.1245  0.1332  0.1776
  367loPI   C6A 5868   9.025   0.796   6.751 -0.4486  0.0898 -0.3574
  367loPI   C1B 5869   9.295   0.905   8.650  0.0881  0.4051  0.1928
  367loPI   C2B 5870   9.495   0.760   8.316  0.0833  0.0074  0.0185
  367loPI   C3B 5871   9.678   0.796   8.028 -0.1955  0.2124  0.3030
  367loPI   C4B 5872  10.041   0.848   7.717 -0.0904  0.3525 -0.3395
  368loPI    C1 5873   7.282  19.374   9.477  0.1590  0.0535  0.1701
  368loPI    C2 5874   6.971  19.386   9.729  0.0850  0.0414  0.0801
  368loPI    C3 5875   7.135  19.727   9.597 -0.1203  0.0532 -0.1527
  368loPI   PO4 5876   7.241  19.290   9.267  0.2407  0.2318 -0.0628
  368loPI   GL1 5877   7.042  19.173   8.891 -0.0985 -0.2730 -0.2341
  368loPI   GL2 5878   7.052  19.430   8.680  0.1295  0.1667 -0.1466
  368loPI   C1A 5879   7.298  19.021   8.619 -0.0986  0.2355  0.0859
  368loPI   C2A 5880   7.428  18.983   8.189 -0.0855  0.0484 -0.0999
  368loPI   C3A 5881   7.629  18.789   7.922  0.3378  0.1986 -0.3979
  368loPI   C4A 5882   7.854  18.836   7.575  0.1639 -0.3844  0.1360
  368loPI   C5A 5883   7.971  18.576   7.126 -0.2012 -0.0155 -0.1368
  368loPI   C6A 5884   8.210  18.378   6.904 -0.0367  0.3593  0.2919
  368loPI   C1B 5885   7.044  19.321   8.336  0.3390 -0.0724  0.1830
  368loPI   C2B 5886   7.127  19.308   7.970  0.1662  0.2734  0.1003
  368loPI   C3B 5887   7.028  19.365   7.618 -0.0551 -0.0458  0.3438
  368loPI   C4B 5888   7.277  19.506   7.192  0.2116 -0.1374 -0.3665
  369loPI    C1 5889   0.015   2.040   9.674 -0.0745 -0.0332  0.1503
  369loPI    C2 5890  -0.223   1.735   9.571 -0.2073  0.0854  0.1038
  369loPI    C3 5891  -0.224   1.872   9.947 -0.0040 -0.0974  0.1730
  369loPI   PO4 5892   0.079   2.120   9.426 -0.0021  0.2826 -0.0452
  369loPI   GL1 5893   0.423   2.140   9.035 -0.1498  0.0389 -0.2329
  369loPI   GL2 5894   0.224   2.351   8.824  0.3081 -0.1194 -0.0375
  369loPI   C1A 5895   0.703   2.259   8.597 -0.0911 -0.2420  0.3155
  369loPI   C2A 5896   0.610   2.385   8.165 -0.5483  0.4300 -0.0612
  369loPI   C3A 5897   0.460   2.437   7.739  0.0464 -0.0065 -0.1954
  369loPI   C4A 5898   0.387   2.250   7.314  0.3028 -0.0515  0.1100
  369loPI   C5A 5899   0.352   1.976   6.950  0.1109 -0.2401  0.3115
  369loPI   C6A 5900   0.424   1.741   6.685 -0.1932 -0.2619  0.3305
  369loPI   C1B 5901   0.096   2.267   8.394  0.0238  0.2991  0.2412
  369loPI   C2B 5902  -0.134   2.408   7.962 -0.2142 -0.0585 -0.0670
  369loPI   C3B 5903  -0.402   2.517   7.712  0.3410 -0.1214  0.0874
  369loPI   C4B 5904  -0.426   2.728   7.396 -0.1323  0.0048  0.0913
  370loPI    C1 5905  10.372  14.203   9.776 -0.1301  0.1088  0.0804
  370loPI    C2 5906  10.095  14.005   9.986 -0.0409  0.0435  0.1375
  370loPI    C3 5907  10.364  14.233  10.175 -0.0735  0.1299  0.0799
  370loPI   PO4 5908  10.292  14.012   9.530  0.2990  0.1786  0.1165
  370loPI   GL1 5909  10.083  13.982   9.137 -0.1326  0.5057 -0.2839
  370loPI   GL2 5910   9.838  14.039   9.293 -0.0880 -0.2576 -0.1249
  370loPI   C1A 5911  10.161  13.861   8.685  0.2213 -0.2798  0.3309
  370loPI   C2A 5912  10.167  13.892   8.256  0.0709 -0.0955 -0.1695
  370loPI   C3A 5913  10.089  13.856   7.885  0.1900  0.4763 -0.0761
  370loPI   C4A 5914   9.933  13.970   7.544  0.0145  0.4080  0.0175
  370loPI   C5A 5915   9.617  14.074   7.294  0.2412 -0.2992 -0.2438
  370loPI   C6A 5916   9.544  14.241   6.902  0.0542 -0.0022  0.1705
  370loPI   C1B 5917   9.716  14.044   8.828  0.2011 -0.1982  0.2261
  370loPI   C2B 5918   9.692  14.080   8.399  0.1338  0.1530  0.1205
  370loPI   C3B 5919   9.567  14.014   7.967 -0.0152  0.0255  0.4305
  370loPI   C4B 5920   9.327  14.016   7.651 -0.1567 -0.1999  0.3149
  371loPI    C1 5921   8.677   6.744   8.956 -0.0539  0.2513  0.0879
  371loPI    C2 5922   8.712   6.554   9.306  0.0507  0.2944  0.1014
  371loPI    C3 5923   8.540   6.915   9.290 -0.0827  0.2308  0.0865
  371loPI   PO4 5924   8.887   6.647   8.860  0.1567 -0.1171 -0.1573
  371loPI   GL1 5925   8.865   6.434   8.541 -0.0290 -0.1455 -0.0782
  371loPI   GL2 5926   8.633   6.260   8.563  0.0742  0.1414  0.0373
  371loPI   C1A 5927   8.995   6.387   8.190 -0.0413 -0.2615  0.2891
  371loPI   C2A 5928   9.111   6.406   7.782 -0.0788  0.3215 -0.2197
  371loPI   C3A 5929   9.246   6.261   7.364  0.0212 -0.1038 -0.2148
  371loPI   C4A 5930   9.366   6.484   6.998  0.0135 -0.3037 -0.0896
  371loPI   C5A 5931   9.481   6.626   6.647 -0.3253 -0.4186  0.3491
  371loPI   C6A 5932   9.595   7.045   6.353  0.1206  0.1956  0.0241
  371loPI   C1B 5933   8.616   6.113   8.167  0.2501  0.1577 -0.1099
  371loPI   C2B 5934   8.687   6.200   7.733  0.4381 -0.0442  0.0371
  371loPI   C3B 5935   8.781   6.079   7.389 -0.1320  0.3227  0.1025
  371loPI   C4B 5936   8.937   6.003   7.044  0.0466  0.2698 -0.1976
  372loPI    C1 5937  10.117   6.443   9.191 -0.0874  0.1158  0.2326
  372loPI    C2 5938  10.140   6.073   9.040 -0.0980  0.1531  0.1392
  372loPI    C3 5939   9.786   6.257   9.066 -0.0524  0.2806 -0.1153
  372loPI   PO4 5940  10.276   6.604   9.018  0.1997 -0.1384 -0.1302
  372loPI   GL1 5941  10.416   6.439   8.672  0.2025  0.0368  0.0313
  372loPI   GL2 5942  10.672   6.166   8.600 -0.3225  0.0658  0.0764
  372loPI   C1A 5943  10.439   6.553   8.275 -0.3448  0.0175  0.0543
  372loPI   C2A 5944  10.488   6.727   7.818  0.0313 -0.1398  0.1095
  372loPI   C3A 5945  10.677   6.821   7.423 -0.0547 -0.1191 -0.1310
  372loPI   C4A 5946  10.586   6.879   6.941  0.5275  0.2905  0.1513
  372loPI   C5A 5947  10.331   6.647   6.711  0.0420 -0.4681  0.0298
  372loPI   C6A 5948  10.327   6.364   6.486  0.0137  0.2404 -0.1641
  372loPI   C1B 5949  10.502   5.971   8.278 -0.3273  0.0086 -0.2654
  372loPI   C2B 5950  10.483   6.017   7.845 -0.1591  0.1616 -0.0149
  372loPI   C3B 5951  10.664   6.220   7.477  0.2009 -0.2012  0.0540
  372loPI   C4B 5952  10.952   6.533   7.047 -0.0990 -0.0475  0.2617
  373loPI    C1 5953  14.243  15.012  10.582 -0.2809 -0.0246  0.0196
  373loPI    C2 5954  14.459  15.164  10.882 -0.0400 -0.0730 -0.1264
  373loPI    C3 5955  14.225  14.846  10.945  0.1569 -0.2011 -0.0335
  373loPI   PO4 5956  14.375  15.068  10.278 -0.2085 -0.0725  0.0634
  373loPI   GL1 5957  14.132  15.047   9.922  0.0590 -0.3234  0.2389
  373loPI   GL2 5958  14.196  15.392   9.993  0.0031 -0.1170 -0.5018
  373loPI   C1A 5959  14.331  14.926   9.492 -0.1189 -0.1715  0.1250
  373loPI   C2A 5960  14.361  14.992   8.978  0.2625 -0.1383  0.2917
  373loPI   C3A 5961  14.269  15.057   8.475 -0.4393 -0.0672  0.1004
  373loPI   C4A 5962  14.147  15.064   8.102  0.2280 -0.1550 -0.1245
  373loPI   C5A 5963  14.228  15.080   7.581 -0.2317  0.1051 -0.1982
  373loPI   C6A 5964  14.393  14.716   7.221 -0.0586  0.1518  0.1128
  373loPI   C1B 5965  14.206  15.461   9.639  0.0924 -0.0905 -0.1013
  373loPI   C2B 5966  14.221  15.502   9.180 -0.0474  0.3302  0.1372
  373loPI   C3B 5967  14.293  15.666   8.756  0.2703 -0.0414 -0.1646
  373loPI   C4B 5968  14.430  15.776   8.406 -0.1299 -0.1618  0.1567
  374loPI    C1 5969  12.379  18.280  10.366  0.0686 -0.2049  0.1451
  374loPI    C2 5970  12.093  18.006  10.308 -0.1446  0.0696 -0.1305
  374loPI    C3 5971  12.020  18.325  10.538  0.2483 -0.3169  0.5630
  374loPI   PO4 5972  12.575  18.184  10.226 -0.0100 -0.1519  0.2464
  374loPI   GL1 5973  12.635  17.989   9.917 -0.0181  0.1062  0.0905
  374loPI   GL2 5974  12.337  18.140   9.767 -0.2327 -0.1149 -0.2166
  374loPI   C1A 5975  12.788  17.868   9.501  0.0219  0.0448  0.1224
  374loPI   C2A 5976  12.729  17.965   9.031  0.0925  0.0828  0.0146
  374loPI   C3A 5977  12.567  18.000   8.591 -0.0889  0.1541 -0.0596
  374loPI   C4A 5978  12.552  17.992   8.073 -0.0523 -0.0778  0.2948
  374loPI   C5A 5979  12.590  17.754   7.719 -0.3590 -0.1523  0.2121
  374loPI   C6A 5980  12.544  17.539   7.310  0.2732 -0.2137 -0.4444
  374loPI   C1B 5981  12.221  18.066   9.346  0.1276  0.1179  0.1328
  374loPI   C2B 5982  12.168  17.726   9.055 -0.0860 -0.2397 -0.1052
  374loPI   C3B 5983  12.171  17.747   8.617  0.0253  0.2159 -0.0451
  374loPI   C4B 5984  12.253  17.626   8.178  0.0736 -0.2594 -0.0329
  375loPI    C1 5985   8.803   3.042   8.968  0.0917 -0.0892  0.2399
  375loPI    C2 5986   9.083   3.212   9.197  0.1920 -0.0550  0.0938
  375loPI    C3 5987   8.707   3.348   9.206  0.2720  0.1788 -0.0243
  375loPI   PO4 5988   8.838   3.066   8.724  0.0286 -0.1281 -0.3972
  375loPI   GL1 5989   9.099   3.209   8.367 -0.0841 -0.1445 -0.3346
  375loPI   GL2 5990   9.292   2.972   8.268  0.4435  0.2962 -0.0780
  375loPI   C1A 5991   9.153   3.509   8.023  0.0738 -0.0785  0.3967
  375loPI   C2A 5992   9.189   3.703   7.686 -0.2774 -0.0099  0.1414
  375loPI   C3A 5993   9.355   3.771   7.201 -0.1796 -0.2853  0.1214
  375loPI   C4A 5994   9.300   3.862   6.760 -0.0435 -0.1437  0.2452
  375loPI   C5A 5995   9.066   4.127   6.372  0.0786  0.2009  0.0050
  375loPI   C6A 5996   9.062   4.512   6.233 -0.0694 -0.0111  0.1115
  375loPI   C1B 5997   9.285   3.119   7.880  0.1111  0.3248  0.0889
  375loPI   C2B 5998   9.497   2.977   7.533 -0.1266 -0.0423  0.4382
  375loPI   C3B 5999   9.691   2.937   7.035  0.0983 -0.2025  0.1211
  375loPI   C4B 6000   9.854   3.040   6.620 -0.2372 -0.1818 -0.0193
  376loPI    C1 6001   2.158  19.352  10.049 -0.1342  0.1030 -0.1365
  376loPI    C2 6002   1.806  19.186   9.955 -0.0917 -0.0636 -0.0074
  376loPI    C3 6003   1.882  19.296  10.332  0.0046 -0.0527 -0.0295
  376loPI   PO4 6004   2.185  19.504   9.837 -0.2486 -0.2221 -0.3132
  376loPI   GL1 6005   2.251  19.417   9.410 -0.0465  0.2937 -0.0754
  376loPI   GL2 6006   2.618  19.267   9.409 -0.2713  0.0701  0.0172
  376loPI   C1A 6007   2.413  19.378   8.928  0.0784 -0.4889 -0.2915
  376loPI   C2A 6008   2.444  18.976   8.719  0.0987  0.4962  0.2580
  376loPI   C3A 6009   2.434  18.840   8.170  0.3494  0.1589 -0.1836
  376loPI   C4A 6010   2.355  18.787   7.719 -0.0763  0.1607 -0.0012
  376loPI   C5A 6011   2.291  18.998   7.316  0.0891  0.0844  0.2043
  376loPI   C6A 6012   2.617  19.334   7.144  0.0172 -0.2043  0.1426
  376loPI   C1B 6013   2.433  18.961   9.212  0.4505  0.2116 -0.1662
  376loPI   C2B 6014   2.082  18.786   8.983  0.3773 -0.0491  0.0989
  376loPI   C3B 6015   2.040  18.714   8.558  0.0830 -0.3203 -0.0276
  376loPI   C4B 6016   1.919  18.697   8.099  0.1070 -0.2115  0.2301
  377loPI    C1 6017   3.513   4.652   9.370  0.0998  0.0785 -0.0287
  377loPI    C2 6018   3.352   4.441   9.670 -0.0499  0.1696 -0.0442
  377loPI    C3 6019   3.665   4.680   9.739  0.1559 -0.0985 -0.0375
  377loPI   PO4 6020   3.652   4.455   9.195 -0.1223  0.0311 -0.1436
  377loPI   GL1 6021   3.354   4.346   8.870  0.1659 -0.1266 -0.0810
  377loPI   GL2 6022   2.963   4.341   8.913 -0.0990  0.2018  0.0838
  377loPI   C1A 6023   3.217   4.277   8.419  0.1722 -0.0543 -0.0695
  377loPI   C2A 6024   3.038   4.247   7.985  0.0969 -0.1821  0.1228
  377loPI   C3A 6025   2.857   4.167   7.596 -0.0870  0.0126 -0.3303
  377loPI   C4A 6026   2.472   4.284   7.282  0.3093  0.2500  0.2584
  377loPI   C5A 6027   2.356   4.396   6.845  0.2378 -0.1256 -0.3801
  377loPI   C6A 6028   2.447   4.342   6.503  0.3179 -0.1528  0.0723
  377loPI   C1B 6029   2.805   4.564   8.501 -0.4816 -0.0753 -0.1543
  377loPI   C2B 6030   2.798   4.761   8.068 -0.2849 -0.0723 -0.0141
  377loPI   C3B 6031   2.806   4.730   7.586  0.0368  0.1311 -0.0476
  377loPI   C4B 6032   2.919   4.477   7.234 -0.0560 -0.1273 -0.1939
  378loPI    C1 6033   4.129  15.298  10.177 -0.3721 -0.1357 -0.0111
  378loPI    C2 6034   3.926  15.179  10.500 -0.0740 -0.1690  0.1683
  378loPI    C3 6035   4.060  15.555  10.475  0.0745 -0.2210  0.1746
  378loPI   PO4 6036   4.007  15.150   9.938  0.0114 -0.0380 -0.0226
  378loPI   GL1 6037   3.858  15.224   9.603 -0.0296 -0.1767 -0.0539
  378loPI   GL2 6038   3.621  15.387   9.387 -0.2541 -0.2240 -0.0520
  378loPI   C1A 6039   3.933  15.010   9.183  0.0324  0.0632  0.1411
  378loPI   C2A 6040   3.812  14.972   8.678 -0.0755  0.2846  0.2844
  378loPI   C3A 6041   3.721  14.788   8.216 -0.2616 -0.2807  0.0547
  378loPI   C4A 6042   3.445  14.748   7.946 -0.0232 -0.2083 -0.1431
  378loPI   C5A 6043   3.468  14.914   7.513 -0.1184  0.2916  0.2568
  378loPI   C6A 6044   3.331  14.887   7.055 -0.3985  0.0610 -0.1157
  378loPI   C1B 6045   3.693  15.559   9.006  0.1582 -0.0035 -0.0459
  378loPI   C2B 6046   3.605  15.407   8.629 -0.2551  0.1415 -0.1672
  378loPI   C3B 6047   3.605  15.386   8.247  0.0120  0.1317  0.0005
  378loPI   C4B 6048   3.443  15.600   7.926  0.1316  0.1995 -0.2122
  379loPI    C1 6049   6.885  14.711   9.639  0.0616  0.0242 -0.1119
  379loPI    C2 6050   6.598  14.907   9.836 -0.0079 -0.2962  0.1139
  379loPI    C3 6051   6.742  15.055   9.493 -0.2177  0.0279  0.1610
  379loPI   PO4 6052   6.791  14.505   9.554  0.0134 -0.0251 -0.3489
  379loPI   GL1 6053   6.797  14.380   9.170  0.2653 -0.1212  0.0266
  379loPI   GL2 6054   6.561  14.141   9.290 -0.1145 -0.0468 -0.1592
  379loPI   C1A 6055   7.018  14.058   8.792  0.0191 -0.1136 -0.2782
  379loPI   C2A 6056   7.187  14.020   8.436  0.2491  0.4419 -0.2810
  379loPI   C3A 6057   7.027  14.003   7.987 -0.1761  0.3106 -0.1888
  379loPI   C4A 6058   7.124  13.813   7.632 -0.1034  0.1141 -0.1141
  379loPI   C5A 6059   7.170  13.454   7.322  0.0652 -0.3520  0.0126
  379loPI   C6A 6060   7.375  12.984   7.387  0.1256  0.1168 -0.2671
  379loPI   C1B 6061   6.428  13.799   8.987  0.3048 -0.1609  0.2191
  379loPI   C2B 6062   6.562  13.929   8.479  0.1796  0.1918 -0.3854
  379loPI   C3B 6063   6.578  14.114   8.108  0.3245 -0.0799 -0.0458
  379loPI   C4B 6064   6.684  14.105   7.703  0.0615 -0.2162  0.0352
  380loPI    C1 6065   1.466  12.760  10.394  0.2636 -0.1759 -0.0372
  380loPI    C2 6066   1.827  12.896  10.496  0.2096 -0.1399  0.1080
  380loPI    C3 6067   1.558  12.811  10.779  0.0081  0.0979 -0.0081
  380loPI   PO4 6068   1.352  12.949  10.196 -0.2722 -0.0137 -0.2630
  380loPI   GL1 6069   1.370  13.035   9.753  0.0740  0.2800 -0.0880
  380loPI   GL2 6070   1.469  13.329   9.765 -0.0427  0.0235  0.1598
  380loPI   C1A 6071   1.312  12.897   9.331  0.0150  0.1385 -0.0793
  380loPI   C2A 6072   1.231  12.767   8.892  0.0245  0.0330 -0.2244
  380loPI   C3A 6073   1.199  12.751   8.513  0.0070 -0.0451  0.1342
  380loPI   C4A 6074   1.206  12.607   8.076 -0.1951  0.0004 -0.3438
  380loPI   C5A 6075   1.258  12.537   7.623 -0.1678 -0.4116 -0.0410
  380loPI   C6A 6076   1.661  12.392   7.548 -0.0834  0.0696 -0.0001
  380loPI   C1B 6077   1.576  13.344   9.379  0.0464  0.0846  0.1966
  380loPI   C2B 6078   1.554  13.245   8.931 -0.0375 -0.3180  0.0442
  380loPI   C3B 6079   1.381  13.182   8.534 -0.5831 -0.1286 -0.2107
  380loPI   C4B 6080   1.199  13.103   8.140 -0.0685 -0.1243  0.3052
  381loPI    C1 6081   1.977  12.340   9.985  0.0560  0.3329 -0.0986
  381loPI    C2 6082   1.719  12.038  10.033  0.2919  0.1316 -0.0748
  381loPI    C3 6083   1.736  12.331  10.305  0.1746  0.0828 -0.0135
  381loPI   PO4 6084   1.961  12.369   9.771  0.1260  0.0043 -0.2103
  381loPI   GL1 6085   2.024  12.632   9.444 -0.2299 -0.3213  0.2124
  381loPI   GL2 6086   1.763  12.763   9.484  0.0780  0.0026  0.0589
  381loPI   C1A 6087   2.222  12.815   9.073 -0.0886 -0.2784 -0.0738
  381loPI   C2A 6088   2.325  12.915   8.560  0.1827 -0.4152 -0.1219
  381loPI   C3A 6089   2.448  13.109   8.154  0.0634  0.0113  0.1938
  381loPI   C4A 6090   2.450  13.080   7.684  0.1315 -0.2010 -0.2219
  381loPI   C5A 6091   2.534  13.073   7.235 -0.2335  0.0540  0.2474
  381loPI   C6A 6092   2.809  12.753   6.959  0.1945  0.0330 -0.0357
  381loPI   C1B 6093   1.745  12.849   9.042  0.0824 -0.1465  0.0831
  381loPI   C2B 6094   1.862  12.907   8.554  0.1308 -0.0310 -0.2094
  381loPI   C3B 6095   1.686  13.013   8.199  0.1160 -0.0981  0.5780
  381loPI   C4B 6096   1.521  13.439   8.131  0.0622  0.1683 -0.0720
  382loPI    C1 6097   2.456   6.771   9.731  0.0946 -0.2312  0.0222
  382loPI    C2 6098   2.704   6.546   9.951 -0.0500 -0.2902  0.1268
  382loPI    C3 6099   2.330   6.614  10.077 -0.0998 -0.2335 -0.0481
  382loPI   PO4 6100   2.510   6.582   9.431 -0.1602 -0.0035 -0.2947
  382loPI   GL1 6101   2.778   6.630   9.088  0.0647  0.0705  0.2421
  382loPI   GL2 6102   2.659   6.954   9.014  0.0255 -0.2884 -0.0271
  382loPI   C1A 6103   2.689   6.571   8.642 -0.2111 -0.5657  0.2204
  382loPI   C2A 6104   2.440   6.627   8.331  0.0025 -0.0809 -0.0108
  382loPI   C3A 6105   2.234   6.434   8.040  0.4872 -0.0060 -0.0044
  382loPI   C4A 6106   2.285   6.389   7.594 -0.0661 -0.0652 -0.2667
  382loPI   C5A 6107   2.118   6.466   7.309  0.3221 -0.2072  0.0773
  382loPI   C6A 6108   1.707   6.389   7.197 -0.1157 -0.1633  0.1550
  382loPI   C1B 6109   2.278   7.005   8.693  0.2257  0.0286  0.3124
  382loPI   C2B 6110   2.240   7.048   8.300 -0.0344  0.2431 -0.2788
  382loPI   C3B 6111   2.014   6.899   7.956 -0.0473 -0.2435 -0.3116
  382loPI   C4B 6112   2.017   6.959   7.477  0.4575 -0.0954  0.0611
  383loPI    C1 6113   4.825  17.499   9.383 -0.1290 -0.1075  0.0053
  383loPI    C2 6114   4.760  17.228   9.670 -0.0442 -0.0950  0.0366
  383loPI    C3 6115   5.095  17.213   9.452 -0.0239  0.0040  0.0604
  383loPI   PO4 6116   4.660  17.685   9.499 -0.1608 -0.0930 -0.1951
  383loPI   GL1 6117   4.332  17.691   9.179 -0.0441 -0.0515  0.1499
  383loPI   GL2 6118   4.583  17.688   9.002 -0.0105 -0.6256 -0.3492
  383loPI   C1A 6119   4.239  17.782   8.664  0.0171  0.0346 -0.4207
  383loPI   C2A 6120   4.240  17.771   8.206  0.4025  0.0154  0.2432
  383loPI   C3A 6121   4.156  17.570   7.781 -0.2010 -0.2840 -0.1589
  383loPI   C4A 6122   4.244  17.724   7.284 -0.1200  0.1234 -0.3367
  383loPI   C5A 6123   4.032  17.864   6.870 -0.0710  0.1729 -0.3456
  383loPI   C6A 6124   3.682  17.613   6.650  0.0348 -0.1915  0.0470
  383loPI   C1B 6125   4.851  17.688   8.749 -0.2868  0.1941 -0.2082
  383loPI   C2B 6126   4.746  17.828   8.456  0.4789 -0.3038  0.0334
  383loPI   C3B 6127   4.605  17.853   7.927 -0.2685  0.0443  0.1386
  383loPI   C4B 6128   4.701  17.778   7.532  0.1600  0.0532 -0.0122
  384loPI    C1 6129   1.396   4.772   9.632 -0.2305  0.2349 -0.2666
  384loPI    C2 6130   1.271   5.142   9.549 -0.4801  0.2400  0.1074
  384loPI    C3 6131   1.540   5.082   9.839 -0.0754  0.1680 -0.2722
  384loPI   PO4 6132   1.324   4.669   9.312  0.2287 -0.0362 -0.0934
  384loPI   GL1 6133   1.099   4.460   9.070 -0.3547 -0.1079 -0.3019
  384loPI   GL2 6134   1.265   4.200   9.169  0.2023  0.1759  0.0367
  384loPI   C1A 6135   1.109   4.520   8.702  0.0902 -0.0551  0.1314
  384loPI   C2A 6136   1.326   4.764   8.361 -0.1666 -0.3212  0.3717
  384loPI   C3A 6137   1.318   4.814   8.048 -0.0472  0.0952 -0.1538
  384loPI   C4A 6138   1.247   4.766   7.576 -0.0711 -0.0054  0.2693
  384loPI   C5A 6139   1.193   5.122   7.218 -0.1685  0.0215  0.2160
  384loPI   C6A 6140   1.044   5.208   6.770  0.0563 -0.1744  0.0204
  384loPI   C1B 6141   1.472   4.205   8.732  0.0539  0.4708  0.2788
  384loPI   C2B 6142   1.265   4.137   8.445  0.1606 -0.0500  0.0206
  384loPI   C3B 6143   1.397   4.178   8.106 -0.0702  0.2645 -0.3088
  384loPI   C4B 6144   1.634   3.955   7.697  0.0550 -0.1919  0.2065
  385loPI    C1 6145   9.432   4.771   9.180  0.0063 -0.0998  0.1039
  385loPI    C2 6146   9.810   4.735   9.052 -0.0371 -0.0352 -0.0447
  385loPI    C3 6147   9.595   4.408   9.137 -0.0358 -0.0831 -0.2222
  385loPI   PO4 6148   9.381   5.019   9.020  0.2100 -0.1634  0.0940
  385loPI   GL1 6149   9.393   5.111   8.514 -0.2545 -0.0732 -0.0555
  385loPI   GL2 6150   9.736   5.141   8.672 -0.0048 -0.4012 -0.2116
  385loPI   C1A 6151   9.561   4.996   8.150 -0.2207 -0.0834 -0.0308
  385loPI   C2A 6152   9.778   4.964   7.884 -0.1735 -0.0575 -0.3302
  385loPI   C3A 6153   9.772   5.049   7.469  0.2479 -0.0325 -0.1517
  385loPI   C4A 6154  10.043   5.022   7.209  0.1290 -0.3715  0.1660
  385loPI   C5A 6155  10.352   4.997   6.735  0.5334 -0.1355  0.0175
  385loPI   C6A 6156  10.748   5.212   6.560  0.0550 -0.5903  0.0655
  385loPI   C1B 6157  10.026   5.145   8.295 -0.1270 -0.2368 -0.0172
  385loPI   C2B 6158  10.170   5.358   7.927 -0.0837  0.1944  0.4436
  385loPI   C3B 6159  10.264   5.360   7.471 -0.1020  0.1896  0.0424
  385loPI   C4B 6160  10.597   5.329   7.010  0.0414  0.2050 -0.2447
  386loPI    C1 6161   8.312  17.230   9.842 -0.1068 -0.3973 -0.0066
  386loPI    C2 6162   8.668  17.378   9.947 -0.2226 -0.0845 -0.0443
  386loPI    C3 6163   8.431  17.211  10.223 -0.1384 -0.0987  0.0202
  386loPI   PO4 6164   8.277  17.368   9.603  0.1028 -0.0075 -0.1269
  386loPI   GL1 6165   8.221  17.312   9.210 -0.2816 -0.2080 -0.1989
  386loPI   GL2 6166   8.449  17.265   9.004  0.0274  0.2683 -0.1287
  386loPI   C1A 6167   8.118  17.536   8.810  0.0206  0.1272 -0.0379
  386loPI   C2A 6168   8.193  17.655   8.376 -0.4932  0.0537 -0.0509
  386loPI   C3A 6169   8.112  17.560   8.006  0.1158  0.1980  0.1818
  386loPI   C4A 6170   8.134  17.628   7.545  0.0178 -0.1696 -0.0227
  386loPI   C5A 6171   7.817  17.673   7.246 -0.0516  0.0333  0.0594
  386loPI   C6A 6172   7.844  17.810   6.809  0.2765  0.1639 -0.3608
  386loPI   C1B 6173   8.566  17.354   8.660 -0.3559 -0.2380 -0.2152
  386loPI   C2B 6174   8.586  17.266   8.188  0.1876  0.6415  0.0205
  386loPI   C3B 6175   8.460  17.337   7.734  0.0647  0.4943 -0.1669
  386loPI   C4B 6176   8.553  17.477   7.339 -0.0041 -0.3952 -0.0480
  387loPI    C1 6177  12.889  14.933  10.249 -0.0957  0.2048 -0.1707
  387loPI    C2 6178  12.808  14.746  10.593  0.1809 -0.0004 -0.2138
  387loPI    C3 6179  12.512  14.838  10.340  0.0375 -0.3783 -0.1895
  387loPI   PO4 6180  13.072  14.798  10.156  0.0192 -0.2272  0.1702
  387loPI   GL1 6181  13.123  14.662   9.721 -0.0274 -0.2488 -0.4402
  387loPI   GL2 6182  13.454  14.875   9.762  0.1356 -0.2125 -0.0986
  387loPI   C1A 6183  13.030  14.844   9.339  0.1976 -0.2572 -0.2214
  387loPI   C2A 6184  12.909  15.025   8.934  0.1123  0.0278  0.2928
  387loPI   C3A 6185  12.801  14.927   8.451  0.2365  0.0416 -0.0054
  387loPI   C4A 6186  12.792  14.770   7.976 -0.2532 -0.0106 -0.1714
  387loPI   C5A 6187  12.830  14.791   7.583  0.1004 -0.1284  0.2463
  387loPI   C6A 6188  13.238  14.641   7.477 -0.0588  0.0683 -0.0878
  387loPI   C1B 6189  13.509  14.895   9.419 -0.0322  0.1179  0.1803
  387loPI   C2B 6190  13.419  14.897   9.012  0.0454 -0.0009 -0.1304
  387loPI   C3B 6191  13.378  14.916   8.610 -0.3161  0.1736  0.0015
  387loPI   C4B 6192  13.508  15.129   8.338  0.1391  0.1012  0.0194
  388loPI    C1 6193  10.107  15.569  10.035  0.2311  0.1417  0.0123
  388loPI    C2 6194   9.951  15.210  10.114  0.0951  0.1690 -0.1265
  388loPI    C3 6195  10.185  15.391  10.384 -0.0731  0.1059  0.0646
  388loPI   PO4 6196  10.283  15.546   9.835 -0.0510 -0.1867  0.1278
  388loPI   GL1 6197  10.339  15.689   9.412  0.1831  0.0313 -0.3053
  388loPI   GL2 6198  10.268  16.000   9.364  0.0498  0.1007  0.0815
  388loPI   C1A 6199  10.540  15.415   9.085  0.2881 -0.3629 -0.1319
  388loPI   C2A 6200  10.515  15.482   8.607 -0.0114  0.0071 -0.2427
  388loPI   C3A 6201  10.732  15.533   8.250 -0.0255 -0.0790  0.2592
  388loPI   C4A 6202  10.943  15.685   7.814 -0.0605 -0.0809 -0.2904
  388loPI   C5A 6203  11.152  15.741   7.456  0.0569  0.2368  0.1362
  388loPI   C6A 6204  11.409  15.523   7.150 -0.1699 -0.2764  0.1570
  388loPI   C1B 6205  10.366  15.905   8.963  0.1865  0.0110  0.0376
  388loPI   C2B 6206  10.524  16.119   8.624  0.0909  0.0543 -0.1343
  388loPI   C3B 6207  10.851  16.333   8.337 -0.3803  0.1081 -0.0821
  388loPI   C4B 6208  11.291  16.463   8.250  0.0321  0.1047  0.0278
  389loPI    C1 6209  13.441   2.289  10.120 -0.1833 -0.3902  0.1994
  389loPI    C2 6210  13.551   2.470  10.460 -0.1859 -0.1814  0.0910
  389loPI    C3 6211  13.391   2.103  10.471 -0.0742 -0.2255  0.3037
  389loPI   PO4 6212  13.345   2.480  10.015  0.4613  0.2968 -0.2164
  389loPI   GL1 6213  13.458   2.708   9.687  0.1047  0.0743  0.3304
  389loPI   GL2 6214  13.265   2.931   9.500 -0.3510  0.1612 -0.4765
  389loPI   C1A 6215  13.585   2.590   9.339 -0.2831 -0.1989 -0.1804
  389loPI   C2A 6216  13.573   2.579   8.917 -0.0738  0.0056  0.0634
  389loPI   C3A 6217  13.727   2.897   8.611 -0.1717 -0.0686 -0.2406
  389loPI   C4A 6218  13.727   3.011   8.165 -0.2627 -0.1402 -0.0690
  389loPI   C5A 6219  13.985   3.151   7.714 -0.1116  0.2076 -0.0597
  389loPI   C6A 6220  13.940   3.573   7.471  0.3559  0.0964 -0.0283
  389loPI   C1B 6221  13.142   2.690   9.078  0.2982  0.1810  0.2046
  389loPI   C2B 6222  13.146   2.714   8.623 -0.1149  0.1376  0.2349
  389loPI   C3B 6223  13.336   2.692   8.263 -0.0510 -0.1958 -0.2643
  389loPI   C4B 6224  13.485   2.633   7.902 -0.1780 -0.0748  0.0231
  390loPI    C1 6225   9.608  16.505   9.491  0.0063  0.1108 -0.0269
  390loPI    C2 6226   9.344  16.597   9.776  0.0590  0.1375  0.0137
  390loPI    C3 6227   9.603  16.298   9.833 -0.0502  0.0236 -0.0801
  390loPI   PO4 6228   9.712  16.715   9.411  0.1257  0.2828  0.2432
  390loPI   GL1 6229   9.581  16.977   9.020 -0.4644 -0.1057  0.0415
  390loPI   GL2 6230   9.468  17.234   9.098 -0.2209 -0.0386 -0.2914
  390loPI   C1A 6231   9.859  16.855   8.629 -0.1584 -0.2203  0.1108
  390loPI   C2A 6232   9.845  16.706   8.276  0.3717 -0.1119 -0.0241
  390loPI   C3A 6233   9.811  16.500   7.816 -0.3870 -0.1784 -0.0622
  390loPI   C4A 6234  10.049  16.349   7.421  0.0452  0.3612 -0.0576
  390loPI   C5A 6235   9.860  16.023   7.078 -0.0078 -0.1761 -0.2733
  390loPI   C6A 6236   9.850  15.959   6.706 -0.0596  0.0922 -0.3007
  390loPI   C1B 6237   9.379  17.302   8.668 -0.0013 -0.2508 -0.1474
  390loPI   C2B 6238   9.529  17.097   8.341 -0.1516  0.0534  0.2135
  390loPI   C3B 6239   9.672  17.121   7.963  0.1468  0.0920  0.2565
  390loPI   C4B 6240   9.811  17.487   7.740 -0.1371 -0.2567 -0.0510
  391loPI    C1 6241   6.939   3.715   8.987  0.1689 -0.2264  0.0669
  391loPI    C2 6242   6.594   3.611   9.160  0.0642  0.3640  0.2350
  391loPI    C3 6243   6.940   3.537   9.346  0.0470 -0.3110  0.0261
  391loPI   PO4 6244   6.912   3.612   8.638 -0.1254  0.2133 -0.1444
  391loPI   GL1 6245   7.211   3.393   8.242 -0.0876  0.1727 -0.0012
  391loPI   GL2 6246   7.100   3.701   8.186  0.3748  0.3638 -0.2699
  391loPI   C1A 6247   7.210   3.142   7.817  0.0675 -0.1008  0.3064
  391loPI   C2A 6248   7.259   3.038   7.440 -0.2494  0.1343 -0.1164
  391loPI   C3A 6249   7.226   3.276   7.195 -0.0587  0.2992  0.2280
  391loPI   C4A 6250   7.405   3.305   6.775  0.0290 -0.2209  0.1565
  391loPI   C5A 6251   7.652   3.232   6.344 -0.0910 -0.1366 -0.2079
  391loPI   C6A 6252   7.893   3.167   5.932  0.2731  0.0448 -0.0688
  391loPI   C1B 6253   6.938   3.678   7.790  0.4315  0.0482 -0.1593
  391loPI   C2B 6254   6.988   3.648   7.372  0.0119 -0.1034  0.0538
  391loPI   C3B 6255   7.070   3.682   6.879  0.0940  0.1661 -0.1557
  391loPI   C4B 6256   6.896   3.965   6.591  0.4637  0.0611 -0.3842
  392loPI    C1 6257  11.896   4.901   9.901 -0.0653  0.0130 -0.0016
  392loPI    C2 6258  11.958   4.576  10.125 -0.0550  0.0157 -0.0006
  392loPI    C3 6259  12.037   4.940  10.273 -0.2843  0.0342  0.0809
  392loPI   PO4 6260  12.063   4.716   9.621  0.0400 -0.3575 -0.0139
  392loPI   GL1 6261  12.113   4.644   9.130 -0.0200  0.3757  0.3142
  392loPI   GL2 6262  11.989   4.298   8.991  0.0901  0.0139 -0.0243
  392loPI   C1A 6263  12.413   4.717   8.731  0.0291  0.0931  0.0998
  392loPI   C2A 6264  12.643   4.552   8.359  0.2828  0.1257 -0.5037
  392loPI   C3A 6265  12.611   4.438   7.973 -0.1323  0.3738  0.2906
  392loPI   C4A 6266  12.535   4.293   7.641 -0.3294  0.2121 -0.0181
  392loPI   C5A 6267  12.442   4.128   7.142 -0.1749  0.0504  0.2045
  392loPI   C6A 6268  12.254   3.783   6.939 -0.4716  0.2435 -0.1581
  392loPI   C1B 6269  12.319   4.232   8.741  0.0459  0.2792  0.0643
  392loPI   C2B 6270  12.738   4.281   8.766 -0.4118  0.3637 -0.2234
  392loPI   C3B 6271  13.007   4.100   8.441  0.0893  0.0778  0.2605
  392loPI   C4B 6272  12.961   4.050   7.925 -0.0044 -0.1294 -0.1091
  393loPI    C1 6273  13.432   4.883   9.569 -0.2943 -0.0287  0.0173
  393loPI    C2 6274  13.308   4.686   9.894 -0.0740  0.0512  0.1515
  393loPI    C3 6275  13.675   4.846   9.885 -0.0801  0.0526 -0.1358
  393loPI   PO4 6276  13.477   4.686   9.415 -0.1718  0.1187 -0.0918
  393loPI   GL1 6277  13.351   4.309   9.176  0.1877  0.1444 -0.1865
  393loPI   GL2 6278  13.722   4.337   9.094  0.1701 -0.0358  0.1853
  393loPI   C1A 6279  13.252   4.265   8.817  0.1303 -0.0347 -0.3250
  393loPI   C2A 6280  13.402   4.330   8.417  0.2388  0.1418 -0.1623
  393loPI   C3A 6281  13.439   4.225   8.024 -0.0995  0.0588  0.3385
  393loPI   C4A 6282  13.331   3.858   7.678  0.1199  0.2149  0.0072
  393loPI   C5A 6283  13.056   3.527   7.514  0.0529 -0.0788 -0.1778
  393loPI   C6A 6284  12.911   3.366   7.171 -0.2341 -0.2478  0.1949
  393loPI   C1B 6285  13.903   4.421   8.695  0.1517 -0.2298 -0.2088
  393loPI   C2B 6286  13.931   4.282   8.306  0.2222 -0.1837 -0.2409
  393loPI   C3B 6287  13.941   4.407   7.883 -0.0290 -0.0774 -0.1980
  393loPI   C4B 6288  14.148   4.495   7.487  0.1861 -0.3262  0.2015
  394loPI    C1 6289  14.657  10.593   9.799 -0.0696  0.1117 -0.1619
  394loPI    C2 6290  14.644  10.915  10.036  0.2020 -0.0039  0.0154
  394loPI    C3 6291  14.968  10.845   9.813  0.1251 -0.1301 -0.0580
  394loPI   PO4 6292  14.392  10.620   9.754 -0.1257  0.1005  0.0796
  394loPI   GL1 6293  14.206  10.706   9.364  0.0728  0.3074 -0.0113
  394loPI   GL2 6294  14.603  10.631   9.305  0.0152  0.1385 -0.2311
  394loPI   C1A 6295  14.327  10.436   8.961 -0.1920 -0.0163 -0.1109
  394loPI   C2A 6296  14.350  10.586   8.573  0.0314  0.0988 -0.1441
  394loPI   C3A 6297  14.141  10.780   8.241 -0.0708  0.1286 -0.3605
  394loPI   C4A 6298  14.168  10.933   7.895  0.1599 -0.3049 -0.0980
  394loPI   C5A 6299  14.421  11.147   7.629 -0.3968  0.1173  0.0522
  394loPI   C6A 6300  14.580  11.639   7.694  0.0413 -0.0704  0.0614
  394loPI   C1B 6301  14.500  10.935   8.937 -0.1174  0.0413 -0.1712
  394loPI   C2B 6302  14.363  11.081   8.615  0.2932  0.1112  0.1914
  394loPI   C3B 6303  14.564  11.167   8.159 -0.1823  0.3370  0.1592
  394loPI   C4B 6304  14.888  11.561   8.113 -0.0955  0.0691  0.0165
  395loPI    C1 6305   1.290  17.164   9.973  0.4397  0.0786 -0.0667
  395loPI    C2 6306   1.405  16.865   9.735  0.1308 -0.2731  0.2134
  395loPI    C3 6307   1.510  16.865  10.121  0.3975  0.1511  0.1472
  395loPI   PO4 6308   1.325  17.374   9.738 -0.3892  0.3020 -0.0497
  395loPI   GL1 6309   1.302  17.289   9.355  0.1320  0.0894  0.1054
  395loPI   GL2 6310   0.928  17.321   9.428  0.1704 -0.1618  0.2888
  395loPI   C1A 6311   1.454  17.314   8.927  0.0406  0.1384  0.2193
  395loPI   C2A 6312   1.480  17.299   8.423 -0.1202  0.1711 -0.0120
  395loPI   C3A 6313   1.470  17.371   7.853 -0.1450  0.0123 -0.0374
  395loPI   C4A 6314   1.631  16.974   7.610 -0.3420 -0.5332 -0.1436
  395loPI   C5A 6315   1.677  16.686   7.239 -0.1605 -0.1528  0.5433
  395loPI   C6A 6316   1.717  16.285   7.106 -0.1967  0.2542  0.1964
  395loPI   C1B 6317   0.973  17.521   9.019  0.0587 -0.1944  0.1054
  395loPI   C2B 6318   1.116  17.695   8.614  0.2587  0.0997 -0.2390
  395loPI   C3B 6319   1.200  17.660   8.178  0.3276  0.0768 -0.1707
  395loPI   C4B 6320   1.030  17.551   7.889  0.1479 -0.3030  0.2586
  396loPI    C1 6321   5.505  19.080   9.555 -0.1888 -0.1746 -0.1079
  396loPI    C2 6322   5.890  19.026   9.648 -0.1520 -0.0323 -0.1745
  396loPI    C3 6323   5.653  19.237   9.891 -0.1414  0.0416 -0.2280
  396loPI   PO4 6324   5.498  19.159   9.282  0.0008  0.0862  0.0146
  396loPI   GL1 6325   5.381  19.140   8.851  0.0984 -0.0532 -0.2614
  396loPI   GL2 6326   4.979  19.143   8.717  0.1406  0.1229 -0.1064
  396loPI   C1A 6327   5.642  19.107   8.533  0.3137  0.0087  0.0737
  396loPI   C2A 6328   5.616  19.276   8.155 -0.2377 -0.0283 -0.0062
  396loPI   C3A 6329   5.581  19.377   7.712 -0.1470  0.0238  0.2348
  396loPI   C4A 6330   5.585  19.409   7.204  0.3825  0.1266  0.1642
  396loPI   C5A 6331   5.770  19.498   6.767  0.0138 -0.3329  0.2063
  396loPI   C6A 6332   6.161  19.396   6.756 -0.0801  0.0139 -0.2079
  396loPI   C1B 6333   5.146  19.378   8.399  0.1004 -0.1708  0.1310
  396loPI   C2B 6334   5.228  19.143   7.911 -0.1651  0.0268  0.0674
  396loPI   C3B 6335   5.232  18.974   7.516  0.1230 -0.2108  0.0032
  396loPI   C4B 6336   4.985  18.945   7.121 -0.0380 -0.2593 -0.0934
  397loPI    C1 6337  15.800   7.751   9.887 -0.1904 -0.0609 -0.0660
  397loPI    C2 6338  15.991   8.061  10.051  0.0308 -0.3276  0.1906
  397loPI    C3 6339  15.640   7.941  10.201 -0.1695 -0.0619 -0.0549
  397loPI   PO4 6340  15.734   7.824   9.611  0.0173 -0.1630  0.1585
  397loPI   GL1 6341  15.732   7.956   9.164  0.0877 -0.1521 -0.3334
  397loPI   GL2 6342  15.723   8.342   9.189 -0.1402 -0.2729 -0.0790
  397loPI   C1A 6343  15.890   8.031   8.746 -0.1054  0.1183  0.2213
  397loPI   C2A 6344  15.929   8.284   8.324 -0.0203  0.0375 -0.0688
  397loPI   C3A 6345  15.591   8.324   7.948  0.1234  0.1497  0.2684
  397loPI   C4A 6346  15.462   8.014   7.611 -0.1801 -0.1023 -0.0843
  397loPI   C5A 6347  15.650   7.838   7.251  0.2128  0.1405 -0.1730
  397loPI   C6A 6348  15.770   7.492   6.927  0.4111 -0.3406  0.1428
  397loPI   C1B 6349  15.574   8.495   8.704  0.1809  0.1629 -0.0237
  397loPI   C2B 6350  15.681   8.716   8.262 -0.3137  0.0806  0.4259
  397loPI   C3B 6351  15.946   8.664   7.920 -0.0460  0.1085 -0.1068
  397loPI   C4B 6352  15.964   8.953   7.545  0.0872  0.0529 -0.1994
  398loPI    C1 6353   2.201  13.258  10.178  0.1073  0.1555  0.1181
  398loPI    C2 6354   2.064  13.484  10.478  0.2752  0.0806  0.2529
  398loPI    C3 6355   2.288  13.162  10.556  0.2422  0.0069  0.0506
  398loPI   PO4 6356   2.331  13.322  10.004  0.1540  0.1749  0.2871
  398loPI   GL1 6357   2.352  13.157   9.575  0.2862  0.1806  0.0606
  398loPI   GL2 6358   2.554  13.083   9.430  0.2810  0.1553  0.1250
  398loPI   C1A 6359   2.072  13.261   9.253 -0.0349  0.0463 -0.0825
  398loPI   C2A 6360   2.079  13.297   8.892 -0.0518 -0.0863 -0.0900
  398loPI   C3A 6361   1.960  13.348   8.430  0.1588 -0.2017 -0.0782
  398loPI   C4A 6362   2.009  13.307   7.944  0.2632  0.0274  0.1179
  398loPI   C5A 6363   2.052  13.455   7.544  0.0172  0.0217 -0.3825
  398loPI   C6A 6364   1.768  13.429   7.146  0.2520  0.0639  0.1625
  398loPI   C1B 6365   2.544  13.149   9.107 -0.1534  0.3008  0.0979
  398loPI   C2B 6366   2.767  13.140   8.793 -0.3139 -0.1518  0.1603
  398loPI   C3B 6367   2.915  13.436   8.431 -0.0729 -0.2383 -0.1406
  398loPI   C4B 6368   3.064  13.332   7.943 -0.1956 -0.2064  0.2148
  399loPI    C1 6369  13.603  17.658  10.432  0.1230  0.0282 -0.0305
  399loPI    C2 6370  13.366  17.477  10.165 -0.0542  0.3425 -0.0919
  399loPI    C3 6371  13.402  17.328  10.534 -0.0271  0.0638 -0.2046
  399loPI   PO4 6372  13.742  17.787  10.187  0.2282 -0.2996 -0.0688
  399loPI   GL1 6373  13.707  17.676   9.742 -0.5288 -0.1175 -0.3272
  399loPI   GL2 6374  14.071  17.631   9.602  0.2957 -0.1651  0.1195
  399loPI   C1A 6375  13.581  17.792   9.307  0.1043  0.0466 -0.0770
  399loPI   C2A 6376  13.572  17.773   8.937  0.0938 -0.0945 -0.1307
  399loPI   C3A 6377  13.560  17.869   8.567  0.2806 -0.0313 -0.1564
  399loPI   C4A 6378  13.550  17.825   8.097 -0.0567  0.1380  0.0383
  399loPI   C5A 6379  13.540  17.954   7.728  0.2288  0.2263  0.0423
  399loPI   C6A 6380  13.424  17.877   7.415 -0.2696 -0.3340  0.0190
  399loPI   C1B 6381  13.982  17.560   9.107 -0.1140 -0.2468  0.1258
  399loPI   C2B 6382  14.025  17.644   8.737 -0.1262 -0.2018  0.1164
  399loPI   C3B 6383  14.080  17.735   8.246 -0.0744  0.1011  0.3906
  399loPI   C4B 6384  14.136  17.911   7.862  0.4884 -0.0540  0.2098
  400loPI    C1 6385  16.445   7.350   9.505 -0.1822 -0.3016 -0.0589
  400loPI    C2 6386  16.620   7.010   9.622 -0.1628 -0.2084  0.1886
  400loPI    C3 6387  16.843   7.333   9.543 -0.1960 -0.1951  0.1495
  400loPI   PO4 6388  16.270   7.353   9.283  0.1411  0.2186  0.3518
  400loPI   GL1 6389  16.181   7.596   9.101 -0.0976 -0.2449  0.1650
  400loPI   GL2 6390  16.224   7.892   9.118 -0.3193 -0.3541 -0.3131
  400loPI   C1A 6391  16.282   7.666   8.652  0.2601 -0.2345 -0.0875
  400loPI   C2A 6392  16.029   7.816   8.193  0.1339  0.0308 -0.0926
  400loPI   C3A 6393  15.968   7.880   7.803  0.1204 -0.0842 -0.0521
  400loPI   C4A 6394  15.949   8.220   7.543 -0.0440  0.1147  0.0289
  400loPI   C5A 6395  16.080   8.540   7.161  0.3735 -0.1808  0.0806
  400loPI   C6A 6396  15.863   8.824   6.866 -0.2330  0.1403  0.2545
  400loPI   C1B 6397  16.543   8.006   8.908 -0.1367 -0.1090 -0.3955
  400loPI   C2B 6398  16.663   7.998   8.493 -0.1525 -0.2769 -0.2038
  400loPI   C3B 6399  16.621   7.828   8.101 -0.1624 -0.1727 -0.3729
  400loPI   C4B 6400  16.475   7.985   7.732  0.0691 -0.1948  0.0222
  401loPI    C1 6401   4.633  13.103   9.643 -0.1113  0.1487  0.3481
  401loPI    C2 6402   4.942  12.883   9.516 -0.2662  0.0056  0.2139
  401loPI    C3 6403   4.720  12.757   9.825 -0.3847 -0.0524  0.1060
  401loPI   PO4 6404   4.509  13.154   9.449 -0.1515  0.1291 -0.1056
  401loPI   GL1 6405   4.332  13.495   9.157  0.0623 -0.0405  0.2793
  401loPI   GL2 6406   4.350  13.234   9.023 -0.1281 -0.0732 -0.4777
  401loPI   C1A 6407   4.365  13.803   8.946 -0.1028  0.0509 -0.0511
  401loPI   C2A 6408   4.441  13.692   8.522  0.4349 -0.0093 -0.0019
  401loPI   C3A 6409   4.391  13.537   8.222  0.2643  0.0153 -0.0016
  401loPI   C4A 6410   4.610  13.381   7.907  0.1357  0.1776 -0.1586
  401loPI   C5A 6411   4.518  13.446   7.412  0.0100  0.3176 -0.0809
  401loPI   C6A 6412   4.523  13.607   7.048  0.0060 -0.0477 -0.2479
  401loPI   C1B 6413   4.394  13.018   8.775  0.2896  0.2054  0.1052
  401loPI   C2B 6414   4.366  12.960   8.406  0.1399 -0.2661 -0.1557
  401loPI   C3B 6415   4.438  12.885   8.053  0.4448 -0.1722  0.1324
  401loPI   C4B 6416   4.501  12.948   7.674 -0.3648 -0.0300 -0.2555
  402loPI    C1 6417   8.755  14.932  10.041  0.0501 -0.1100 -0.1423
  402loPI    C2 6418   8.880  14.681  10.326 -0.1141  0.1514  0.1680
  402loPI    C3 6419   9.129  14.959  10.182  0.0765 -0.1954 -0.1952
  402loPI   PO4 6420   8.711  14.793   9.877 -0.0142 -0.2705 -0.2624
  402loPI   GL1 6421   8.702  14.686   9.477  0.1408  0.1898 -0.0798
  402loPI   GL2 6422   8.921  14.438   9.420 -0.1628  0.0482 -0.1012
  402loPI   C1A 6423   8.486  14.552   9.125  0.2605 -0.2999  0.1093
  402loPI   C2A 6424   8.548  14.412   8.675  0.0335  0.2742  0.1242
  402loPI   C3A 6425   8.511  14.221   8.273 -0.1437 -0.2751  0.2296
  402loPI   C4A 6426   8.441  14.426   7.806 -0.0589  0.0226 -0.4201
  402loPI   C5A 6427   8.606  14.505   7.386 -0.0698  0.0883  0.0460
  402loPI   C6A 6428   8.810  14.829   7.203  0.1568  0.1092 -0.1933
  402loPI   C1B 6429   8.901  14.171   8.991  0.0692 -0.0450  0.5116
  402loPI   C2B 6430   9.168  14.161   8.597 -0.1763 -0.0757 -0.2136
  402loPI   C3B 6431   9.093  14.198   8.114  0.1813  0.6022  0.2008
  402loPI   C4B 6432   8.906  14.254   7.776 -0.2919  0.3862  0.4043
  403loPI    C1 6433  19.237   8.272   9.717  0.0625  0.2557  0.1315
  403loPI    C2 6434  19.450   8.547   9.914  0.1834  0.0231  0.3303
  403loPI    C3 6435  19.179   8.326  10.109 -0.1522  0.2272  0.1050
  403loPI   PO4 6436  19.176   8.488   9.484  0.1751 -0.0787  0.0712
  403loPI   GL1 6437  18.914   8.427   9.064 -0.3080 -0.0179 -0.1088
  403loPI   GL2 6438  18.698   8.129   8.924  0.0110 -0.2779 -0.0663
  403loPI   C1A 6439  19.006   8.387   8.581 -0.0631 -0.0196 -0.2087
  403loPI   C2A 6440  18.856   8.532   8.126  0.0123  0.1230  0.0488
  403loPI   C3A 6441  18.801   8.678   7.672 -0.0392  0.1555 -0.4307
  403loPI   C4A 6442  19.169   8.662   7.267 -0.1575 -0.2957  0.0387
  403loPI   C5A 6443  19.266   8.345   6.910  0.0739 -0.0851  0.2928
  403loPI   C6A 6444  19.380   7.815   6.915  0.2840 -0.0665 -0.2978
  403loPI   C1B 6445  18.515   8.490   8.720 -0.1387 -0.3266 -0.0574
  403loPI   C2B 6446  18.367   8.515   8.324  0.4687  0.4201  0.1574
  403loPI   C3B 6447  18.356   8.697   7.957  0.0573  0.1976  0.2328
  403loPI   C4B 6448  18.161   8.767   7.538 -0.0767  0.1395  0.0459
  404loPI    C1 6449  11.882  10.980   9.718  0.0318 -0.0081 -0.0707
  404loPI    C2 6450  11.696  10.705   9.941  0.3488  0.0059  0.2192
  404loPI    C3 6451  11.484  10.949   9.706  0.0111 -0.0426  0.4664
  404loPI   PO4 6452  12.028  11.173   9.852  0.0935  0.1422  0.0337
  404loPI   GL1 6453  12.305  11.373   9.654 -0.1534 -0.0509 -0.1626
  404loPI   GL2 6454  12.288  11.067   9.428  0.1299  0.1190  0.0571
  404loPI   C1A 6455  12.360  11.658   9.415 -0.1425  0.0483  0.0099
  404loPI   C2A 6456  12.501  11.811   9.055 -0.2007 -0.1920 -0.0334
  404loPI   C3A 6457  12.556  11.825   8.610  0.1211  0.1039 -0.0445
  404loPI   C4A 6458  12.737  11.932   8.178  0.2036  0.0137  0.0172
  404loPI   C5A 6459  12.641  12.048   7.729 -0.2294 -0.4607 -0.0278
  404loPI   C6A 6460  12.413  12.213   7.412 -0.0464  0.0659 -0.0898
  404loPI   C1B 6461  12.217  11.269   9.107 -0.0429  0.1139 -0.0473
  404loPI   C2B 6462  12.298  11.257   8.697 -0.0458  0.0001  0.1209
  404loPI   C3B 6463  12.250  11.091   8.298  0.0794 -0.1376 -0.1076
  404loPI   C4B 6464  12.189  11.314   7.989  0.1415  0.0587  0.2244
  405loPI    C1 6465  14.924   3.969   9.861  0.0283 -0.2021  0.1220
  405loPI    C2 6466  14.670   3.749  10.080  0.0030 -0.0378  0.2604
  405loPI    C3 6467  15.055   3.643  10.053 -0.0807 -0.2978  0.0357
  405loPI   PO4 6468  14.847   4.039   9.624 -0.0766  0.4996  0.0390
  405loPI   GL1 6469  14.874   3.766   9.345  0.0642  0.1037 -0.0830
  405loPI   GL2 6470  15.180   3.717   9.364  0.2549  0.0523  0.3408
  405loPI   C1A 6471  14.755   3.651   8.961 -0.3763  0.0005  0.2270
  405loPI   C2A 6472  14.759   3.521   8.478  0.1751  0.1367 -0.0425
  405loPI   C3A 6473  14.796   3.591   8.058  0.1297  0.0588 -0.1829
  405loPI   C4A 6474  14.738   3.679   7.651  0.0984 -0.4103 -0.0592
  405loPI   C5A 6475  14.856   3.523   7.237 -0.3122  0.1419  0.3240
  405loPI   C6A 6476  15.005   3.260   7.021 -0.2867 -0.0910  0.0875
  405loPI   C1B 6477  15.248   3.879   8.919  0.0387 -0.2175  0.2717
  405loPI   C2B 6478  15.312   3.854   8.392 -0.1481 -0.0104 -0.1327
  405loPI   C3B 6479  15.333   3.839   7.896  0.1287  0.1131 -0.1585
  405loPI   C4B 6480  15.249   3.698   7.462  0.2311 -0.1487 -0.0871
  406loPI    C1 6481   3.072  15.224   9.874 -0.2391  0.0224  0.1688
  406loPI    C2 6482   3.024  14.831   9.812  0.0261  0.0491 -0.2436
  406loPI    C3 6483   2.725  15.084   9.731 -0.1403 -0.0638  0.0090
  406loPI   PO4 6484   3.242  15.355   9.686  0.0235 -0.1606  0.1192
  406loPI   GL1 6485   3.132  15.273   9.324  0.3381 -0.1605 -0.2182
  406loPI   GL2 6486   3.119  14.936   9.361 -0.0051  0.1508  0.4136
  406loPI   C1A 6487   3.387  15.017   8.984 -0.0362 -0.1387  0.2415
  406loPI   C2A 6488   3.300  14.747   8.587 -0.0595  0.2382 -0.0085
  406loPI   C3A 6489   2.995  14.430   8.476 -0.0520 -0.1213  0.0400
  406loPI   C4A 6490   3.011  14.418   8.067 -0.0502  0.0887  0.1032
  406loPI   C5A 6491   2.929  14.516   7.682 -0.1079 -0.3025  0.2348
  406loPI   C6A 6492   2.876  14.864   7.486 -0.3428 -0.1499  0.0822
  406loPI   C1B 6493   2.683  15.026   9.240 -0.3088 -0.2403 -0.2286
  406loPI   C2B 6494   2.364  14.926   9.037  0.1894 -0.1494 -0.0741
  406loPI   C3B 6495   2.210  15.057   8.644  0.1846 -0.0554 -0.2513
  406loPI   C4B 6496   2.242  15.100   8.174  0.0179  0.4684 -0.1917
  407loPI    C1 6497  11.940   3.371   9.782 -0.0624 -0.1144 -0.1114
  407loPI    C2 6498  12.204   3.071   9.763  0.0925  0.0195 -0.1022
  407loPI    C3 6499  12.208   3.320  10.075 -0.0857 -0.0136 -0.0724
  407loPI   PO4 6500  11.966   3.449   9.517 -0.0687 -0.1309  0.0004
  407loPI   GL1 6501  12.351   3.104   9.319 -0.3350  0.3145 -0.4534
  407loPI   GL2 6502  12.151   3.173   9.125  0.1817  0.0060 -0.0336
  407loPI   C1A 6503  12.558   2.731   9.096  0.0821 -0.0945 -0.0796
  407loPI   C2A 6504  12.694   2.583   8.695 -0.0893 -0.3779  0.0970
  407loPI   C3A 6505  12.888   2.522   8.273  0.0923  0.2284 -0.2099
  407loPI   C4A 6506  12.886   2.652   7.903 -0.5414 -0.1039  0.1370
  407loPI   C5A 6507  13.149   2.459   7.548  0.2890  0.1420 -0.2490
  407loPI   C6A 6508  13.024   2.225   7.147  0.1912  0.2489 -0.0356
  407loPI   C1B 6509  12.360   3.105   8.687  0.0390 -0.0285 -0.0134
  407loPI   C2B 6510  12.503   3.327   8.222 -0.0569  0.0336 -0.1015
  407loPI   C3B 6511  12.668   3.220   7.745  0.1218 -0.0765 -0.3720
  407loPI   C4B 6512  12.933   2.949   7.482  0.1597 -0.0758  0.0935
  408loPI    C1 6513  10.250  10.899   9.922  0.0765  0.1286 -0.2789
  408loPI    C2 6514  10.544  11.025  10.161 -0.0398  0.1312 -0.1353
  408loPI    C3 6515  10.513  10.637  10.072  0.0158  0.1330 -0.1635
  408loPI   PO4 6516  10.131  10.989   9.595  0.4124  0.3206 -0.3163
  408loPI   GL1 6517  10.119  11.311   9.298  0.0945 -0.3286  0.4970
  408loPI   GL2 6518  10.102  11.538   9.245 -0.0388 -0.1184  0.0462
  408loPI   C1A 6519  10.257  11.234   8.909  0.0395  0.1040 -0.0761
  408loPI   C2A 6520  10.384  11.347   8.394 -0.0717 -0.2115 -0.0313
  408loPI   C3A 6521  10.323  11.451   7.847 -0.1114 -0.1067 -0.2796
  408loPI   C4A 6522  10.060  11.174   7.659 -0.0243 -0.0172  0.0782
  408loPI   C5A 6523   9.979  10.828   7.374  0.3365 -0.0564 -0.0105
  408loPI   C6A 6524  10.014  10.424   7.025  0.0957 -0.0159 -0.0807
  408loPI   C1B 6525  10.169  11.734   8.892 -0.3888 -0.1749  0.1116
  408loPI   C2B 6526  10.178  11.876   8.472  0.0523 -0.5009 -0.0886
  408loPI   C3B 6527  10.221  11.905   8.059 -0.0547 -0.1037  0.1542
  408loPI   C4B 6528  10.431  11.888   7.607  0.0186  0.1611 -0.2986
  409loPI    C1 6529  12.161   5.159   9.381 -0.0500 -0.0843 -0.0237
  409loPI    C2 6530  11.913   5.380   9.603 -0.0275 -0.0753 -0.0074
  409loPI    C3 6531  12.284   5.510   9.528 -0.1084  0.0269 -0.2377
  409loPI   PO4 6532  12.092   5.158   9.202  0.4092  0.1459  0.0527
  409loPI   GL1 6533  11.902   5.118   8.816  0.1190  0.1093  0.3616
  409loPI   GL2 6534  11.911   4.829   8.702 -0.0478 -0.0757  0.1022
  409loPI   C1A 6535  11.900   5.244   8.337 -0.1661 -0.2687  0.0912
  409loPI   C2A 6536  11.995   5.542   8.059  0.0958 -0.1022 -0.2321
  409loPI   C3A 6537  12.034   5.667   7.639 -0.1858 -0.0347  0.1218
  409loPI   C4A 6538  12.240   5.879   7.301  0.2219 -0.2592  0.1523
  409loPI   C5A 6539  12.324   6.259   7.038  0.5272 -0.0675  0.1096
  409loPI   C6A 6540  12.509   6.776   7.091 -0.2064 -0.0212 -0.3413
  409loPI   C1B 6541  12.181   4.817   8.307 -0.1268  0.2772  0.1023
  409loPI   C2B 6542  12.222   4.677   7.810 -0.0457 -0.0829  0.4247
  409loPI   C3B 6543  12.473   4.760   7.369  0.0055  0.2392 -0.0390
  409loPI   C4B 6544  12.804   4.547   7.159  0.1023 -0.0299  0.0663
  410loPI    C1 6545   2.736   7.327   9.455  0.0086  0.1879 -0.0017
  410loPI    C2 6546   2.596   7.533   9.768 -0.2246 -0.3995  0.2968
  410loPI    C3 6547   2.776   7.180   9.825  0.2337 -0.2601 -0.1953
  410loPI   PO4 6548   2.580   7.342   9.320 -0.0142 -0.0104 -0.0087
  410loPI   GL1 6549   2.540   7.708   9.040 -0.0837  0.0112  0.0829
  410loPI   GL2 6550   2.620   7.902   8.858 -0.0815 -0.0966 -0.0528
  410loPI   C1A 6551   2.538   7.465   8.651  0.2668 -0.3887  0.2136
  410loPI   C2A 6552   2.379   7.502   8.257  0.0027 -0.2258  0.2692
  410loPI   C3A 6553   2.213   7.332   7.844  0.3240 -0.0520  0.0514
  410loPI   C4A 6554   1.866   7.429   7.541 -0.3153  0.1061 -0.0430
  410loPI   C5A 6555   1.724   7.759   7.336  0.0951  0.1101  0.0516
  410loPI   C6A 6556   1.841   7.956   6.899 -0.0840  0.1187 -0.3369
  410loPI   C1B 6557   2.308   7.907   8.567 -0.0059 -0.2816  0.1994
  410loPI   C2B 6558   2.072   8.101   8.279  0.1259 -0.3906  0.3329
  410loPI   C3B 6559   1.913   8.387   7.990 -0.1356 -0.1266  0.2550
  410loPI   C4B 6560   1.645   8.614   7.607 -0.0737  0.2851 -0.0598
  411loPI    C1 6561   6.827   9.353   9.462 -0.0437  0.0664  0.2816
  411loPI    C2 6562   6.850   8.954   9.462  0.0262  0.0696  0.0681
  411loPI    C3 6563   7.178   9.173   9.527  0.0342  0.0933 -0.0496
  411loPI   PO4 6564   6.731   9.416   9.262  0.1036 -0.2657 -0.0071
  411loPI   GL1 6565   6.584   9.416   8.825 -0.0974  0.2154  0.2018
  411loPI   GL2 6566   6.474   9.669   8.844 -0.0393 -0.0495 -0.0314
  411loPI   C1A 6567   6.760   9.582   8.424  0.0369 -0.2729 -0.0923
  411loPI   C2A 6568   6.736   9.910   8.253 -0.1256 -0.3233 -0.2465
  411loPI   C3A 6569   6.645   9.979   7.829  0.4327  0.1204  0.0633
  411loPI   C4A 6570   6.452  10.246   7.557  0.1224  0.1817 -0.1001
  411loPI   C5A 6571   6.211  10.274   7.286  0.0063 -0.1047 -0.0783
  411loPI   C6A 6572   6.150   9.846   7.100  0.2603  0.2671  0.1165
  411loPI   C1B 6573   6.284   9.774   8.537 -0.2688  0.1293  0.0739
  411loPI   C2B 6574   6.141   9.554   8.089  0.0475 -0.1151 -0.0235
  411loPI   C3B 6575   5.844   9.269   8.028  0.3246  0.0118 -0.1211
  411loPI   C4B 6576   5.430   9.184   8.080  0.0415 -0.2338 -0.0325
  412loPI    C1 6577   6.854   6.118   8.703  0.0830 -0.1447 -0.2225
  412loPI    C2 6578   7.083   5.962   8.992 -0.1809 -0.4823 -0.1890
  412loPI    C3 6579   6.723   6.113   9.081  0.0009  0.0035 -0.2482
  412loPI   PO4 6580   6.798   5.973   8.517 -0.0537 -0.1017 -0.2693
  412loPI   GL1 6581   6.578   5.955   8.119  0.2359  0.0854 -0.0951
  412loPI   GL2 6582   6.410   6.185   8.137  0.0276  0.1662  0.0359
  412loPI   C1A 6583   6.559   5.892   7.703  0.1036  0.0615  0.2871
  412loPI   C2A 6584   6.508   5.806   7.249 -0.1302 -0.0215  0.0084
  412loPI   C3A 6585   6.720   5.662   6.875  0.2913 -0.0445  0.0568
  412loPI   C4A 6586   6.990   5.916   6.602  0.1243  0.1842  0.4055
  412loPI   C5A 6587   7.099   6.345   6.615 -0.1274 -0.1268  0.3174
  412loPI   C6A 6588   6.920   6.558   6.919 -0.1150 -0.2405  0.0844
  412loPI   C1B 6589   6.233   6.265   7.722  0.1546  0.0433 -0.4089
  412loPI   C2B 6590   6.139   6.179   7.272 -0.4078  0.0139  0.0779
  412loPI   C3B 6591   6.036   6.145   6.877  0.0625  0.0939  0.2646
  412loPI   C4B 6592   6.247   5.823   6.619 -0.1437  0.0662 -0.1914
  413loPI    C1 6593  16.355  14.672  10.090 -0.0088  0.1024  0.1596
  413loPI    C2 6594  16.233  14.368  10.319 -0.2382  0.0700 -0.0015
  413loPI    C3 6595  16.354  14.710  10.488  0.0881 -0.1309  0.1837
  413loPI   PO4 6596  16.494  14.545   9.843  0.2399  0.1027 -0.2157
  413loPI   GL1 6597  16.633  14.679   9.526  0.2719  0.3072  0.0447
  413loPI   GL2 6598  16.637  15.011   9.599  0.1086  0.1187  0.0661
  413loPI   C1A 6599  16.643  14.720   9.121  0.0129  0.0185 -0.0107
  413loPI   C2A 6600  16.717  14.913   8.770  0.2597 -0.0329 -0.5174
  413loPI   C3A 6601  16.649  14.979   8.296 -0.1362  0.1566 -0.2393
  413loPI   C4A 6602  16.488  15.135   7.959 -0.1847 -0.0832  0.1458
  413loPI   C5A 6603  16.267  15.337   7.591 -0.2666  0.3330 -0.0549
  413loPI   C6A 6604  16.362  15.778   7.464  0.3377 -0.1359  0.0857
  413loPI   C1B 6605  16.794  15.208   9.179  0.0665  0.1710 -0.4076
  413loPI   C2B 6606  16.847  15.381   8.761  0.1690  0.1893 -0.0367
  413loPI   C3B 6607  16.884  15.602   8.342 -0.1316 -0.1593 -0.0624
  413loPI   C4B 6608  17.019  15.935   8.080 -0.0839  0.0782 -0.1459
  414loPI    C1 6609  19.474   6.568   9.099 -0.1139  0.0707  0.0701
  414loPI    C2 6610  19.446   6.959   9.181  0.1673  0.0901  0.0824
  414loPI    C3 6611  19.724   6.736   9.363 -0.0256 -0.1278  0.1143
  414loPI   PO4 6612  19.328   6.542   8.864 -0.0855 -0.0460  0.1813
  414loPI   GL1 6613  18.996   6.578   8.697  0.4321  0.1246  0.1477
  414loPI   GL2 6614  18.874   6.941   8.676  0.0657 -0.0746 -0.2145
  414loPI   C1A 6615  18.871   6.276   8.354 -0.0063 -0.0360  0.2605
  414loPI   C2A 6616  18.758   6.319   7.870 -0.1745  0.1542 -0.1361
  414loPI   C3A 6617  18.846   6.315   7.393  0.0831  0.3245 -0.0348
  414loPI   C4A 6618  19.076   6.479   6.973 -0.2182 -0.2305 -0.0078
  414loPI   C5A 6619  19.273   6.899   6.872 -0.0908 -0.0114 -0.1100
  414loPI   C6A 6620  19.490   7.189   6.680  0.1046 -0.3779 -0.2039
  414loPI   C1B 6621  18.918   6.831   8.231 -0.1487  0.1476  0.2537
  414loPI   C2B 6622  18.863   6.754   7.782 -0.0526  0.2352  0.0682
  414loPI   C3B 6623  18.600   6.774   7.434  0.0639  0.1266  0.1808
  414loPI   C4B 6624  18.448   6.426   7.122  0.0127  0.0842 -0.0222
  415loPI    C1 6625   9.940   8.928   9.441  0.0768 -0.0877 -0.0431
  415loPI    C2 6626   9.769   8.571   9.503 -0.0213 -0.0044  0.1785
  415loPI    C3 6627   9.837   8.816   9.811  0.3672  0.0250  0.0744
  415loPI   PO4 6628   9.880   8.901   9.083 -0.1090 -0.1773  0.1894
  415loPI   GL1 6629  10.103   8.972   8.803  0.0044 -0.0293  0.2063
  415loPI   GL2 6630   9.930   8.729   8.587  0.1528 -0.1650  0.2971
  415loPI   C1A 6631  10.164   9.197   8.409 -0.1313  0.1557  0.2180
  415loPI   C2A 6632  10.331   9.366   8.139 -0.1592 -0.2478 -0.1895
  415loPI   C3A 6633  10.517   9.585   7.804 -0.0145  0.0521 -0.0555
  415loPI   C4A 6634  10.818   9.779   7.442 -0.1188 -0.0396 -0.1551
  415loPI   C5A 6635  11.250   9.824   7.297  0.2335 -0.0098 -0.1988
  415loPI   C6A 6636  11.728   9.901   7.234  0.3056 -0.3595 -0.1980
  415loPI   C1B 6637   9.782   8.865   8.157 -0.0417  0.1026 -0.1074
  415loPI   C2B 6638   9.991   8.868   7.762 -0.1386 -0.0818 -0.0764
  415loPI   C3B 6639  10.317   8.677   7.407 -0.0538  0.0929 -0.1464
  415loPI   C4B 6640  10.413   8.848   6.987 -0.0178  0.2416  0.2001
  416loPI    C1 6641   7.428   7.336   8.975  0.0199 -0.0168  0.0822
  416loPI    C2 6642   7.605   6.985   9.046 -0.0117 -0.1214 -0.3322
  416loPI    C3 6643   7.216   7.033   9.127  0.0679 -0.0727  0.0379
  416loPI   PO4 6644   7.487   7.419   8.755 -0.0521  0.0449 -0.1031
  416loPI   GL1 6645   7.530   7.159   8.378  0.3228 -0.1691  0.0393
  416loPI   GL2 6646   7.294   7.359   8.311  0.1181  0.0587  0.0830
  416loPI   C1A 6647   7.558   6.931   7.946  0.0946 -0.1883  0.4100
  416loPI   C2A 6648   7.578   6.984   7.454 -0.0086  0.1650 -0.2354
  416loPI   C3A 6649   7.805   6.849   7.157 -0.1851 -0.4107  0.1206
  416loPI   C4A 6650   7.967   6.943   6.829 -0.1815  0.2744 -0.0195
  416loPI   C5A 6651   7.815   7.043   6.463 -0.3912  0.1904  0.2813
  416loPI   C6A 6652   7.864   6.959   6.108 -0.0559  0.1127  0.0474
  416loPI   C1B 6653   7.268   7.315   7.927 -0.0427  0.0054 -0.1505
  416loPI   C2B 6654   7.153   7.234   7.622 -0.1841 -0.2389  0.1723
  416loPI   C3B 6655   6.907   7.381   7.267  0.0445 -0.3696  0.3897
  416loPI   C4B 6656   7.067   7.502   6.862 -0.0468 -0.0227  0.5426
  417loPI    C1 6657   9.127   1.300   9.561  0.0737 -0.1467 -0.0309
  417loPI    C2 6658   8.868   1.591   9.653  0.1881  0.0318 -0.2627
  417loPI    C3 6659   8.930   1.290   9.909 -0.1143  0.0804 -0.1276
  417loPI   PO4 6660   9.126   1.311   9.267  0.2685  0.2101 -0.1672
  417loPI   GL1 6661   9.102   1.326   8.832  0.2033 -0.1333  0.0305
  417loPI   GL2 6662   9.139   1.624   8.600 -0.2778  0.0123  0.0917
  417loPI   C1A 6663   8.793   1.362   8.374  0.1268 -0.1977  0.0560
  417loPI   C2A 6664   8.925   1.381   7.985 -0.1096  0.0515  0.0663
  417loPI   C3A 6665   9.188   1.416   7.683 -0.2887 -0.2952 -0.1952
  417loPI   C4A 6666   9.641   1.273   7.639  0.2529  0.1952  0.4801
  417loPI   C5A 6667  10.153   1.314   7.703 -0.0226  0.0481  0.3084
  417loPI   C6A 6668  10.586   1.193   7.687  0.0873 -0.3976  0.1693
  417loPI   C1B 6669   9.295   1.289   8.348  0.0928 -0.0005 -0.1045
  417loPI   C2B 6670   9.197   0.976   8.025 -0.0341 -0.0856 -0.0472
  417loPI   C3B 6671   9.256   0.931   7.700  0.3195 -0.2997  0.0106
  417loPI   C4B 6672   9.663   0.839   7.428 -0.0132 -0.0543 -0.1205
  418loPI    C1 6673   6.448  10.222   9.418  0.0887 -0.2665  0.0584
  418loPI    C2 6674   6.701  10.189   9.726  0.1408  0.0899  0.0577
  418loPI    C3 6675   6.660   9.887   9.468  0.1840 -0.1668  0.3459
  418loPI   PO4 6676   6.511  10.429   9.266  0.5466  0.2209  0.0861
  418loPI   GL1 6677   6.788  10.576   8.901 -0.6165  0.1325 -0.1545
  418loPI   GL2 6678   7.235  10.490   8.921  0.0219  0.0429  0.0972
  418loPI   C1A 6679   7.066  10.724   8.572  0.0242 -0.3985  0.4723
  418loPI   C2A 6680   6.998  10.815   8.132 -0.2860  0.1360  0.3026
  418loPI   C3A 6681   7.070  11.010   7.666 -0.1372 -0.1445 -0.1359
  418loPI   C4A 6682   7.114  10.991   7.300 -0.2162 -0.1307  0.2671
  418loPI   C5A 6683   6.998  10.649   7.012  0.0713 -0.2475  0.1783
  418loPI   C6A 6684   6.994  10.263   6.726 -0.3576 -0.1327 -0.2576
  418loPI   C1B 6685   7.086  10.185   8.581  0.3317  0.3117 -0.2883
  418loPI   C2B 6686   7.173  10.195   8.161  0.0550 -0.1062  0.3921
  418loPI   C3B 6687   7.032  10.296   7.675 -0.1623 -0.2337  0.0563
  418loPI   C4B 6688   7.035  10.181   7.259  0.2462 -0.2894  0.0229
  419loPI    C1 6689  10.792  19.475  10.071 -0.1044  0.1333  0.0914
  419loPI    C2 6690  11.013  19.190  10.245  0.0478  0.0957 -0.1591
  419loPI    C3 6691  11.186  19.527  10.118 -0.0510  0.0976 -0.2912
  419loPI   PO4 6692  10.670  19.317   9.851  0.0142  0.1869  0.2630
  419loPI   GL1 6693  10.598  19.443   9.463  0.2174 -0.1212  0.1941
  419loPI   GL2 6694  10.822  19.335   9.306 -0.0756  0.2515 -0.3022
  419loPI   C1A 6695  10.396  19.458   9.102  0.2086  0.0044  0.2040
  419loPI   C2A 6696  10.241  19.512   8.752 -0.2920 -0.4350 -0.1468
  419loPI   C3A 6697  10.346  19.517   8.387 -0.0775 -0.1139 -0.1316
  419loPI   C4A 6698  10.524  19.753   8.167  0.0771  0.3137 -0.0070
  419loPI   C5A 6699  10.924  19.860   7.847 -0.3273  0.1413 -0.0248
  419loPI   C6A 6700  11.124  19.746   7.497 -0.2303  0.4557 -0.0098
  419loPI   C1B 6701  10.864  19.390   8.822 -0.0227 -0.2910  0.1333
  419loPI   C2B 6702  10.875  19.451   8.357 -0.3591 -0.1544 -0.1506
  419loPI   C3B 6703  11.121  19.337   7.952 -0.2130 -0.1121  0.0820
  419loPI   C4B 6704  11.195  19.144   7.578  0.0735  0.1797 -0.0245
  420loPI    C1 6705  10.975   7.750   9.432 -0.1918  0.0575  0.0987
  420loPI    C2 6706  11.246   7.889   9.691  0.1391 -0.1011 -0.1549
  420loPI    C3 6707  11.067   7.538   9.758 -0.2354  0.1425  0.1668
  420loPI   PO4 6708  11.143   7.830   9.199 -0.1276 -0.2327  0.3677
  420loPI   GL1 6709  11.202   7.868   8.818 -0.0008  0.1909 -0.0044
  420loPI   GL2 6710  11.250   7.662   8.704 -0.2574  0.0499 -0.0673
  420loPI   C1A 6711  11.337   8.151   8.473 -0.1646 -0.1905  0.1261
  420loPI   C2A 6712  11.322   8.389   8.072  0.1121 -0.3348  0.1006
  420loPI   C3A 6713  11.528   8.433   7.669 -0.0408 -0.1267 -0.2414
  420loPI   C4A 6714  11.611   8.447   7.164  0.0906 -0.0477 -0.1863
  420loPI   C5A 6715  11.742   8.180   6.811 -0.0035 -0.2331  0.2694
  420loPI   C6A 6716  12.027   7.944   6.843 -0.3003  0.1443 -0.1826
  420loPI   C1B 6717  10.884   7.859   8.391 -0.0268  0.2717 -0.1676
  420loPI   C2B 6718  10.942   8.051   8.039 -0.1526 -0.0494  0.0632
  420loPI   C3B 6719  10.738   8.007   7.574 -0.0186 -0.1660 -0.1356
  420loPI   C4B 6720  10.848   7.913   7.168  0.2056  0.1801  0.1502
  421loPI    C1 6721   5.312  12.139   9.770  0.1527 -0.1230  0.0481
  421loPI    C2 6722   5.196  11.810   9.967 -0.4215  0.1394  0.1694
  421loPI    C3 6723   5.324  12.130  10.170  0.0034  0.0460  0.0578
  421loPI   PO4 6724   5.481  12.028   9.562 -0.2546  0.0837  0.0214
  421loPI   GL1 6725   5.716  12.139   9.185  0.3298 -0.1403 -0.0860
  421loPI   GL2 6726   5.638  11.927   9.077 -0.1830 -0.0635 -0.0697
  421loPI   C1A 6727   5.974  12.230   8.911  0.0077  0.0973 -0.0807
  421loPI   C2A 6728   6.038  12.331   8.537  0.1295 -0.1254 -0.0718
  421loPI   C3A 6729   5.804  12.364   8.091  0.1594 -0.0806 -0.1121
  421loPI   C4A 6730   5.854  12.303   7.714  0.1749  0.1532  0.0141
  421loPI   C5A 6731   5.656  12.175   7.371  0.2834  0.2817  0.0180
  421loPI   C6A 6732   5.536  12.422   7.111 -0.1346 -0.0840 -0.2151
  421loPI   C1B 6733   5.537  11.809   8.607  0.4108  0.2071 -0.2179
  421loPI   C2B 6734   5.379  12.009   8.187  0.1525 -0.1262  0.0274
  421loPI   C3B 6735   4.897  12.055   7.944 -0.1285 -0.1633 -0.0429
  421loPI   C4B 6736   4.605  12.401   7.875 -0.0059  0.0043  0.2467
  422loPI    C1 6737  11.875   5.879   9.407  0.0118  0.0325 -0.0885
  422loPI    C2 6738  12.110   5.999   9.708  0.0201 -0.0116 -0.0773
  422loPI    C3 6739  11.733   5.888   9.781 -0.0552  0.2124 -0.1177
  422loPI   PO4 6740  12.100   5.897   9.239  0.1855 -0.1090  0.1952
  422loPI   GL1 6741  12.157   6.235   8.865  0.2232  0.0468 -0.0424
  422loPI   GL2 6742  12.369   6.048   8.810  0.1407  0.0235 -0.2956
  422loPI   C1A 6743  12.324   6.392   8.398  0.0149 -0.1489  0.3625
  422loPI   C2A 6744  12.479   6.241   7.940  0.0094  0.0654 -0.2666
  422loPI   C3A 6745  12.572   6.306   7.449  0.1902  0.0661 -0.1034
  422loPI   C4A 6746  12.803   6.287   7.126  0.0345 -0.0119  0.1359
  422loPI   C5A 6747  13.183   6.097   6.946 -0.0328  0.0855  0.0168
  422loPI   C6A 6748  13.727   6.274   6.819  0.1134  0.0761  0.5182
  422loPI   C1B 6749  12.399   5.752   8.476  0.2473 -0.4149 -0.1528
  422loPI   C2B 6750  12.464   5.739   7.996  0.2010  0.0058 -0.0401
  422loPI   C3B 6751  12.681   5.871   7.677 -0.0444  0.4609  0.0541
  422loPI   C4B 6752  12.799   5.736   7.298  0.0571 -0.0248  0.5171
  423loPI    C1 6753   7.252   5.479   8.619 -0.0090  0.1681  0.1323
  423loPI    C2 6754   7.636   5.533   8.521 -0.0741 -0.0549 -0.2699
  423loPI    C3 6755   7.504   5.643   8.883  0.4106 -0.1599 -0.0525
  423loPI   PO4 6756   7.171   5.539   8.393  0.1630  0.0427  0.0424
  423loPI   GL1 6757   7.451   5.337   8.049 -0.1388 -0.1376 -0.1291
  423loPI   GL2 6758   7.326   5.209   7.787 -0.1487 -0.1094 -0.1321
  423loPI   C1A 6759   7.423   5.713   7.812  0.1851  0.1101 -0.4982
  423loPI   C2A 6760   7.519   6.030   7.608 -0.0185  0.0034 -0.0109
  423loPI   C3A 6761   7.404   5.945   7.123  0.2082  0.0429  0.0417
  423loPI   C4A 6762   7.435   6.019   6.741 -0.1652 -0.2329 -0.0382
  423loPI   C5A 6763   7.644   6.254   6.395 -0.0251 -0.2458 -0.2097
  423loPI   C6A 6764   7.494   6.687   6.295 -0.4348  0.0025 -0.2145
  423loPI   C1B 6765   7.478   5.020   7.496  0.3479  0.3096  0.2145
  423loPI   C2B 6766   7.483   4.937   6.991  0.0793  0.1108 -0.1256
  423loPI   C3B 6767   7.341   4.808   6.632 -0.2819 -0.2717  0.3111
  423loPI   C4B 6768   7.505   4.955   6.308 -0.2499  0.1690  0.0230
  424loPI    C1 6769   2.285   5.604   9.440  0.1588  0.0097 -0.0153
  424loPI    C2 6770   2.073   5.714   9.761  0.0199  0.0048 -0.1045
  424loPI    C3 6771   2.405   5.495   9.805 -0.1509 -0.2348  0.0180
  424loPI   PO4 6772   2.102   5.556   9.306 -0.3106 -0.1040 -0.1283
  424loPI   GL1 6773   1.916   5.292   8.912  0.5218 -0.0420 -0.3217
  424loPI   GL2 6774   2.102   5.464   8.752  0.0804 -0.2081  0.0972
  424loPI   C1A 6775   1.725   5.270   8.557  0.1041 -0.0758 -0.1305
  424loPI   C2A 6776   1.652   5.222   8.026 -0.4510 -0.1199 -0.3014
  424loPI   C3A 6777   1.571   5.447   7.680 -0.2998 -0.2178 -0.2803
  424loPI   C4A 6778   1.527   5.514   7.349  0.1898  0.0231 -0.5047
  424loPI   C5A 6779   1.469   5.915   7.119  0.2090  0.2450 -0.1542
  424loPI   C6A 6780   1.353   6.140   6.690  0.0250 -0.0649  0.2427
  424loPI   C1B 6781   2.280   5.584   8.373  0.1041  0.0534 -0.0654
  424loPI   C2B 6782   2.068   5.530   7.931 -0.3826  0.2140  0.0734
  424loPI   C3B 6783   2.059   5.459   7.518 -0.0708  0.4787  0.1342
  424loPI   C4B 6784   2.145   5.244   7.217  0.0531  0.0743  0.1901
  425loPI    C1 6785  13.801  16.754   9.994  0.0013 -0.0410 -0.0477
  425loPI    C2 6786  13.722  16.571  10.341  0.1833 -0.1458 -0.0601
  425loPI    C3 6787  14.097  16.586  10.204  0.1795  0.2784 -0.0374
  425loPI   PO4 6788  13.587  16.927   9.998  0.0913  0.1357 -0.0837
  425loPI   GL1 6789  13.570  17.086   9.665 -0.0221  0.5301  0.2375
  425loPI   GL2 6790  13.333  17.410   9.644 -0.0542 -0.1475 -0.0479
  425loPI   C1A 6791  13.555  17.265   9.194  0.2381  0.0197 -0.1589
  425loPI   C2A 6792  13.653  17.329   8.721  0.2011  0.2020 -0.2526
  425loPI   C3A 6793  13.793  17.374   8.358  0.2333  0.2421  0.0806
  425loPI   C4A 6794  13.836  17.483   7.883 -0.0945 -0.1131 -0.1296
  425loPI   C5A 6795  13.905  17.625   7.453  0.1481 -0.2715  0.2720
  425loPI   C6A 6796  14.106  17.528   7.002  0.3937  0.2776 -0.1117
  425loPI   C1B 6797  13.134  17.593   9.265  0.0273  0.2147  0.4876
  425loPI   C2B 6798  13.181  17.511   8.890  0.0488  0.1098  0.2765
  425loPI   C3B 6799  13.214  17.418   8.476 -0.1512 -0.3391  0.1350
  425loPI   C4B 6800  13.314  17.343   8.049 -0.1904  0.4466 -0.3373
  426loPI    C1 6801  18.922  17.827   9.753  0.1850  0.0916  0.0061
  426loPI    C2 6802  18.801  17.693  10.110 -0.1788  0.0756 -0.1185
  426loPI    C3 6803  18.831  18.086  10.044 -0.2604  0.0823 -0.1169
  426loPI   PO4 6804  18.842  17.686   9.590 -0.0071 -0.1527 -0.0972
  426loPI   GL1 6805  18.729  17.665   9.221 -0.0742  0.0175  0.4821
  426loPI   GL2 6806  18.995  17.839   9.176  0.0691  0.1385  0.2262
  426loPI   C1A 6807  18.619  17.379   8.940  0.0238  0.3680  0.0798
  426loPI   C2A 6808  18.749  17.260   8.554  0.1685  0.0518 -0.1178
  426loPI   C3A 6809  18.808  17.148   8.110 -0.2177 -0.1151 -0.0037
  426loPI   C4A 6810  18.699  16.982   7.707 -0.0078  0.1998  0.1341
  426loPI   C5A 6811  18.405  16.911   7.283  0.0893 -0.1039 -0.2504
  426loPI   C6A 6812  18.232  17.217   6.995 -0.1965  0.0046 -0.0824
  426loPI   C1B 6813  18.957  17.743   8.759 -0.0199  0.1072 -0.0668
  426loPI   C2B 6814  18.916  17.667   8.292  0.4860 -0.3249  0.3324
  426loPI   C3B 6815  19.008  17.594   7.960  0.2124  0.0860 -0.2134
  426loPI   C4B 6816  18.892  17.402   7.540  0.1470  0.1027  0.0582
  427loPI    C1 6817   1.925  13.827  10.054 -0.0370  0.1847 -0.3230
  427loPI    C2 6818   1.710  13.871  10.389  0.0970 -0.0820 -0.1993
  427loPI    C3 6819   1.665  14.130  10.088 -0.1898  0.0292 -0.0646
  427loPI   PO4 6820   1.891  13.647   9.961 -0.1074 -0.0751  0.4731
  427loPI   GL1 6821   1.982  13.657   9.501  0.3782 -0.1660  0.2107
  427loPI   GL2 6822   2.042  13.981   9.517 -0.3137  0.2432  0.0669
  427loPI   C1A 6823   1.743  13.800   9.168 -0.1636 -0.0105  0.1051
  427loPI   C2A 6824   1.781  13.652   8.773  0.3571 -0.0352  0.3718
  427loPI   C3A 6825   1.782  13.776   8.456 -0.3429 -0.1268 -0.1572
  427loPI   C4A 6826   1.979  13.775   8.142 -0.1470  0.0751 -0.1126
  427loPI   C5A 6827   2.160  13.924   7.850  0.0198  0.1159  0.0232
  427loPI   C6A 6828   2.401  13.903   7.547  0.0478  0.1306 -0.2026
  427loPI   C1B 6829   2.072  14.170   9.098  0.2288  0.0234 -0.1141
  427loPI   C2B 6830   2.131  14.174   8.664 -0.1692 -0.4261  0.1976
  427loPI   C3B 6831   1.940  14.285   8.275  0.2341 -0.1096 -0.1914
  427loPI   C4B 6832   1.911  14.498   7.901 -0.1315  0.1562  0.0733
  428loPI    C1 6833  18.061  15.307  10.109  0.0250 -0.4021  0.0930
  428loPI    C2 6834  17.755  15.188  10.337 -0.1181 -0.1116  0.0560
  428loPI    C3 6835  17.870  15.571  10.340 -0.2883 -0.0448 -0.5477
  428loPI   PO4 6836  18.019  15.244   9.913  0.0039  0.3226 -0.0671
  428loPI   GL1 6837  17.924  15.357   9.570  0.1380  0.2590  0.2017
  428loPI   GL2 6838  17.831  15.026   9.414  0.0640  0.0311  0.2555
  428loPI   C1A 6839  17.949  15.670   9.216 -0.2280 -0.1476  0.2266
  428loPI   C2A 6840  17.887  15.631   8.710  0.3134 -0.0973 -0.2120
  428loPI   C3A 6841  17.892  15.613   8.253 -0.3674 -0.1129  0.0118
  428loPI   C4A 6842  17.870  15.621   7.778  0.0753 -0.1887 -0.1591
  428loPI   C5A 6843  17.740  15.716   7.387 -0.2930  0.1095 -0.1484
  428loPI   C6A 6844  17.727  15.564   6.969 -0.0707 -0.1903 -0.1403
  428loPI   C1B 6845  17.820  15.134   8.934  0.0049  0.0588  0.1513
  428loPI   C2B 6846  17.689  15.162   8.445  0.0843  0.1880 -0.0893
  428loPI   C3B 6847  17.819  15.038   8.056 -0.0517  0.0512  0.3703
  428loPI   C4B 6848  17.834  14.756   7.725 -0.1219  0.2304 -0.3962
  429loPI    C1 6849  16.353   8.702   9.548 -0.1535 -0.0321  0.0070
  429loPI    C2 6850  16.238   9.073   9.640 -0.2968 -0.0701 -0.0171
  429loPI    C3 6851  16.419   8.847   9.915 -0.0948  0.0611 -0.0400
  429loPI   PO4 6852  16.228   8.703   9.314 -0.0402  0.2635 -0.1138
  429loPI   GL1 6853  16.056   8.683   8.982  0.3060 -0.0403  0.0195
  429loPI   GL2 6854  16.209   8.398   8.977  0.1878  0.0400  0.0213
  429loPI   C1A 6855  16.111   8.936   8.713 -0.1714  0.0053  0.3617
  429loPI   C2A 6856  16.175   8.921   8.278 -0.1123  0.1047 -0.0186
  429loPI   C3A 6857  16.411   9.035   7.861 -0.1263  0.0923 -0.4870
  429loPI   C4A 6858  16.431   9.094   7.433  0.1834  0.1792 -0.1820
  429loPI   C5A 6859  16.287   9.052   7.105  0.1118 -0.0578  0.0170
  429loPI   C6A 6860  16.340   8.834   6.718  0.1814 -0.3871  0.5431
  429loPI   C1B 6861  16.336   8.316   8.584  0.1575 -0.1134  0.0199
  429loPI   C2B 6862  16.357   8.349   8.047  0.2392  0.3065 -0.2356
  429loPI   C3B 6863  16.346   8.569   7.635  0.0670 -0.1641  0.3116
  429loPI   C4B 6864  16.583   8.576   7.285 -0.1698 -0.0863 -0.2402
  430loPI    C1 6865   0.316  10.469   9.566 -0.0280  0.0404 -0.0464
  430loPI    C2 6866   0.305  10.759   9.841  0.0149  0.0487 -0.0532
  430loPI    C3 6867   0.209  10.384   9.942  0.0303  0.0518 -0.0271
  430loPI   PO4 6868   0.136  10.544   9.341 -0.2301 -0.0191  0.2694
  430loPI   GL1 6869   0.008  10.802   9.135 -0.3711 -0.1310  0.1009
  430loPI   GL2 6870  -0.311  10.918   9.051 -0.1530 -0.3032 -0.0579
  430loPI   C1A 6871   0.037  10.644   8.744  0.0923 -0.1423 -0.0552
  430loPI   C2A 6872   0.068  10.818   8.288 -0.2397  0.1041  0.0324
  430loPI   C3A 6873  -0.107  10.899   7.870 -0.2241 -0.1820 -0.1385
  430loPI   C4A 6874  -0.357  10.993   7.528  0.2437  0.1782 -0.2088
  430loPI   C5A 6875  -0.592  11.248   7.258  0.1031 -0.2074  0.2043
  430loPI   C6A 6876  -1.043  11.217   7.106 -0.0786 -0.0742 -0.1277
  430loPI   C1B 6877  -0.419  11.042   8.593 -0.0591 -0.3733  0.2608
  430loPI   C2B 6878  -0.560  11.057   8.110 -0.0322  0.4114 -0.3284
  430loPI   C3B 6879  -0.845  11.028   7.688 -0.4694 -0.4171 -0.3435
  430loPI   C4B 6880  -1.243  11.050   7.537  0.4340  0.0477 -0.1223
  431loPI    C1 6881  19.186  12.725  10.014 -0.1815  0.2333  0.1193
  431loPI    C2 6882  19.039  12.765  10.384 -0.4259  0.0071  0.0496
  431loPI    C3 6883  19.136  12.402  10.245  0.0026  0.1289  0.0158
  431loPI   PO4 6884  19.094  12.982   9.897  0.1161  0.1263  0.0296
  431loPI   GL1 6885  18.856  13.125   9.562 -0.0897  0.1840 -0.0636
  431loPI   GL2 6886  18.934  12.718   9.496  0.0233  0.2079  0.2446
  431loPI   C1A 6887  18.891  13.167   9.098 -0.2000 -0.0630  0.1275
  431loPI   C2A 6888  18.900  13.376   8.679 -0.1844 -0.0812 -0.0505
  431loPI   C3A 6889  18.508  13.358   8.413  0.0629  0.1066 -0.2168
  431loPI   C4A 6890  18.162  13.371   8.163  0.1301  0.2035  0.3542
  431loPI   C5A 6891  18.029  13.636   7.777 -0.2506  0.4667 -0.1933
  431loPI   C6A 6892  17.979  13.524   7.322  0.2816  0.0159  0.0866
  431loPI   C1B 6893  18.951  12.516   9.189  0.1038 -0.0490 -0.0165
  431loPI   C2B 6894  18.923  12.685   8.691  0.0401 -0.0388  0.1603
  431loPI   C3B 6895  18.882  12.607   8.262 -0.3185 -0.1294  0.0172
  431loPI   C4B 6896  18.953  12.627   7.775 -0.1346  0.3315 -0.2028
  432loPI    C1 6897   8.980  12.704  10.221 -0.0619 -0.1893 -0.3388
  432loPI    C2 6898   8.801  12.350  10.169  0.1353 -0.3058 -0.2356
  432loPI    C3 6899   9.017  12.418  10.498 -0.0387 -0.0294 -0.1750
  432loPI   PO4 6900   9.018  12.713   9.863  0.1933 -0.0188 -0.3213
  432loPI   GL1 6901   9.232  12.692   9.469  0.0705  0.1712 -0.2149
  432loPI   GL2 6902   9.233  13.074   9.572  0.0645 -0.1278  0.2323
  432loPI   C1A 6903   9.446  12.693   9.114 -0.0404 -0.1063 -0.4296
  432loPI   C2A 6904   9.554  12.761   8.660 -0.1156  0.0217 -0.2450
  432loPI   C3A 6905   9.446  12.673   8.265  0.1619 -0.1536  0.2400
  432loPI   C4A 6906   9.519  12.663   7.793  0.0130  0.0148 -0.1066
  432loPI   C5A 6907   9.212  12.693   7.436 -0.2341  0.1979  0.1200
  432loPI   C6A 6908   8.810  12.743   7.195 -0.0516 -0.0446  0.0034
  432loPI   C1B 6909   9.267  13.128   9.170 -0.0542  0.5341  0.1296
  432loPI   C2B 6910   9.324  13.230   8.803 -0.0687 -0.2149  0.0385
  432loPI   C3B 6911   9.270  13.132   8.350 -0.0763 -0.3028  0.1297
  432loPI   C4B 6912   9.330  13.131   7.832  0.0623  0.0759  0.1710
  433loPI    C1 6913  13.134  17.915   9.900  0.0610 -0.2505 -0.0968
  433loPI    C2 6914  12.990  17.811  10.259 -0.1114 -0.1208 -0.1269
  433loPI    C3 6915  12.922  17.578   9.940  0.2061 -0.3365 -0.0424
  433loPI   PO4 6916  13.343  18.000   9.999 -0.0839 -0.2570  0.0053
  433loPI   GL1 6917  13.310  18.245   9.586 -0.0559  0.0028 -0.2327
  433loPI   GL2 6918  13.102  18.444   9.735  0.0962  0.0486 -0.1825
  433loPI   C1A 6919  13.178  18.111   9.235 -0.3050 -0.0842  0.0679
  433loPI   C2A 6920  13.092  17.989   8.726 -0.0123 -0.0759 -0.1020
  433loPI   C3A 6921  13.146  17.908   8.324  0.1336  0.1554 -0.0141
  433loPI   C4A 6922  13.022  18.079   7.949  0.1986 -0.0158  0.2364
  433loPI   C5A 6923  12.881  18.304   7.673  0.3631 -0.0203 -0.3601
  433loPI   C6A 6924  12.940  18.689   7.480 -0.2213 -0.0430 -0.2982
  433loPI   C1B 6925  12.794  18.346   9.513  0.0465 -0.3908 -0.2404
  433loPI   C2B 6926  12.537  18.440   9.121  0.0559  0.3439 -0.0901
  433loPI   C3B 6927  12.489  18.598   8.688 -0.0995 -0.0019 -0.0945
  433loPI   C4B 6928  12.463  18.876   8.321  0.3983 -0.0384  0.0313
  434loPI    C1 6929   0.122  15.458  10.266 -0.1151  0.0198  0.0703
  434loPI    C2 6930   0.312  15.550  10.606 -0.0105  0.0871 -0.0056
  434loPI    C3 6931  -0.085  15.587  10.583 -0.0196  0.0704  0.1129
  434loPI   PO4 6932   0.252  15.534   9.955 -0.0435 -0.0173 -0.0740
  434loPI   GL1 6933   0.113  15.446   9.592  0.0972 -0.2348 -0.0365
  434loPI   GL2 6934   0.224  15.593   9.314  0.0988  0.1493 -0.3819
  434loPI   C1A 6935   0.000  15.166   9.242  0.0171 -0.0571  0.0269
  434loPI   C2A 6936  -0.122  14.965   8.823 -0.0304 -0.0684  0.1486
  434loPI   C3A 6937  -0.291  14.987   8.338  0.0774  0.2567  0.0312
  434loPI   C4A 6938  -0.230  14.911   7.976 -0.0230  0.2043 -0.0911
  434loPI   C5A 6939  -0.163  14.621   7.709  0.0870 -0.3758  0.1663
  434loPI   C6A 6940  -0.172  14.368   7.290 -0.0982 -0.0350 -0.0670
  434loPI   C1B 6941   0.407  15.436   9.066  0.1753  0.0458 -0.2001
  434loPI   C2B 6942   0.421  15.370   8.609  0.0193 -0.0221  0.0829
  434loPI   C3B 6943   0.570  15.388   8.122  0.2705 -0.3278  0.0788
  434loPI   C4B 6944   0.674  15.720   7.896  0.3678  0.3333 -0.0502
  435loPI    C1 6945  14.818  18.533  10.224 -0.1714 -0.1375 -0.2203
  435loPI    C2 6946  15.030  18.424  10.544 -0.1947  0.0813 -0.1284
  435loPI    C3 6947  14.636  18.358  10.534 -0.2168  0.1977 -0.0524
  435loPI   PO4 6948  15.038  18.465  10.061 -0.0795 -0.0389 -0.0939
  435loPI   GL1 6949  15.243  18.125   9.810  0.2475  0.2024 -0.0149
  435loPI   GL2 6950  14.821  18.163   9.684 -0.1254 -0.0324  0.2736
  435loPI   C1A 6951  15.328  18.200   9.422  0.1926 -0.0122 -0.0866
  435loPI   C2A 6952  15.380  18.199   8.969  0.2920  0.3875  0.3010
  435loPI   C3A 6953  15.438  18.425   8.629  0.1520 -0.3854 -0.1778
  435loPI   C4A 6954  15.538  18.670   8.236  0.0495  0.0433 -0.3611
  435loPI   C5A 6955  15.480  18.848   7.878 -0.2378 -0.2325 -0.0214
  435loPI   C6A 6956  15.552  19.214   7.591  0.0086  0.0138 -0.2648
  435loPI   C1B 6957  14.527  18.345   9.319  0.1820  0.1239  0.1798
  435loPI   C2B 6958  14.476  18.324   8.912  0.0245 -0.1832  0.0081
  435loPI   C3B 6959  14.553  18.427   8.500  0.2986 -0.0057  0.0922
  435loPI   C4B 6960  14.341  18.307   8.167  0.2132  0.1519  0.0195
  436loPI    C1 6961  17.110   9.577   9.890 -0.0965  0.3647  0.0955
  436loPI    C2 6962  16.817   9.587   9.618 -0.0364  0.1354  0.0205
  436loPI    C3 6963  16.959   9.928   9.771 -0.1677  0.2592 -0.1305
  436loPI   PO4 6964  17.292   9.410   9.722 -0.4124  0.0110 -0.3648
  436loPI   GL1 6965  17.284   9.519   9.305 -0.0173  0.0881 -0.1086
  436loPI   GL2 6966  17.491   9.320   9.162 -0.0635  0.0103 -0.0705
  436loPI   C1A 6967  16.917   9.597   9.060  0.0754 -0.0489 -0.4615
  436loPI   C2A 6968  16.879   9.628   8.680 -0.0021  0.2047 -0.0076
  436loPI   C3A 6969  16.941   9.722   8.327 -0.1655  0.2655 -0.0970
  436loPI   C4A 6970  17.047   9.793   7.964 -0.2215 -0.1171 -0.1429
  436loPI   C5A 6971  17.062  10.038   7.572 -0.1472  0.4100  0.0809
  436loPI   C6A 6972  17.157  10.272   7.262 -0.1706 -0.2520 -0.1037
  436loPI   C1B 6973  17.361   9.545   8.836 -0.1080  0.3271  0.1941
  436loPI   C2B 6974  17.149   9.296   8.401 -0.1002  0.0554 -0.2153
  436loPI   C3B 6975  16.843   9.265   8.000 -0.1978  0.0871  0.0367
  436loPI   C4B 6976  16.939   9.302   7.675  0.1471  0.2276  0.2074
  437loPI    C1 6977  15.881   4.280   9.802 -0.1182 -0.1732  0.0772
  437loPI    C2 6978  15.784   4.522  10.105 -0.2177 -0.1642  0.0385
  437loPI    C3 6979  16.168   4.437  10.032 -0.1570  0.2482 -0.1516
  437loPI   PO4 6980  15.817   4.314   9.595 -0.1393  0.0879 -0.2681
  437loPI   GL1 6981  15.852   4.402   9.232 -0.0114 -0.0393 -0.5352
  437loPI   GL2 6982  15.915   4.788   9.222  0.1800  0.0626 -0.0240
  437loPI   C1A 6983  15.626   4.281   8.949 -0.0689 -0.3219  0.1630
  437loPI   C2A 6984  15.724   4.172   8.456  0.0720 -0.1399  0.1965
  437loPI   C3A 6985  15.977   4.210   8.160  0.1937 -0.1317 -0.0331
  437loPI   C4A 6986  16.221   4.069   7.904 -0.0338  0.1822 -0.3577
  437loPI   C5A 6987  16.203   4.115   7.401 -0.3035 -0.2889 -0.0083
  437loPI   C6A 6988  16.178   4.060   7.031 -0.0165 -0.1718 -0.0023
  437loPI   C1B 6989  15.791   4.745   8.760  0.0224 -0.1892 -0.2414
  437loPI   C2B 6990  15.624   4.658   8.274 -0.2253  0.0282  0.2321
  437loPI   C3B 6991  15.667   4.813   7.781 -0.2622 -0.0721  0.1222
  437loPI   C4B 6992  15.582   5.012   7.425 -0.1467 -0.1868  0.0112
  438loPI    C1 6993  16.543  10.525   9.917  0.0942  0.1689 -0.3116
  438loPI    C2 6994  16.802  10.782  10.080  0.0666 -0.1105  0.1951
  438loPI    C3 6995  16.421  10.890  10.023  0.1116  0.0398  0.1736
  438loPI   PO4 6996  16.671  10.431   9.728 -0.2182  0.2057 -0.0544
  438loPI   GL1 6997  16.822  10.458   9.360 -0.0144 -0.2470 -0.2625
  438loPI   GL2 6998  16.751  10.682   9.203 -0.0729 -0.2168  0.1789
  438loPI   C1A 6999  16.659  10.257   8.957 -0.0732  0.0562 -0.0643
  438loPI   C2A 7000  16.842  10.509   8.743  0.2627  0.0534  0.0164
  438loPI   C3A 7001  16.767  10.529   8.271 -0.1436  0.0806 -0.0780
  438loPI   C4A 7002  16.921  10.436   7.843  0.1796  0.0018 -0.2861
  438loPI   C5A 7003  16.617  10.492   7.462  0.2319 -0.0029 -0.3717
  438loPI   C6A 7004  16.383  10.879   7.378 -0.0665 -0.2347  0.0620
  438loPI   C1B 7005  16.371  10.733   8.972 -0.0419  0.6019 -0.2009
  438loPI   C2B 7006  16.359  10.487   8.626 -0.2276  0.0942 -0.0224
  438loPI   C3B 7007  16.327  10.466   8.238 -0.0683  0.2014  0.0970
  438loPI   C4B 7008  16.295  10.385   7.804  0.0728  0.0706  0.2715
  439loPI    C1 7009  12.953   7.806   9.774 -0.1431  0.2227  0.4011
  439loPI    C2 7010  12.579   7.705   9.874 -0.1214 -0.1068  0.1648
  439loPI    C3 7011  12.888   7.509  10.034 -0.0618 -0.0799  0.0834
  439loPI   PO4 7012  13.018   7.800   9.543  0.1531  0.0091 -0.0805
  439loPI   GL1 7013  12.937   7.630   9.162  0.1961 -0.0873 -0.1902
  439loPI   GL2 7014  13.245   7.588   9.129  0.0560  0.2131 -0.4239
  439loPI   C1A 7015  12.846   7.704   8.721  0.0295  0.1666 -0.0385
  439loPI   C2A 7016  12.709   7.700   8.297 -0.0917 -0.2137  0.0126
  439loPI   C3A 7017  12.645   7.755   7.840 -0.2974 -0.5069 -0.0371
  439loPI   C4A 7018  12.610   7.858   7.390 -0.1396 -0.0507  0.1795
  439loPI   C5A 7019  12.595   8.068   6.904 -0.2251  0.1848  0.0453
  439loPI   C6A 7020  12.760   8.416   6.906  0.2448  0.1093  0.2842
  439loPI   C1B 7021  13.390   7.672   8.758  0.1431  0.0559  0.0010
  439loPI   C2B 7022  13.273   7.695   8.359  0.1138 -0.0095  0.1248
  439loPI   C3B 7023  13.176   7.628   7.995  0.1688 -0.0536  0.5187
  439loPI   C4B 7024  13.176   7.866   7.711 -0.0901  0.0452 -0.0479
  440loPI    C1 7025  11.776   8.491   9.399  0.1026  0.3893  0.3729
  440loPI    C2 7026  11.470   8.292   9.562  0.0469  0.0753 -0.0967
  440loPI    C3 7027  11.824   8.302   9.749 -0.0662 -0.1142  0.1337
  440loPI   PO4 7028  11.729   8.353   9.128  0.1659 -0.0586  0.1474
  440loPI   GL1 7029  11.714   8.436   8.839  0.1581 -0.0775  0.2311
  440loPI   GL2 7030  11.674   8.060   8.761  0.1702 -0.1063 -0.1346
  440loPI   C1A 7031  11.562   8.639   8.485  0.2210  0.0703  0.0152
  440loPI   C2A 7032  11.553   8.817   8.013 -0.2610 -0.2750  0.2735
  440loPI   C3A 7033  11.533   9.079   7.654  0.0450  0.2736  0.2775
  440loPI   C4A 7034  11.304   8.853   7.309 -0.1088  0.1484  0.0848
  440loPI   C5A 7035  11.158   8.858   6.934  0.2613  0.1255 -0.1571
  440loPI   C6A 7036  10.949   9.046   6.582 -0.2838 -0.0023  0.1108
  440loPI   C1B 7037  11.872   8.104   8.415 -0.1376 -0.1299  0.3279
  440loPI   C2B 7038  11.829   8.248   8.008  0.3456 -0.0971  0.2263
  440loPI   C3B 7039  11.716   7.939   7.723 -0.3748  0.0425 -0.2603
  440loPI   C4B 7040  11.644   7.850   7.276  0.1989 -0.1264  0.0403
  441loPI    C1 7041   3.718   7.934   9.767  0.1380 -0.3064 -0.1889
  441loPI    C2 7042   3.477   7.868  10.079 -0.1138  0.1959 -0.2666
  441loPI    C3 7043   3.865   7.943  10.139 -0.1251  0.1174 -0.0882
  441loPI   PO4 7044   3.558   7.759   9.518 -0.3756  0.0818  0.2392
  441loPI   GL1 7045   3.428   8.067   9.228  0.1730  0.1188  0.1028
  441loPI   GL2 7046   3.086   8.222   9.196  0.2137  0.0565 -0.0736
  441loPI   C1A 7047   3.506   8.284   8.787  0.1815 -0.2288  0.0169
  441loPI   C2A 7048   3.861   8.559   8.528  0.1564  0.0004  0.0009
  441loPI   C3A 7049   3.745   8.678   8.145 -0.0840 -0.1491 -0.0218
  441loPI   C4A 7050   3.544   8.333   7.801  0.6555 -0.1363 -0.2418
  441loPI   C5A 7051   3.330   8.316   7.397 -0.1888 -0.1169 -0.0791
  441loPI   C6A 7052   3.444   8.629   7.135 -0.2481 -0.1407 -0.1160
  441loPI   C1B 7053   2.954   8.271   8.816 -0.3040  0.1587 -0.0412
  441loPI   C2B 7054   2.839   8.239   8.419  0.0148 -0.1775 -0.3107
  441loPI   C3B 7055   2.550   8.214   8.115  0.1416 -0.3250 -0.1926
  441loPI   C4B 7056   2.340   7.831   7.921 -0.0431 -0.3225  0.2021
  442loPI    C1 7057   3.857  19.079   9.421  0.3513 -0.0691  0.3555
  442loPI    C2 7058   3.756  18.698   9.487 -0.0178 -0.0641 -0.1261
  442loPI    C3 7059   3.719  18.968   9.780 -0.2176 -0.3048  0.0763
  442loPI   PO4 7060   3.619  19.183   9.242 -0.1865 -0.1374  0.0564
  442loPI   GL1 7061   3.678  19.177   8.818 -0.1728  0.3809 -0.0104
  442loPI   GL2 7062   3.371  19.012   8.865  0.2905 -0.1663  0.5545
  442loPI   C1A 7063   3.643  18.994   8.358  0.1881 -0.0073  0.0277
  442loPI   C2A 7064   3.488  18.591   8.163  0.0084  0.1418  0.0495
  442loPI   C3A 7065   3.331  18.304   7.853 -0.0597 -0.0321  0.2750
  442loPI   C4A 7066   3.206  18.044   7.470 -0.0676 -0.2670 -0.0962
  442loPI   C5A 7067   2.967  18.261   7.100  0.2114 -0.2167  0.1718
  442loPI   C6A 7068   3.174  18.442   6.829  0.1373  0.5418 -0.0453
  442loPI   C1B 7069   3.398  18.578   8.663  0.1604 -0.1959 -0.2008
  442loPI   C2B 7070   3.476  18.257   8.554  0.2049 -0.0360  0.1782
  442loPI   C3B 7071   3.251  17.989   8.245  0.1342 -0.1100 -0.1719
  442loPI   C4B 7072   3.200  17.790   7.891 -0.0802 -0.1445  0.0612
  443loPI    C1 7073   7.399  17.442   9.594  0.0147 -0.3218 -0.0347
  443loPI    C2 7074   7.712  17.355   9.360  0.0500 -0.1145 -0.0674
  443loPI    C3 7075   7.758  17.373   9.757  0.1436  0.1784 -0.0895
  443loPI   PO4 7076   7.202  17.695   9.393  0.0362  0.3091 -0.0520
  443loPI   GL1 7077   7.385  17.776   9.076 -0.1188  0.1814  0.0938
  443loPI   GL2 7078   7.571  17.670   8.991  0.0439 -0.0979  0.2681
  443loPI   C1A 7079   7.185  17.723   8.598  0.0054  0.1393 -0.6960
  443loPI   C2A 7080   7.215  17.853   8.133 -0.0287 -0.3661  0.1489
  443loPI   C3A 7081   7.444  18.287   8.046 -0.2283  0.0138 -0.1495
  443loPI   C4A 7082   7.662  18.397   7.676  0.2769  0.1795 -0.1127
  443loPI   C5A 7083   7.482  18.359   7.288 -0.0748 -0.0695 -0.0425
  443loPI   C6A 7084   7.561  18.239   6.921 -0.4485 -0.3132 -0.3245
  443loPI   C1B 7085   7.684  17.529   8.564 -0.1765 -0.1095 -0.1462
  443loPI   C2B 7086   7.589  17.339   8.081  0.0599 -0.3328 -0.2302
  443loPI   C3B 7087   7.714  17.413   7.723  0.1876 -0.0111 -0.1451
  443loPI   C4B 7088   7.801  17.152   7.322  0.0001 -0.2457 -0.1246
  444loPI    C1 7089   3.938   6.306   9.163  0.1988  0.0988  0.0545
  444loPI    C2 7090   3.858   6.018   9.428 -0.2399  0.0728 -0.0977
  444loPI    C3 7091   3.721   6.389   9.489 -0.0564  0.1456 -0.1236
  444loPI   PO4 7092   4.086   6.258   8.935  0.2180  0.2147 -0.2202
  444loPI   GL1 7093   3.890   6.188   8.576 -0.4764  0.0271 -0.2970
  444loPI   GL2 7094   3.516   6.206   8.537  0.1939  0.2113  0.0181
  444loPI   C1A 7095   3.780   6.620   8.353  0.1733  0.2153 -0.1977
  444loPI   C2A 7096   3.633   6.757   7.995 -0.3031  0.0291 -0.3544
  444loPI   C3A 7097   3.524   6.601   7.633  0.1151  0.0381  0.1242
  444loPI   C4A 7098   3.571   6.582   7.208  0.1078  0.1952  0.0892
  444loPI   C5A 7099   3.886   6.684   6.850 -0.2712 -0.0644  0.1605
  444loPI   C6A 7100   4.006   6.750   6.379  0.0411  0.0049 -0.0234
  444loPI   C1B 7101   3.447   6.347   8.118 -0.0104  0.3600  0.0771
  444loPI   C2B 7102   3.177   6.376   7.772 -0.0622 -0.2288 -0.0368
  444loPI   C3B 7103   3.030   6.473   7.395 -0.0940 -0.0876 -0.2704
  444loPI   C4B 7104   2.699   6.506   7.179  0.1234 -0.0060  0.0710
  445loPI    C1 7105  11.972  17.328  10.367  0.3129 -0.1613  0.2955
  445loPI    C2 7106  12.076  17.619  10.620  0.0724  0.2192 -0.0302
  445loPI    C3 7107  11.699  17.487  10.612  0.1841 -0.1227  0.1289
  445loPI   PO4 7108  12.089  17.370  10.193 -0.0840 -0.0599 -0.0916
  445loPI   GL1 7109  12.323  17.574   9.829  0.1623  0.2499 -0.2830
  445loPI   GL2 7110  12.028  17.756   9.813 -0.0987  0.2327 -0.1451
  445loPI   C1A 7111  12.451  17.472   9.454 -0.0169 -0.2990  0.0441
  445loPI   C2A 7112  12.660  17.475   9.095  0.2686 -0.0929  0.0576
  445loPI   C3A 7113  12.777  17.587   8.618  0.2703 -0.0703  0.0542
  445loPI   C4A 7114  12.850  17.544   8.185 -0.3528  0.1884 -0.1271
  445loPI   C5A 7115  13.043  17.637   7.751  0.1055  0.0022  0.2171
  445loPI   C6A 7116  13.054  17.581   7.354 -0.2229 -0.0427  0.0434
  445loPI   C1B 7117  11.915  17.642   9.445 -0.1620  0.2180 -0.0626
  445loPI   C2B 7118  11.650  17.535   8.965 -0.2240 -0.2458 -0.0304
  445loPI   C3B 7119  11.652  17.796   8.597  0.1552  0.1059  0.2745
  445loPI   C4B 7120  11.715  17.612   8.100 -0.0585 -0.2382  0.2604
  446loPI    C1 7121  15.788   2.142  10.532  0.0231 -0.1470  0.0841
  446loPI    C2 7122  15.681   1.777  10.658  0.1536 -0.1790  0.1036
  446loPI    C3 7123  15.490   2.100  10.796 -0.0296 -0.2459  0.0095
  446loPI   PO4 7124  15.735   2.197  10.242  0.0424  0.1389 -0.0849
  446loPI   GL1 7125  15.714   2.154   9.761  0.2275  0.1880 -0.1863
  446loPI   GL2 7126  15.652   2.469   9.604  0.1140 -0.0622  0.2486
  446loPI   C1A 7127  15.930   2.159   9.264 -0.1935  0.4252 -0.1734
  446loPI   C2A 7128  16.044   1.982   8.939 -0.1990 -0.3973  0.0358
  446loPI   C3A 7129  15.864   1.934   8.535 -0.0420  0.0101  0.0373
  446loPI   C4A 7130  15.716   1.820   8.137  0.1860 -0.0923  0.3059
  446loPI   C5A 7131  15.502   2.044   7.741  0.3737 -0.2598 -0.0095
  446loPI   C6A 7132  15.436   2.355   7.342  0.2095  0.1982 -0.1020
  446loPI   C1B 7133  15.675   2.514   9.099 -0.4146 -0.3757 -0.1906
  446loPI   C2B 7134  15.680   2.388   8.633  0.1795  0.1289 -0.0110
  446loPI   C3B 7135  15.549   2.286   8.214  0.2203 -0.0175 -0.0104
  446loPI   C4B 7136  15.601   2.566   7.779 -0.2171 -0.0106 -0.1154
  447loPI    C1 7137  15.770   9.633   9.779  0.0950  0.0668  0.0349
  447loPI    C2 7138  15.550   9.655   9.446  0.0116 -0.2886  0.0628
  447loPI    C3 7139  15.835   9.376   9.480  0.2881 -0.0036  0.1355
  447loPI   PO4 7140  15.877   9.830   9.762  0.0155  0.2462  0.0622
  447loPI   GL1 7141  15.943  10.006   9.364 -0.0712 -0.1994  0.4033
  447loPI   GL2 7142  16.128   9.716   9.338 -0.0714 -0.0741  0.1006
  447loPI   C1A 7143  16.084  10.192   8.938  0.2285 -0.0503  0.1095
  447loPI   C2A 7144  15.943  10.124   8.502 -0.1561 -0.0491  0.2458
  447loPI   C3A 7145  15.835  10.436   8.109 -0.2181  0.1531 -0.2389
  447loPI   C4A 7146  15.748  10.426   7.677 -0.0247 -0.1765 -0.3462
  447loPI   C5A 7147  15.292  10.290   7.473 -0.0522 -0.0870  0.1135
  447loPI   C6A 7148  15.226  10.260   7.122  0.0115  0.0433 -0.3821
  447loPI   C1B 7149  15.837   9.730   8.999  0.1825  0.1885  0.0169
  447loPI   C2B 7150  15.907   9.636   8.594  0.0740 -0.0195 -0.0741
  447loPI   C3B 7151  15.862   9.293   8.384 -0.1041 -0.0170  0.0518
  447loPI   C4B 7152  15.884   9.240   7.973  0.1496  0.0332  0.0546
  448loPI    C1 7153  17.826  10.830   9.995 -0.0190 -0.1161  0.0082
  448loPI    C2 7154  18.067  10.740   9.689  0.0289  0.3116 -0.0867
  448loPI    C3 7155  18.223  10.862  10.036 -0.0221 -0.2394  0.1413
  448loPI   PO4 7156  17.585  10.932   9.759  0.1689  0.2372 -0.3148
  448loPI   GL1 7157  17.527  11.287   9.505 -0.2306  0.1360 -0.0373
  448loPI   GL2 7158  17.265  11.513   9.538 -0.4014  0.1910 -0.1591
  448loPI   C1A 7159  17.464  11.178   9.190  0.2523  0.1394  0.5359
  448loPI   C2A 7160  17.355  11.341   8.748 -0.5447  0.2189 -0.0733
  448loPI   C3A 7161  17.130  11.544   8.519 -0.0904  0.0011  0.0618
  448loPI   C4A 7162  16.789  11.531   8.368 -0.2232  0.0111  0.1404
  448loPI   C5A 7163  16.552  11.344   8.085  0.3398  0.0144 -0.0704
  448loPI   C6A 7164  16.330  11.286   7.731 -0.0694  0.1833 -0.0748
  448loPI   C1B 7165  17.423  11.675   9.121  0.3039  0.4054  0.3707
  448loPI   C2B 7166  17.846  11.632   8.926 -0.2746 -0.1023  0.1295
  448loPI   C3B 7167  18.033  11.419   8.525 -0.1850 -0.0585 -0.1478
  448loPI   C4B 7168  18.058  11.562   8.190  0.1262  0.0414  0.5021
  449loPI    C1 7169   0.598  16.903  10.203  0.0370 -0.1352 -0.0787
  449loPI    C2 7170   0.429  16.850  10.562 -0.0380  0.2740 -0.0487
  449loPI    C3 7171   0.827  16.835  10.524 -0.0394  0.0457  0.0160
  449loPI   PO4 7172   0.517  17.130  10.133 -0.0250 -0.4250  0.0485
  449loPI   GL1 7173   0.321  17.153   9.766  0.0677 -0.0642  0.1057
  449loPI   GL2 7174   0.285  16.916   9.679 -0.0999  0.2729  0.1389
  449loPI   C1A 7175   0.352  17.406   9.467  0.2001 -0.1644 -0.1678
  449loPI   C2A 7176   0.367  17.355   8.996 -0.0836 -0.0438 -0.0769
  449loPI   C3A 7177   0.448  17.293   8.529  0.0482  0.1980  0.1012
  449loPI   C4A 7178   0.428  17.249   8.090 -0.1854  0.0562 -0.2143
  449loPI   C5A 7179   0.671  17.162   7.705  0.0024  0.1304 -0.1042
  449loPI   C6A 7180   1.111  17.106   7.576  0.5259  0.0570  0.1354
  449loPI   C1B 7181   0.426  16.875   9.297 -0.2128 -0.0738 -0.1412
  449loPI   C2B 7182   0.515  16.844   8.814 -0.0558 -0.1921 -0.1845
  449loPI   C3B 7183   0.551  16.739   8.398 -0.1009 -0.4053 -0.0019
  449loPI   C4B 7184   0.606  16.727   8.009  0.1040  0.1312  0.0255
  450loPI    C1 7185   3.147  17.744   9.700 -0.0006 -0.0085  0.0089
  450loPI    C2 7186   3.023  17.843  10.067 -0.0635  0.1017 -0.0415
  450loPI    C3 7187   3.373  17.980   9.930 -0.0467  0.0724 -0.0280
  450loPI   PO4 7188   2.910  17.804   9.493  0.3341  0.1873  0.3053
  450loPI   GL1 7189   2.625  17.899   9.220  0.0494 -0.1629  0.0688
  450loPI   GL2 7190   2.419  17.938   9.275 -0.2479 -0.1377  0.1386
  450loPI   C1A 7191   2.699  17.842   8.701 -0.1752  0.0856 -0.2817
  450loPI   C2A 7192   2.675  17.890   8.205 -0.3748 -0.2134  0.1366
  450loPI   C3A 7193   2.703  17.951   7.801 -0.1866  0.1652 -0.1511
  450loPI   C4A 7194   2.646  17.920   7.335 -0.0110  0.2698 -0.1155
  450loPI   C5A 7195   2.397  17.791   6.945 -0.2295 -0.2923 -0.2848
  450loPI   C6A 7196   2.340  17.852   6.580 -0.0236  0.2527 -0.0785
  450loPI   C1B 7197   2.178  17.867   8.919  0.2198  0.1033 -0.0257
  450loPI   C2B 7198   2.209  17.893   8.465 -0.2810 -0.1649 -0.1363
  450loPI   C3B 7199   2.186  17.920   8.064 -0.2700  0.3115  0.1468
  450loPI   C4B 7200   1.968  17.978   7.671  0.2236  0.4176  0.1458
  451loPI    C1 7201   2.706   0.861   9.437  0.2685  0.0302  0.1259
  451loPI    C2 7202   2.424   0.752   9.175  0.2305  0.0512  0.1578
  451loPI    C3 7203   2.320   0.868   9.543  0.2581  0.3420  0.0764
  451loPI   PO4 7204   2.936   0.634   9.413 -0.3601  0.3532  0.0196
  451loPI   GL1 7205   2.890   0.465   8.998 -0.2139  0.3472  0.0538
  451loPI   GL2 7206   2.653   0.268   9.122  0.1886 -0.0863 -0.2177
  451loPI   C1A 7207   2.955   0.549   8.566  0.0659 -0.1022  0.0692
  451loPI   C2A 7208   3.012   0.784   8.195  0.1981 -0.1905  0.2253
  451loPI   C3A 7209   2.985   0.799   7.679  0.1407 -0.1638  0.0973
  451loPI   C4A 7210   2.999   0.707   7.256  0.2113 -0.3540  0.1698
  451loPI   C5A 7211   2.728   0.756   6.944  0.0691 -0.0500 -0.0431
  451loPI   C6A 7212   2.545   1.205   6.749 -0.3939  0.1072  0.1834
  451loPI   C1B 7213   2.596   0.265   8.680 -0.2441 -0.1554 -0.2896
  451loPI   C2B 7214   2.561   0.331   8.238  0.1530 -0.0421  0.4499
  451loPI   C3B 7215   2.476   0.070   7.924 -0.1916 -0.1391 -0.1952
  451loPI   C4B 7216   2.302  -0.223   7.704 -0.4138 -0.0159 -0.2266
  452loPI    C1 7217  13.961  10.569   9.917 -0.0015  0.0895  0.0018
  452loPI    C2 7218  13.845  10.688  10.281 -0.3051  0.0697 -0.0852
  452loPI    C3 7219  13.964  10.311  10.223 -0.0505  0.1294  0.0361
  452loPI   PO4 7220  13.710  10.679   9.795 -0.1614  0.3891  0.1625
  452loPI   GL1 7221  13.660  10.540   9.375  0.0026 -0.2371  0.1571
  452loPI   GL2 7222  13.715  10.828   9.229  0.0440 -0.0270 -0.1614
  452loPI   C1A 7223  13.528  10.541   8.861  0.0113 -0.1140  0.2841
  452loPI   C2A 7224  13.402  10.537   8.396 -0.0359 -0.2726 -0.0325
  452loPI   C3A 7225  13.351  10.398   7.917 -0.0036 -0.1470  0.0272
  452loPI   C4A 7226  13.634  10.193   7.575 -0.1311  0.1794  0.1345
  452loPI   C5A 7227  13.791  10.300   7.208 -0.1018  0.1526 -0.0128
  452loPI   C6A 7228  14.118  10.479   6.916 -0.0848  0.0233 -0.1633
  452loPI   C1B 7229  13.942  10.785   8.954  0.1728  0.1603  0.0066
  452loPI   C2B 7230  13.746  10.946   8.554 -0.2611  0.1429 -0.2966
  452loPI   C3B 7231  13.667  10.940   8.204 -0.3436 -0.0061  0.0598
  452loPI   C4B 7232  13.710  10.955   7.800  0.3406 -0.2438 -0.3323
  453loPI    C1 7233  17.710  12.939   9.778  0.1690  0.1203 -0.0353
  453loPI    C2 7234  17.536  13.016   9.427  0.0411  0.0422  0.0098
  453loPI    C3 7235  17.348  13.108   9.767  0.2630  0.3315  0.0590
  453loPI   PO4 7236  17.923  13.098   9.722 -0.0811 -0.0314 -0.2567
  453loPI   GL1 7237  17.948  13.267   9.257  0.1755 -0.0031  0.1180
  453loPI   GL2 7238  18.272  13.269   9.354  0.0340  0.2644  0.0370
  453loPI   C1A 7239  17.960  12.905   8.958  0.0179  0.0404 -0.0711
  453loPI   C2A 7240  17.637  12.819   8.568 -0.2413 -0.0901 -0.0204
  453loPI   C3A 7241  17.476  12.703   8.203  0.1264  0.2222 -0.2103
  453loPI   C4A 7242  17.455  12.708   7.812  0.2517 -0.2207  0.1063
  453loPI   C5A 7243  17.288  12.453   7.504  0.2067  0.0507  0.3040
  453loPI   C6A 7244  16.869  12.633   7.266 -0.3182  0.3277  0.0110
  453loPI   C1B 7245  18.490  13.449   9.000  0.0753  0.3091 -0.0086
  453loPI   C2B 7246  18.548  13.760   8.686  0.2440  0.0546  0.1122
  453loPI   C3B 7247  18.400  13.822   8.218  0.0304 -0.0173 -0.0063
  453loPI   C4B 7248  18.045  14.129   8.007 -0.0569  0.2983 -0.2815
  454loPI    C1 7249  18.635   4.361   9.864 -0.1195 -0.1533  0.0636
  454loPI    C2 7250  18.718   4.095  10.150 -0.0002 -0.1177  0.0628
  454loPI    C3 7251  18.664   4.479  10.245 -0.3480 -0.1693  0.0874
  454loPI   PO4 7252  18.469   4.212   9.704 -0.2229  0.0441 -0.0072
  454loPI   GL1 7253  18.310   4.230   9.240  0.2386 -0.1250  0.2115
  454loPI   GL2 7254  18.325   4.031   9.059 -0.1005 -0.1253 -0.1301
  454loPI   C1A 7255  18.195   4.589   8.834 -0.3178  0.1685  0.1811
  454loPI   C2A 7256  18.252   4.582   8.389  0.2736  0.0556 -0.0863
  454loPI   C3A 7257  18.309   4.394   8.031  0.0406 -0.0096 -0.0133
  454loPI   C4A 7258  18.139   4.241   7.691 -0.0959  0.2239  0.1759
  454loPI   C5A 7259  17.795   4.360   7.357 -0.2524 -0.1489 -0.2251
  454loPI   C6A 7260  17.614   4.292   7.003 -0.0503 -0.1014  0.1971
  454loPI   C1B 7261  18.326   4.169   8.665 -0.0464 -0.0759 -0.2023
  454loPI   C2B 7262  18.417   3.891   8.251 -0.0310  0.0059 -0.0364
  454loPI   C3B 7263  18.159   3.787   7.969  0.0012 -0.2211 -0.0989
  454loPI   C4B 7264  17.977   3.648   7.590  0.7230  0.4017  0.1235
  455loPI    C1 7265  12.077  19.001  10.115 -0.1888 -0.0362 -0.1027
  455loPI    C2 7266  12.247  18.747  10.372  0.0889  0.0149 -0.2328
  455loPI    C3 7267  11.868  18.862  10.426  0.0345 -0.2445 -0.0433
  455loPI   PO4 7268  12.133  18.891   9.875 -0.2039 -0.0171 -0.1281
  455loPI   GL1 7269  12.157  18.560   9.541  0.0502 -0.1383  0.2301
  455loPI   GL2 7270  11.751  18.444   9.629 -0.0009  0.1234 -0.4406
  455loPI   C1A 7271  12.036  18.552   9.138 -0.0066  0.1546  0.1428
  455loPI   C2A 7272  12.157  18.261   8.882 -0.1071 -0.2142 -0.1585
  455loPI   C3A 7273  12.032  18.167   8.406 -0.2524  0.2193 -0.1602
  455loPI   C4A 7274  11.982  18.164   8.001  0.0830  0.3127 -0.3215
  455loPI   C5A 7275  11.801  17.957   7.716  0.2476 -0.2661  0.3249
  455loPI   C6A 7276  11.533  17.515   7.627  0.1422  0.1851  0.0135
  455loPI   C1B 7277  11.510  18.613   9.266 -0.1440 -0.0701 -0.0032
  455loPI   C2B 7278  11.182  18.358   8.889  0.2575 -0.4635  0.1489
  455loPI   C3B 7279  11.202  18.457   8.404  0.1469  0.2990 -0.0652
  455loPI   C4B 7280  11.167  18.358   8.087  0.2975 -0.1957  0.1027
  456loPI    C1 7281  10.615   7.053   9.142 -0.2093 -0.0332 -0.1408
  456loPI    C2 7282  10.664   7.310   9.444  0.2575  0.2555 -0.4486
  456loPI    C3 7283  10.311   7.285   9.258  0.0408  0.2554 -0.0496
  456loPI   PO4 7284  10.602   7.060   8.818 -0.0395 -0.1603  0.1792
  456loPI   GL1 7285  10.347   7.030   8.386  0.3257  0.0107 -0.1831
  456loPI   GL2 7286   9.992   6.824   8.453 -0.4600  0.0798  0.1138
  456loPI   C1A 7287  10.472   7.187   8.018 -0.4234  0.0089  0.0678
  456loPI   C2A 7288  10.502   7.363   7.508 -0.0570 -0.0202 -0.1876
  456loPI   C3A 7289  10.728   7.310   7.162 -0.2890 -0.0085  0.0929
  456loPI   C4A 7290  10.915   7.373   6.784  0.0734  0.1757  0.3700
  456loPI   C5A 7291  11.302   7.286   6.609 -0.0595  0.2234 -0.0145
  456loPI   C6A 7292  11.689   7.621   6.565 -0.1377  0.1509 -0.1140
  456loPI   C1B 7293  10.057   6.956   7.959 -0.2004 -0.3450  0.0982
  456loPI   C2B 7294  10.066   7.077   7.545 -0.0480 -0.0990  0.2162
  456loPI   C3B 7295  10.277   7.192   7.081  0.2770  0.0082  0.1626
  456loPI   C4B 7296  10.471   7.308   6.690  0.2662  0.0901 -0.2849
  457loPI    C1 7297   5.527  12.975   9.650  0.0142 -0.0942  0.0180
  457loPI    C2 7298   5.862  12.900   9.854  0.0332  0.0282  0.0325
  457loPI    C3 7299   5.625  13.203   9.963 -0.1241 -0.1077  0.0718
  457loPI   PO4 7300   5.612  12.971   9.409  0.6303  0.0028  0.0957
  457loPI   GL1 7301   5.662  12.935   8.958  0.1233 -0.2483 -0.3221
  457loPI   GL2 7302   5.721  12.643   8.974 -0.0638  0.3883 -0.3129
  457loPI   C1A 7303   6.011  13.168   8.727 -0.3611 -0.1835 -0.0597
  457loPI   C2A 7304   6.236  13.476   8.460 -0.0073 -0.0523  0.3188
  457loPI   C3A 7305   6.458  13.587   8.180 -0.0791  0.4302 -0.0629
  457loPI   C4A 7306   6.571  13.586   7.804  0.1154 -0.2258 -0.1096
  457loPI   C5A 7307   6.627  13.386   7.326  0.0362  0.0491  0.1609
  457loPI   C6A 7308   6.805  13.406   6.892 -0.3248  0.1937  0.2146
  457loPI   C1B 7309   5.725  12.851   8.480  0.2127  0.2693 -0.1102
  457loPI   C2B 7310   5.877  12.836   8.073 -0.1250  0.0307 -0.3053
  457loPI   C3B 7311   5.802  12.765   7.586 -0.0900 -0.1342 -0.0572
  457loPI   C4B 7312   6.234  12.646   7.448  0.0932  0.3773  0.0037
  458loPI    C1 7313   1.937  14.665  10.020 -0.0528  0.0171 -0.0993
  458loPI    C2 7314   2.029  14.881  10.343 -0.0195 -0.1620  0.0124
  458loPI    C3 7315   2.064  14.482  10.353 -0.4515 -0.2056 -0.0629
  458loPI   PO4 7316   1.695  14.806   9.959 -0.1191 -0.1606 -0.1402
  458loPI   GL1 7317   1.708  15.019   9.593 -0.0237  0.0577  0.0316
  458loPI   GL2 7318   1.484  14.868   9.480 -0.0699  0.2340  0.1158
  458loPI   C1A 7319   1.926  15.163   9.296  0.3601  0.2184  0.0292
  458loPI   C2A 7320   1.860  15.404   8.855  0.0005  0.3250  0.0757
  458loPI   C3A 7321   1.652  15.288   8.472 -0.1482 -0.3891 -0.0098
  458loPI   C4A 7322   1.465  15.387   8.063  0.0762  0.4069  0.1008
  458loPI   C5A 7323   1.407  15.162   7.590 -0.0844 -0.1235  0.0324
  458loPI   C6A 7324   1.556  14.701   7.637 -0.0444 -0.2135  0.1588
  458loPI   C1B 7325   1.374  15.174   9.202  0.1160 -0.0416  0.1016
  458loPI   C2B 7326   1.308  15.107   8.826 -0.0999  0.0468  0.5043
  458loPI   C3B 7327   1.304  14.927   8.420 -0.1232 -0.0209 -0.0842
  458loPI   C4B 7328   1.130  14.893   8.045 -0.2933  0.4180 -0.2738
  459loPI    C1 7329   5.163  17.735   9.662 -0.0946 -0.0814 -0.0467
  459loPI    C2 7330   5.246  17.424   9.900 -0.0015  0.1837  0.2762
  459loPI    C3 7331   4.900  17.620   9.941 -0.1291  0.0294 -0.0329
  459loPI   PO4 7332   5.423  17.884   9.555  0.4518  0.0726 -0.1305
  459loPI   GL1 7333   5.474  17.751   9.177 -0.0201 -0.0472  0.0094
  459loPI   GL2 7334   5.266  17.555   9.178  0.2236  0.2273  0.2314
  459loPI   C1A 7335   5.306  17.868   8.832 -0.1121  0.4777  0.3967
  459loPI   C2A 7336   5.302  17.716   8.496 -0.1064 -0.2765  0.1879
  459loPI   C3A 7337   5.132  17.703   8.105 -0.0327  0.1954  0.0628
  459loPI   C4A 7338   5.168  17.535   7.711  0.2299 -0.0756 -0.0618
  459loPI   C5A 7339   5.008  17.310   7.312 -0.0698  0.1610 -0.3306
  459loPI   C6A 7340   4.999  17.070   6.949  0.0907 -0.0712 -0.3686
  459loPI   C1B 7341   5.071  17.319   8.952  0.0538  0.3648 -0.0983
  459loPI   C2B 7342   5.006  17.268   8.556  0.1799 -0.1964  0.5346
  459loPI   C3B 7343   4.746  16.988   8.313  0.5542  0.3848 -0.0098
  459loPI   C4B 7344   4.717  16.827   7.948 -0.0325  0.1685 -0.0576
  460loPI    C1 7345   2.212  10.163  10.324 -0.0384  0.1040 -0.0506
  460loPI    C2 7346   2.409  10.064  10.658 -0.2961 -0.0286  0.0653
  460loPI    C3 7347   2.016   9.995  10.630 -0.3059  0.1242 -0.2080
  460loPI   PO4 7348   2.330  10.009  10.116 -0.3148  0.3567 -0.1245
  460loPI   GL1 7349   2.446  10.155   9.641 -0.2402  0.0865  0.0373
  460loPI   GL2 7350   2.718   9.894   9.484 -0.0547 -0.4103 -0.0962
  460loPI   C1A 7351   2.334  10.041   9.224  0.1175  0.1179 -0.3382
  460loPI   C2A 7352   2.322  10.145   8.787  0.1070 -0.0416  0.0756
  460loPI   C3A 7353   2.472  10.152   8.292 -0.1810  0.3576  0.1069
  460loPI   C4A 7354   2.524  10.268   7.783 -0.0390 -0.0804 -0.0576
  460loPI   C5A 7355   2.762  10.345   7.354 -0.1690 -0.0318 -0.2727
  460loPI   C6A 7356   3.106  10.552   7.097  0.1340  0.0283 -0.2658
  460loPI   C1B 7357   2.894  10.175   9.322 -0.1186 -0.1439  0.0047
  460loPI   C2B 7358   3.180  10.446   9.178  0.3473 -0.0434 -0.0473
  460loPI   C3B 7359   3.453  10.824   8.999  0.2018 -0.1443 -0.2747
  460loPI   C4B 7360   3.625  11.207   9.064 -0.0737 -0.2115  0.0804
  461loPI    C1 7361  10.614  13.849   9.941 -0.1846 -0.1717  0.1117
  461loPI    C2 7362  10.795  13.566  10.160 -0.0137 -0.0502  0.1292
  461loPI    C3 7363  10.868  13.953  10.232 -0.2659  0.0008  0.1221
  461loPI   PO4 7364  10.683  13.743   9.694  0.1579 -0.0287 -0.1575
  461loPI   GL1 7365  10.607  13.814   9.221  0.1624  0.0175 -0.1394
  461loPI   GL2 7366  10.510  14.202   9.002  0.1066  0.0811  0.0258
  461loPI   C1A 7367  10.640  13.643   8.831  0.0584  0.3703 -0.2292
  461loPI   C2A 7368  10.598  13.693   8.424  0.2882  0.0302  0.1721
  461loPI   C3A 7369  10.580  13.739   7.982  0.2145 -0.0193 -0.3625
  461loPI   C4A 7370  10.478  13.631   7.660  0.0859  0.1341 -0.0364
  461loPI   C5A 7371  10.619  13.598   7.250  0.1880  0.2336  0.1228
  461loPI   C6A 7372  10.429  13.394   7.025  0.1076  0.0509  0.2585
  461loPI   C1B 7373  10.472  14.249   8.628 -0.3428 -0.1515  0.1284
  461loPI   C2B 7374  10.623  14.172   8.319  0.0722 -0.2752  0.1103
  461loPI   C3B 7375  10.683  14.189   7.915  0.0187  0.2287  0.0051
  461loPI   C4B 7376  10.463  14.078   7.446 -0.1067  0.0648  0.2492
  462loPI    C1 7377  18.303  17.141   9.913  0.1021 -0.0404 -0.0326
  462loPI    C2 7378  18.332  17.540   9.906  0.0233 -0.0316  0.1043
  462loPI    C3 7379  18.476  17.334  10.218 -0.0627 -0.0991  0.0996
  462loPI   PO4 7380  18.046  17.099   9.835 -0.1863  0.0443  0.3921
  462loPI   GL1 7381  17.915  17.098   9.438 -0.2981 -0.0971  0.1161
  462loPI   GL2 7382  18.031  17.431   9.459 -0.1164 -0.2314 -0.2140
  462loPI   C1A 7383  17.806  17.000   8.978  0.5586  0.2360 -0.2005
  462loPI   C2A 7384  17.747  17.091   8.547 -0.1278  0.2314  0.2152
  462loPI   C3A 7385  17.865  17.056   8.111 -0.3705  0.3666 -0.1379
  462loPI   C4A 7386  17.766  17.191   7.701 -0.2423 -0.0714  0.0159
  462loPI   C5A 7387  17.989  17.278   7.450  0.3251 -0.3448  0.0411
  462loPI   C6A 7388  18.406  17.403   7.395 -0.0942  0.1196  0.2106
  462loPI   C1B 7389  18.135  17.318   9.069  0.0626  0.3041 -0.0644
  462loPI   C2B 7390  18.204  17.136   8.719 -0.0370  0.2909  0.1223
  462loPI   C3B 7391  18.323  17.120   8.267 -0.0794 -0.2926  0.0910
  462loPI   C4B 7392  18.243  17.066   7.812  0.3463 -0.2388  0.1616
  463loPI    C1 7393   5.814  18.571   9.451 -0.4309  0.0295  0.0098
  463loPI    C2 7394   5.764  18.192   9.336  0.0821 -0.0639  0.0683
  463loPI    C3 7395   5.730  18.289   9.722  0.0441 -0.0671  0.0659
  463loPI   PO4 7396   5.716  18.677   9.181  0.0397 -0.0132 -0.2619
  463loPI   GL1 7397   5.597  18.623   8.812 -0.2064  0.1779  0.0537
  463loPI   GL2 7398   5.438  18.318   8.948  0.1896 -0.0548 -0.0333
  463loPI   C1A 7399   5.529  18.652   8.253  0.0222  0.0929 -0.0096
  463loPI   C2A 7400   5.677  18.877   7.806 -0.0747 -0.1516 -0.2536
  463loPI   C3A 7401   5.721  18.916   7.399 -0.2891  0.1361  0.1195
  463loPI   C4A 7402   6.056  19.196   7.195  0.0942 -0.2706 -0.4583
  463loPI   C5A 7403   6.433  19.012   6.999  0.0032 -0.2693  0.3161
  463loPI   C6A 7404   6.782  18.820   6.943  0.0163  0.0940  0.0447
  463loPI   C1B 7405   5.427  18.216   8.490  0.1860 -0.1273  0.0272
  463loPI   C2B 7406   5.503  18.151   8.163  0.0514  0.0489  0.0910
  463loPI   C3B 7407   5.552  17.909   7.713  0.0994  0.2512  0.1273
  463loPI   C4B 7408   5.889  17.800   7.495  0.1190  0.1814 -0.2424
  464loPI    C1 7409   5.036   0.400   9.432 -0.0959 -0.1481  0.1069
  464loPI    C2 7410   5.260   0.069   9.421  0.0768 -0.0408  0.3120
  464loPI    C3 7411   5.166   0.234   9.772 -0.1056  0.0640  0.2154
  464loPI   PO4 7412   4.807   0.383   9.286  0.2659 -0.3069  0.0422
  464loPI   GL1 7413   4.605   0.341   8.930 -0.1599 -0.1364 -0.0785
  464loPI   GL2 7414   4.315   0.453   8.931 -0.1478  0.1410  0.0213
  464loPI   C1A 7415   4.837   0.276   8.570 -0.2355  0.0620  0.0462
  464loPI   C2A 7416   4.792   0.347   8.053  0.0466  0.0766 -0.0721
  464loPI   C3A 7417   4.725   0.336   7.596  0.0690 -0.1542 -0.0967
  464loPI   C4A 7418   4.410   0.503   7.233  0.1508 -0.2716 -0.2030
  464loPI   C5A 7419   4.420   0.532   6.834 -0.1279 -0.1091  0.0559
  464loPI   C6A 7420   4.554   0.797   6.571 -0.0661 -0.0930  0.4505
  464loPI   C1B 7421   4.247   0.354   8.553 -0.1105  0.2191  0.0213
  464loPI   C2B 7422   4.344   0.226   8.204  0.1059 -0.3652 -0.2217
  464loPI   C3B 7423   4.274   0.177   7.816 -0.0218  0.0225 -0.2556
  464loPI   C4B 7424   4.220   0.053   7.421  0.1155  0.1941  0.1667
  465loPI    C1 7425  17.371  12.786  10.239  0.1376 -0.0196 -0.0603
  465loPI    C2 7426  17.009  12.698  10.383  0.1415 -0.0515 -0.0698
  465loPI    C3 7427  17.128  13.079  10.362  0.1345 -0.0456 -0.0042
  465loPI   PO4 7428  17.466  12.579  10.007  0.2128 -0.0866  0.0853
  465loPI   GL1 7429  17.154  12.574   9.564 -0.3200  0.0659  0.0398
  465loPI   GL2 7430  17.530  12.475   9.537 -0.1342 -0.3473 -0.3722
  465loPI   C1A 7431  16.957  12.592   9.111 -0.0741 -0.2586  0.0236
  465loPI   C2A 7432  16.630  12.747   8.724 -0.0839  0.1780  0.0582
  465loPI   C3A 7433  16.692  12.899   8.280 -0.1606 -0.1162  0.1503
  465loPI   C4A 7434  16.574  12.892   7.797 -0.1456 -0.1332  0.0823
  465loPI   C5A 7435  16.316  12.794   7.537 -0.0203 -0.0309 -0.0492
  465loPI   C6A 7436  16.005  12.717   7.163  0.3165  0.2476 -0.3735
  465loPI   C1B 7437  17.483  12.577   9.030  0.1570  0.0441  0.1251
  465loPI   C2B 7438  17.214  12.526   8.722  0.0905 -0.1640 -0.0733
  465loPI   C3B 7439  17.038  12.529   8.256  0.1343 -0.0183  0.1957
  465loPI   C4B 7440  16.897  12.497   7.780  0.0449 -0.0240  0.0748
  466loPI    C1 7441   0.881   2.889   9.711 -0.1401 -0.0691  0.0848
  466loPI    C2 7442   0.600   2.679   9.902 -0.2487  0.1791  0.2023
  466loPI    C3 7443   0.939   2.776  10.091 -0.2107  0.1341  0.1573
  466loPI   PO4 7444   0.800   2.751   9.438  0.0298 -0.0037  0.0241
  466loPI   GL1 7445   1.048   2.867   8.979  0.2913 -0.4096 -0.1426
  466loPI   GL2 7446   0.685   2.639   8.970  0.0555  0.0519 -0.0709
  466loPI   C1A 7447   0.971   2.946   8.567 -0.1161 -0.1207  0.2085
  466loPI   C2A 7448   0.868   2.897   8.110 -0.1285 -0.3907  0.4131
  466loPI   C3A 7449   0.996   2.904   7.693  0.0022 -0.3300  0.1049
  466loPI   C4A 7450   0.954   3.097   7.215  0.0235 -0.1351  0.2443
  466loPI   C5A 7451   0.523   3.292   7.101 -0.0961  0.2377  0.0024
  466loPI   C6A 7452   0.253   3.109   6.924  0.3083 -0.0139  0.0111
  466loPI   C1B 7453   0.464   2.767   8.621  0.1295  0.0786 -0.1055
  466loPI   C2B 7454   0.177   2.775   8.232  0.4180 -0.0578 -0.2334
  466loPI   C3B 7455   0.079   2.798   7.824 -0.1617  0.2381 -0.1910
  466loPI   C4B 7456   0.001   2.944   7.396 -0.1608 -0.3769  0.0398
  467loPI    C1 7457   4.005  15.692   9.693  0.0176  0.0881 -0.2008
  467loPI    C2 7458   3.903  15.836  10.052  0.1960  0.0841 -0.1479
  467loPI    C3 7459   3.637  15.628   9.837  0.1692 -0.1384  0.0961
  467loPI   PO4 7460   4.243  15.881   9.545  0.1749  0.1583  0.0517
  467loPI   GL1 7461   4.269  15.681   9.235 -0.0140 -0.0688  0.0078
  467loPI   GL2 7462   4.126  15.436   9.279  0.2392  0.1777  0.0834
  467loPI   C1A 7463   4.111  15.963   8.878 -0.1576 -0.0987  0.1464
  467loPI   C2A 7464   3.894  15.832   8.530 -0.1218 -0.0185 -0.1858
  467loPI   C3A 7465   4.012  15.716   8.130 -0.1990 -0.2171 -0.1256
  467loPI   C4A 7466   4.154  15.670   7.702 -0.0532  0.0921  0.0624
  467loPI   C5A 7467   4.240  15.498   7.236  0.4830 -0.0789 -0.2782
  467loPI   C6A 7468   4.526  15.651   6.867 -0.1839  0.0759 -0.1941
  467loPI   C1B 7469   4.097  15.422   8.777 -0.1456 -0.0189 -0.0440
  467loPI   C2B 7470   4.075  15.246   8.388  0.1672 -0.0570 -0.1457
  467loPI   C3B 7471   4.024  15.271   7.932  0.1872  0.0984 -0.1007
  467loPI   C4B 7472   3.740  15.365   7.540  0.3384 -0.1883 -0.2149
  468loPI    C1 7473  12.481  16.519  10.075  0.1545  0.2784 -0.3056
  468loPI    C2 7474  12.592  16.196  10.283 -0.2606  0.2432 -0.1296
  468loPI    C3 7475  12.411  16.153   9.929 -0.2839  0.2840 -0.1227
  468loPI   PO4 7476  12.749  16.667  10.047  0.1199  0.1232  0.0146
  468loPI   GL1 7477  12.989  16.584   9.618 -0.2262 -0.0775  0.0477
  468loPI   GL2 7478  13.254  16.677   9.506 -0.1666  0.0214  0.1592
  468loPI   C1A 7479  12.771  16.612   9.197 -0.1228 -0.3788 -0.1149
  468loPI   C2A 7480  12.682  16.557   8.697  0.1671  0.6146  0.1021
  468loPI   C3A 7481  12.688  16.512   8.221 -0.0801  0.1486 -0.1440
  468loPI   C4A 7482  12.616  16.316   7.802 -0.3321 -0.1806  0.1919
  468loPI   C5A 7483  12.686  16.029   7.434 -0.0505 -0.4564  0.0713
  468loPI   C6A 7484  13.114  15.954   7.330  0.2657 -0.2677 -0.0670
  468loPI   C1B 7485  13.614  16.762   9.220 -0.0492 -0.0391 -0.0046
  468loPI   C2B 7486  13.845  16.897   8.871 -0.2319 -0.1280 -0.4788
  468loPI   C3B 7487  13.921  16.918   8.424 -0.0586 -0.0307  0.1097
  468loPI   C4B 7488  13.858  17.027   7.970 -0.1461  0.2742  0.0355
  469loPI    C1 7489   6.403  16.762   9.776 -0.1351  0.0288 -0.2148
  469loPI    C2 7490   6.451  16.366   9.804  0.1402  0.0514 -0.3345
  469loPI    C3 7491   6.646  16.609  10.055  0.0041  0.1135 -0.2882
  469loPI   PO4 7492   6.487  16.854   9.583  0.0655  0.1136 -0.0678
  469loPI   GL1 7493   6.414  16.900   9.117  0.1674 -0.0745  0.1725
  469loPI   GL2 7494   6.764  16.847   9.075  0.2501  0.0876  0.0805
  469loPI   C1A 7495   6.361  16.979   8.725  0.0932 -0.3679 -0.1696
  469loPI   C2A 7496   6.515  16.930   8.309  0.2992 -0.0918 -0.0363
  469loPI   C3A 7497   6.588  16.876   7.861 -0.1635 -0.2598  0.2011
  469loPI   C4A 7498   6.836  16.896   7.569  0.1582  0.0430 -0.3793
  469loPI   C5A 7499   7.245  16.932   7.426  0.0293  0.0495  0.0498
  469loPI   C6A 7500   7.569  16.647   7.256 -0.4984  0.1059 -0.1299
  469loPI   C1B 7501   6.882  16.949   8.688  0.1156  0.0884  0.0311
  469loPI   C2B 7502   6.825  17.280   8.517  0.2650  0.0447  0.2310
  469loPI   C3B 7503   7.078  17.384   8.196 -0.1579 -0.1909 -0.1558
  469loPI   C4B 7504   7.126  17.131   7.905 -0.2554 -0.3084  0.2330
  470loPI    C1 7505   8.043   3.882   8.852  0.0033  0.0827 -0.1827
  470loPI    C2 7506   8.195   4.146   9.111  0.4233 -0.3892  0.0708
  470loPI    C3 7507   7.915   3.886   9.231  0.0846 -0.1366 -0.1515
  470loPI   PO4 7508   8.099   4.018   8.665  0.0326 -0.0260  0.2573
  470loPI   GL1 7509   8.082   3.865   8.261  0.0508 -0.0912  0.0266
  470loPI   GL2 7510   8.001   3.497   8.102  0.0547  0.2147  0.1174
  470loPI   C1A 7511   8.395   4.030   8.041  0.1016 -0.3306 -0.2486
  470loPI   C2A 7512   8.328   4.014   7.597  0.0883 -0.0885  0.2903
  470loPI   C3A 7513   8.295   3.961   7.178  0.0303  0.6919 -0.1710
  470loPI   C4A 7514   8.357   3.732   6.737 -0.1989  0.3010 -0.2205
  470loPI   C5A 7515   8.662   3.871   6.311  0.0114 -0.2706  0.0749
  470loPI   C6A 7516   8.887   3.708   5.962  0.0330  0.0734 -0.1824
  470loPI   C1B 7517   8.060   3.630   7.749  0.0284 -0.1984 -0.2105
  470loPI   C2B 7518   7.815   3.957   7.448  0.0435 -0.2457 -0.1254
  470loPI   C3B 7519   7.830   4.091   7.088  0.1128  0.3284  0.0136
  470loPI   C4B 7520   7.853   4.056   6.619  0.2200 -0.1156  0.0221
  471loPI    C1 7521   9.190  11.293   9.752  0.0356  0.0540 -0.2355
  471loPI    C2 7522   8.825  11.410   9.867  0.1409  0.2315 -0.0765
  471loPI    C3 7523   9.127  11.411  10.129  0.2439  0.0291 -0.1920
  471loPI   PO4 7524   9.155  11.119   9.498 -0.3495  0.0377 -0.1549
  471loPI   GL1 7525   9.152  11.277   9.073 -0.0977 -0.1447 -0.0599
  471loPI   GL2 7526   8.930  11.340   9.028 -0.0818 -0.3419 -0.3039
  471loPI   C1A 7527   9.242  11.314   8.586 -0.3725 -0.2548 -0.0725
  471loPI   C2A 7528   9.411  11.362   8.135 -0.0794  0.0312 -0.0976
  471loPI   C3A 7529   9.527  11.282   7.603  0.1664  0.3778  0.1263
  471loPI   C4A 7530   9.879  11.365   7.117  0.0545 -0.2280 -0.2429
  471loPI   C5A 7531   9.911  11.593   6.712  0.0939  0.0606 -0.2867
  471loPI   C6A 7532   9.976  11.481   6.273 -0.3362 -0.1021 -0.1844
  471loPI   C1B 7533   8.764  11.431   8.664 -0.2159  0.2101 -0.0986
  471loPI   C2B 7534   8.833  11.377   8.252 -0.4430  0.0305  0.2376
  471loPI   C3B 7535   8.998  11.322   7.797 -0.0192  0.1679 -0.4452
  471loPI   C4B 7536   9.204  11.617   7.514  0.0194  0.0689 -0.0916
  472loPI    C1 7537   5.023   7.622   9.392 -0.1051  0.0962 -0.0189
  472loPI    C2 7538   4.829   7.278   9.453 -0.2108  0.1701  0.0656
  472loPI    C3 7539   4.987   7.476   9.762 -0.2070  0.2307  0.0250
  472loPI   PO4 7540   4.840   7.787   9.197  0.1389 -0.1636  0.1761
  472loPI   GL1 7541   4.773   7.743   8.719  0.0829  0.0463 -0.1636
  472loPI   GL2 7542   4.514   7.910   8.595 -0.1890  0.2186  0.0635
  472loPI   C1A 7543   4.864   7.638   8.319 -0.0947 -0.2036  0.4564
  472loPI   C2A 7544   4.839   7.618   7.882 -0.0048  0.1380 -0.2094
  472loPI   C3A 7545   4.732   7.809   7.515 -0.4130  0.0392 -0.1908
  472loPI   C4A 7546   4.942   7.872   7.113  0.1576 -0.2014 -0.3551
  472loPI   C5A 7547   4.959   8.208   6.990  0.2979 -0.0917 -0.3024
  472loPI   C6A 7548   5.001   8.574   6.737 -0.2049 -0.2488 -0.1051
  472loPI   C1B 7549   4.440   8.030   8.181 -0.1088  0.1734  0.2961
  472loPI   C2B 7550   4.454   8.243   7.796  0.1510  0.3422 -0.1307
  472loPI   C3B 7551   4.561   8.204   7.348  0.1453 -0.3019  0.0613
  472loPI   C4B 7552   4.521   8.420   6.950 -0.2133  0.0137  0.1081
  473loPI    C1 7553  18.027  10.174   9.950  0.2671  0.0045 -0.0331
  473loPI    C2 7554  18.054   9.966   9.609 -0.0790 -0.0446 -0.0338
  473loPI    C3 7555  18.016   9.774   9.958  0.2902  0.0051  0.0376
  473loPI   PO4 7556  17.764  10.338   9.856  0.0211 -0.2555  0.0346
  473loPI   GL1 7557  17.837  10.447   9.386 -0.3481  0.3423 -0.0200
  473loPI   GL2 7558  17.544  10.561   9.371  0.3636 -0.0666 -0.0071
  473loPI   C1A 7559  17.998  10.315   9.054  0.1714 -0.0537 -0.0667
  473loPI   C2A 7560  17.956  10.412   8.595  0.0416 -0.0516  0.0156
  473loPI   C3A 7561  18.157  10.476   8.322 -0.0897  0.0645 -0.1893
  473loPI   C4A 7562  17.873  10.682   7.984  0.0065 -0.0747 -0.3904
  473loPI   C5A 7563  17.858  10.703   7.565 -0.2139  0.2505 -0.4110
  473loPI   C6A 7564  18.168  10.538   7.266 -0.2628 -0.5599  0.0074
  473loPI   C1B 7565  17.454  10.434   9.010  0.3418 -0.0375 -0.1023
  473loPI   C2B 7566  17.442  10.546   8.638 -0.0336  0.0250 -0.0726
  473loPI   C3B 7567  17.391  10.580   8.142  0.0196 -0.0581 -0.0742
  473loPI   C4B 7568  17.319  10.735   7.752  0.5145 -0.1419 -0.1218
  474loPI    C1 7569  14.741  15.344  10.430  0.0712  0.2288 -0.2491
  474loPI    C2 7570  14.758  15.561  10.766 -0.0286 -0.1138 -0.0176
  474loPI    C3 7571  15.065  15.327  10.663  0.0030 -0.0077 -0.1691
  474loPI   PO4 7572  14.587  15.617  10.245  0.2806 -0.3018  0.0057
  474loPI   GL1 7573  14.628  15.550   9.884 -0.2056 -0.3491  0.1220
  474loPI   GL2 7574  14.615  15.267   9.822  0.0890 -0.0013 -0.2603
  474loPI   C1A 7575  14.686  15.902   9.530 -0.0658  0.1426 -0.2952
  474loPI   C2A 7576  14.647  15.954   9.106 -0.1024  0.4536 -0.1385
  474loPI   C3A 7577  14.837  15.825   8.695  0.2400 -0.0759 -0.0816
  474loPI   C4A 7578  14.903  15.773   8.337 -0.2270 -0.1775  0.2165
  474loPI   C5A 7579  14.953  15.741   7.817 -0.0927  0.0859  0.1465
  474loPI   C6A 7580  15.032  15.609   7.406  0.0314  0.0181  0.2120
  474loPI   C1B 7581  14.626  15.429   9.422 -0.1390 -0.0147 -0.0525
  474loPI   C2B 7582  14.659  15.405   8.970 -0.2456 -0.1166  0.2266
  474loPI   C3B 7583  14.669  15.339   8.545 -0.0419 -0.0612 -0.0733
  474loPI   C4B 7584  14.648  15.382   8.133  0.0533 -0.0782  0.0120
  475loPI    C1 7585  19.418  14.635  10.264 -0.0339  0.0969  0.1052
  475loPI    C2 7586  19.593  14.613  10.623 -0.1150 -0.0211  0.1381
  475loPI    C3 7587  19.551  14.967  10.442  0.3209 -0.0103  0.0478
  475loPI   PO4 7588  19.618  14.485  10.066  0.0307 -0.1890  0.3181
  475loPI   GL1 7589  19.682  14.330   9.643  0.1790  0.0972  0.0474
  475loPI   GL2 7590  19.486  14.228   9.638 -0.2348  0.0087 -0.1124
  475loPI   C1A 7591  19.841  14.135   9.273 -0.1060 -0.1132  0.0201
  475loPI   C2A 7592  19.858  13.949   8.837 -0.1807 -0.1264  0.1898
  475loPI   C3A 7593  19.787  13.890   8.407 -0.0740 -0.4470  0.1327
  475loPI   C4A 7594  19.609  13.856   7.998 -0.1494 -0.0259  0.0859
  475loPI   C5A 7595  19.594  14.099   7.638 -0.1700  0.0614 -0.0109
  475loPI   C6A 7596  19.800  14.527   7.611 -0.2532 -0.0008  0.0299
  475loPI   C1B 7597  19.289  14.216   9.206  0.0032  0.0717  0.1607
  475loPI   C2B 7598  19.238  14.038   8.827 -0.1194  0.1288 -0.2017
  475loPI   C3B 7599  19.030  14.084   8.404  0.1883 -0.1647  0.2193
  475loPI   C4B 7600  19.177  14.132   7.914  0.0584  0.2137  0.1000
  476loPI    C1 7601  16.741   1.491  10.393 -0.2235 -0.0466 -0.2914
  476loPI    C2 7602  16.413   1.405  10.606 -0.0011  0.0440  0.0981
  476loPI    C3 7603  16.651   1.110  10.477 -0.0283 -0.0016  0.1519
  476loPI   PO4 7604  16.676   1.619  10.213  0.0450  0.3621 -0.3566
  476loPI   GL1 7605  16.468   1.572   9.721 -0.0068 -0.3246 -0.0421
  476loPI   GL2 7606  16.583   1.758   9.473 -0.0757  0.1490  0.2029
  476loPI   C1A 7607  16.079   1.549   9.491  0.3043  0.2952  0.0486
  476loPI   C2A 7608  15.852   1.505   9.060  0.2420 -0.0456  0.1384
  476loPI   C3A 7609  15.676   1.444   8.656  0.0805  0.0369 -0.1601
  476loPI   C4A 7610  15.489   1.391   8.284  0.1081 -0.1302  0.1026
  476loPI   C5A 7611  15.490   1.487   7.863  0.1722  0.3890 -0.3653
  476loPI   C6A 7612  15.616   1.407   7.488 -0.3794 -0.1921  0.5956
  476loPI   C1B 7613  16.363   1.629   9.048 -0.0160  0.1997  0.1889
  476loPI   C2B 7614  16.162   1.523   8.646  0.1350  0.2328 -0.3180
  476loPI   C3B 7615  16.155   1.473   8.269 -0.4048 -0.2727 -0.0037
  476loPI   C4B 7616  16.011   1.529   7.826  0.2074  0.2184 -0.0599
  477loPI    C1 7617  14.254  16.033  10.491  0.2266  0.0007  0.1424
  477loPI    C2 7618  13.984  16.287  10.642  0.0172 -0.1516  0.0297
  477loPI    C3 7619  13.918  15.893  10.656  0.1868 -0.1856 -0.0916
  477loPI   PO4 7620  14.308  16.091  10.266 -0.1009  0.3510  0.1113
  477loPI   GL1 7621  14.249  16.036   9.773  0.0094  0.0511 -0.1591
  477loPI   GL2 7622  14.485  16.282   9.714 -0.5298 -0.1819  0.0939
  477loPI   C1A 7623  14.141  16.069   9.283 -0.3061  0.0803  0.1433
  477loPI   C2A 7624  14.167  16.118   8.907 -0.0407  0.2758  0.3071
  477loPI   C3A 7625  14.262  16.288   8.529  0.0088 -0.0398  0.0802
  477loPI   C4A 7626  14.148  16.119   8.208  0.3436  0.0462  0.0533
  477loPI   C5A 7627  13.875  15.918   7.831 -0.0316 -0.0527 -0.0544
  477loPI   C6A 7628  13.382  15.830   7.713  0.1051 -0.3169  0.1809
  477loPI   C1B 7629  14.585  16.356   9.366  0.2502  0.0189 -0.0769
  477loPI   C2B 7630  14.660  16.453   8.896  0.1267  0.1152  0.0942
  477loPI   C3B 7631  14.709  16.251   8.439  0.2461 -0.2076  0.1396
  477loPI   C4B 7632  14.578  16.166   7.989  0.2065 -0.3117  0.0588
  478loPI    C1 7633   2.168  18.075   9.930  0.1526  0.1526  0.0990
  478loPI    C2 7634   2.413  17.840  10.142 -0.1448 -0.1494  0.1157
  478loPI    C3 7635   2.028  17.872  10.245 -0.1067  0.3647  0.1234
  478loPI   PO4 7636   2.132  17.988   9.700  0.1421 -0.0945  0.0982
  478loPI   GL1 7637   1.941  17.962   9.375  0.3102  0.1998  0.0806
  478loPI   GL2 7638   1.737  18.204   9.345 -0.1096  0.3870  0.3250
  478loPI   C1A 7639   1.834  17.569   9.225 -0.2746  0.2447 -0.0128
  478loPI   C2A 7640   1.931  17.135   9.215 -0.2487  0.0473  0.1450
  478loPI   C3A 7641   1.969  17.060   8.862 -0.2974  0.1400 -0.0910
  478loPI   C4A 7642   2.022  16.989   8.436  0.1210  0.0849 -0.3053
  478loPI   C5A 7643   1.681  16.974   8.123  0.2540 -0.1981 -0.0203
  478loPI   C6A 7644   1.178  16.851   7.990  0.2266  0.1060 -0.0428
  478loPI   C1B 7645   1.794  18.206   8.989  0.1253 -0.2440 -0.0430
  478loPI   C2B 7646   1.921  18.246   8.603 -0.0473  0.1412 -0.1604
  478loPI   C3B 7647   1.862  18.225   8.064  0.1800 -0.0771 -0.0506
  478loPI   C4B 7648   1.799  18.467   7.673  0.0980 -0.1349 -0.0238
  479loPI    C1 7649  17.310  14.113   9.808  0.1798  0.0731 -0.3501
  479loPI    C2 7650  16.988  14.003   9.597 -0.0593 -0.4149  0.2361
  479loPI    C3 7651  16.969  14.319   9.841  0.0474 -0.1852 -0.0468
  479loPI   PO4 7652  17.457  14.028   9.617  0.0984  0.2216 -0.0135
  479loPI   GL1 7653  17.465  13.776   9.249  0.0595 -0.0538 -0.1771
  479loPI   GL2 7654  17.179  13.896   9.198 -0.3751  0.3297  0.0057
  479loPI   C1A 7655  17.398  13.735   8.771  0.2656  0.1367  0.1115
  479loPI   C2A 7656  17.555  13.410   8.539  0.1501 -0.0952 -0.2172
  479loPI   C3A 7657  17.664  13.192   8.110 -0.0891  0.0276  0.2960
  479loPI   C4A 7658  17.724  13.120   7.621 -0.1992 -0.1488 -0.0194
  479loPI   C5A 7659  17.460  12.897   7.275 -0.1005  0.0119  0.2189
  479loPI   C6A 7660  17.262  12.538   6.999 -0.1638  0.2592 -0.2829
  479loPI   C1B 7661  17.059  14.094   8.737 -0.2913 -0.0524  0.3884
  479loPI   C2B 7662  17.196  13.923   8.339 -0.2949 -0.1318 -0.0524
  479loPI   C3B 7663  17.160  13.960   7.852  0.2184 -0.0372 -0.0581
  479loPI   C4B 7664  17.086  13.849   7.409  0.1807  0.4158 -0.1176
  480loPI    C1 7665  11.939  10.296   9.688 -0.0450  0.0928  0.3057
  480loPI    C2 7666  11.794  10.568   9.432 -0.1078 -0.3326 -0.1259
  480loPI    C3 7667  12.179  10.579   9.540 -0.1585  0.0488  0.0311
  480loPI   PO4 7668  11.801  10.083   9.589  0.0387  0.2278 -0.2327
  480loPI   GL1 7669  11.809  10.018   9.271  0.1842  0.0167 -0.3004
  480loPI   GL2 7670  12.044  10.225   9.127  0.0760  0.3171  0.0866
  480loPI   C1A 7671  11.803   9.880   8.875 -0.0750  0.2323  0.0712
  480loPI   C2A 7672  11.931  10.168   8.454  0.1040 -0.1014 -0.0374
  480loPI   C3A 7673  11.996  10.385   8.066 -0.1570 -0.0229  0.3327
  480loPI   C4A 7674  11.997  10.561   7.709  0.1430 -0.1999 -0.0582
  480loPI   C5A 7675  12.168  10.612   7.375 -0.0307  0.0123  0.0354
  480loPI   C6A 7676  12.453  10.685   7.167 -0.0838 -0.1139 -0.1609
  480loPI   C1B 7677  12.021  10.749   9.041  0.1981  0.1121  0.1206
  480loPI   C2B 7678  11.765  10.987   8.854  0.0505  0.0054  0.1612
  480loPI   C3B 7679  11.701  11.148   8.520 -0.0461 -0.0788  0.1484
  480loPI   C4B 7680  11.755  11.446   8.202 -0.2403 -0.1711  0.1947
  481loPI    C1 7681   7.059   1.189   9.327 -0.2266  0.0744  0.5277
  481loPI    C2 7682   7.404   1.392   9.328 -0.1228 -0.0904  0.0995
  481loPI    C3 7683   7.099   1.514   9.556  0.1081  0.2467  0.2338
  481loPI   PO4 7684   7.033   1.122   9.062  0.1011 -0.0260 -0.0318
  481loPI   GL1 7685   6.965   0.884   8.727  0.1577  0.0305  0.1024
  481loPI   GL2 7686   7.196   0.750   8.800 -0.2783  0.0632  0.0770
  481loPI   C1A 7687   7.209   0.827   8.254 -0.4564  0.4389 -0.3174
  481loPI   C2A 7688   7.352   0.838   7.742 -0.0735  0.1078  0.3076
  481loPI   C3A 7689   7.381   0.722   7.388  0.2246 -0.2767  0.1688
  481loPI   C4A 7690   7.631   0.742   7.016 -0.1052  0.3506 -0.2219
  481loPI   C5A 7691   7.796   1.125   6.816 -0.1375 -0.2174 -0.1607
  481loPI   C6A 7692   7.449   1.537   6.924  0.3177 -0.2747 -0.0079
  481loPI   C1B 7693   7.131   0.403   8.532  0.1185  0.1480 -0.0884
  481loPI   C2B 7694   7.215   0.262   8.095  0.1055 -0.0711  0.1204
  481loPI   C3B 7695   7.024   0.362   7.643  0.2323  0.0389 -0.3021
  481loPI   C4B 7696   6.825   0.386   7.269 -0.4342  0.3055 -0.4554
  482loPI    C1 7697  18.900   4.775   9.539  0.1449 -0.0941 -0.0054
  482loPI    C2 7698  19.171   4.675   9.815  0.1616 -0.0821 -0.0172
  482loPI    C3 7699  18.837   4.865   9.924 -0.0126 -0.4186  0.0478
  482loPI   PO4 7700  18.865   4.540   9.439 -0.2513  0.0592 -0.1995
  482loPI   GL1 7701  19.060   4.622   8.968 -0.1820  0.1683 -0.2290
  482loPI   GL2 7702  18.821   4.347   8.985 -0.0964 -0.2076 -0.0451
  482loPI   C1A 7703  19.296   4.431   8.529  0.3130  0.1101  0.0027
  482loPI   C2A 7704  19.407   4.439   8.167  0.2261 -0.1991 -0.3101
  482loPI   C3A 7705  19.345   4.316   7.738  0.0227  0.1536  0.1004
  482loPI   C4A 7706  19.337   4.241   7.273 -0.2240  0.1033 -0.1283
  482loPI   C5A 7707  19.720   4.191   7.069 -0.4997 -0.4007  0.1008
  482loPI   C6A 7708  20.232   4.193   7.116  0.0300 -0.2061 -0.1651
  482loPI   C1B 7709  18.762   4.432   8.544  0.0651  0.3606  0.0441
  482loPI   C2B 7710  18.905   4.321   8.130  0.1820  0.2114  0.1178
  482loPI   C3B 7711  18.742   4.084   7.784 -0.1680 -0.1836 -0.0559
  482loPI   C4B 7712  18.488   3.947   7.447  0.0258  0.3036 -0.1809
  483loPI    C1 7713  10.083  11.533   9.777 -0.0292 -0.0088 -0.0065
  483loPI    C2 7714  10.186  11.416  10.145  0.0643 -0.0944 -0.0594
  483loPI    C3 7715  10.325  11.762   9.998  0.0989 -0.1034 -0.0482
  483loPI   PO4 7716   9.800  11.488   9.731 -0.3609 -0.0547 -0.0913
  483loPI   GL1 7717   9.630  11.631   9.423  0.1836 -0.3276 -0.2462
  483loPI   GL2 7718   9.639  11.330   9.257 -0.2408  0.1810  0.3173
  483loPI   C1A 7719   9.764  11.933   9.257 -0.0664 -0.0803 -0.0143
  483loPI   C2A 7720   9.777  12.082   8.821  0.0049 -0.1279  0.3283
  483loPI   C3A 7721   9.620  12.089   8.314 -0.2456  0.1353 -0.0433
  483loPI   C4A 7722   9.712  12.112   7.860  0.1255  0.0941 -0.1296
  483loPI   C5A 7723   9.426  12.091   7.556  0.1309  0.0660 -0.1007
  483loPI   C6A 7724   8.928  12.095   7.464  0.2307  0.1145  0.0922
  483loPI   C1B 7725   9.678  11.432   8.965 -0.1164 -0.0481  0.3756
  483loPI   C2B 7726   9.827  11.575   8.500 -0.1417 -0.1414  0.0494
  483loPI   C3B 7727   9.837  11.593   7.971  0.1404 -0.2546 -0.0192
  483loPI   C4B 7728   9.888  11.661   7.545  0.1309 -0.0687  0.0459
  484loPI    C1 7729  13.996  18.756  10.106 -0.2149  0.1158 -0.0238
  484loPI    C2 7730  13.848  18.953  10.421 -0.2957 -0.2256  0.1565
  484loPI    C3 7731  14.167  18.715  10.465 -0.0016  0.1041 -0.1246
  484loPI   PO4 7732  14.071  18.851   9.981  0.1518 -0.0857  0.0011
  484loPI   GL1 7733  14.332  18.749   9.616 -0.0031  0.0818 -0.0483
  484loPI   GL2 7734  14.716  18.645   9.707 -0.0320  0.1446 -0.0592
  484loPI   C1A 7735  14.129  18.670   9.218  0.0646  0.4016 -0.1028
  484loPI   C2A 7736  13.942  18.597   8.815 -0.0577  0.2122 -0.0935
  484loPI   C3A 7737  13.990  18.747   8.370 -0.2762  0.3128  0.1850
  484loPI   C4A 7738  13.848  18.769   8.011 -0.0183 -0.1429  0.1163
  484loPI   C5A 7739  13.620  18.849   7.587 -0.3502  0.1951 -0.1987
  484loPI   C6A 7740  13.323  18.914   7.307 -0.0766 -0.0756 -0.1934
  484loPI   C1B 7741  14.768  18.972   9.419  0.4630  0.0715 -0.0019
  484loPI   C2B 7742  14.966  19.091   9.034 -0.0124 -0.0570 -0.0487
  484loPI   C3B 7743  14.889  19.222   8.711 -0.2864  0.1207 -0.1273
  484loPI   C4B 7744  14.862  19.526   8.506  0.1374 -0.1367  0.0626
  485loPI    C1 7745  14.145   1.492  10.477  0.2325  0.2503  0.1864
  485loPI    C2 7746  13.889   1.288  10.708 -0.1414  0.1381 -0.3101
  485loPI    C3 7747  14.219   1.110  10.571 -0.1223  0.0811 -0.1913
  485loPI   PO4 7748  13.989   1.500  10.268  0.1934 -0.1905 -0.0729
  485loPI   GL1 7749  14.009   1.470   9.870 -0.1322  0.0784  0.2786
  485loPI   GL2 7750  14.127   1.822   9.810  0.0828  0.3479  0.1141
  485loPI   C1A 7751  14.132   1.307   9.576 -0.3363 -0.2783  0.1774
  485loPI   C2A 7752  14.109   1.337   9.263 -0.2362  0.1385  0.0073
  485loPI   C3A 7753  14.039   1.514   8.933  0.3207 -0.1159 -0.0023
  485loPI   C4A 7754  13.950   1.724   8.516  0.1062  0.1644 -0.3883
  485loPI   C5A 7755  13.765   1.913   8.243  0.1773 -0.3035 -0.3311
  485loPI   C6A 7756  13.742   2.110   7.816 -0.1219 -0.1411 -0.1680
  485loPI   C1B 7757  13.889   1.799   9.526 -0.3643  0.0360 -0.2132
  485loPI   C2B 7758  13.754   2.160   9.200  0.1182 -0.0997 -0.0572
  485loPI   C3B 7759  13.773   2.137   8.723  0.1899 -0.3142 -0.0849
  485loPI   C4B 7760  13.787   2.435   8.364 -0.2059 -0.2601  0.0959
  486loPI    C1 7761   0.437  16.409  10.061 -0.1327 -0.1038  0.1127
  486loPI    C2 7762   0.700  16.298  10.342 -0.0549  0.1644  0.1488
  486loPI    C3 7763   0.330  16.408  10.447 -0.2125 -0.2869  0.0914
  486loPI   PO4 7764   0.548  16.522   9.897  0.1462 -0.0209 -0.1181
  486loPI   GL1 7765   0.305  16.431   9.480  0.1631 -0.1213  0.1634
  486loPI   GL2 7766   0.042  16.129   9.354  0.1422 -0.0224 -0.1229
  486loPI   C1A 7767   0.186  16.515   9.043 -0.0887  0.0768  0.0808
  486loPI   C2A 7768   0.132  16.454   8.570  0.1175 -0.2272 -0.0427
  486loPI   C3A 7769   0.097  16.380   8.118  0.2076 -0.2016  0.1875
  486loPI   C4A 7770  -0.054  16.413   7.741  0.2293 -0.1070  0.3173
  486loPI   C5A 7771  -0.206  16.280   7.365  0.3179 -0.1728  0.0956
  486loPI   C6A 7772  -0.115  15.828   7.244  0.2732 -0.1525 -0.0344
  486loPI   C1B 7773   0.326  16.042   9.049  0.0843 -0.0930  0.0104
  486loPI   C2B 7774   0.279  15.876   8.646 -0.1378  0.1277 -0.1068
  486loPI   C3B 7775   0.281  15.854   8.186  0.0768  0.1070 -0.1759
  486loPI   C4B 7776   0.142  15.993   7.752  0.1415  0.1823 -0.1173
  487loPI    C1 7777  15.323   6.964   9.354 -0.0628 -0.1858  0.0306
  487loPI    C2 7778  14.939   6.874   9.416 -0.0803 -0.1472 -0.0215
  487loPI    C3 7779  15.062   7.253   9.447 -0.0777 -0.1361 -0.1626
  487loPI   PO4 7780  15.365   6.870   9.149 -0.2677  0.0718 -0.0168
  487loPI   GL1 7781  15.564   7.126   8.879 -0.0087 -0.2318 -0.1155
  487loPI   GL2 7782  15.920   7.252   8.894  0.2498  0.1470 -0.1492
  487loPI   C1A 7783  15.793   7.041   8.484  0.0845  0.1973 -0.2109
  487loPI   C2A 7784  15.868   7.279   8.026  0.2570  0.3400  0.2404
  487loPI   C3A 7785  15.973   7.338   7.586  0.2521 -0.0246 -0.0637
  487loPI   C4A 7786  16.108   7.664   7.216 -0.0476  0.1508 -0.0595
  487loPI   C5A 7787  15.993   8.050   6.945  0.1251 -0.1606  0.0663
  487loPI   C6A 7788  16.229   8.274   6.648 -0.2807  0.2940 -0.2123
  487loPI   C1B 7789  15.717   7.569   8.630  0.0431  0.1699 -0.0208
  487loPI   C2B 7790  15.483   7.545   8.224  0.1668 -0.0863 -0.2943
  487loPI   C3B 7791  15.099   7.588   7.863  0.1014 -0.0258  0.0607
  487loPI   C4B 7792  15.114   7.712   7.425  0.0115 -0.1451 -0.0382
  488loPI    C1 7793  10.670  14.563   9.925 -0.1006  0.2444 -0.2313
  488loPI    C2 7794  10.958  14.788  10.089  0.0627 -0.0579 -0.0950
  488loPI    C3 7795  10.727  14.558  10.321  0.0065 -0.1575 -0.2476
  488loPI   PO4 7796  10.537  14.686   9.757  0.3298  0.2983  0.0939
  488loPI   GL1 7797  10.479  14.898   9.311  0.2264 -0.2006  0.2128
  488loPI   GL2 7798  10.228  15.031   9.167 -0.0587  0.2580  0.1646
  488loPI   C1A 7799  10.641  14.660   8.930 -0.1552  0.0274  0.0118
  488loPI   C2A 7800  10.585  14.683   8.479 -0.0639 -0.1916  0.1384
  488loPI   C3A 7801  10.659  14.648   8.164 -0.1902  0.2297  0.1673
  488loPI   C4A 7802  10.715  14.627   7.675  0.1693 -0.0001 -0.1943
  488loPI   C5A 7803  10.686  14.924   7.394 -0.0536  0.1883 -0.2008
  488loPI   C6A 7804  10.871  15.115   7.103  0.4023 -0.0425  0.1957
  488loPI   C1B 7805  10.276  14.965   8.736  0.3022  0.4012  0.1082
  488loPI   C2B 7806  10.362  15.119   8.282  0.3359  0.3235 -0.0301
  488loPI   C3B 7807  10.218  14.973   7.880 -0.1205 -0.0419  0.0524
  488loPI   C4B 7808  10.226  15.156   7.509  0.1075  0.0351 -0.2518
  489loPI    C1 7809  16.629  12.497  10.161 -0.2056 -0.2302 -0.2123
  489loPI    C2 7810  16.278  12.307  10.179 -0.2588 -0.1151 -0.0069
  489loPI    C3 7811  16.512  12.326  10.503 -0.3124  0.2762  0.0144
  489loPI   PO4 7812  16.689  12.467   9.860  0.1451 -0.0708  0.2146
  489loPI   GL1 7813  16.621  12.363   9.423  0.1406 -0.0020  0.4652
  489loPI   GL2 7814  16.388  12.148   9.639  0.0979  0.1362  0.3791
  489loPI   C1A 7815  16.724  12.163   9.027 -0.0403  0.3949  0.0983
  489loPI   C2A 7816  16.773  12.142   8.601 -0.3447  0.2241 -0.0069
  489loPI   C3A 7817  16.790  11.979   8.162  0.0379 -0.0399 -0.1049
  489loPI   C4A 7818  16.883  12.048   7.815 -0.2687 -0.0577 -0.0540
  489loPI   C5A 7819  17.165  11.853   7.439  0.1515  0.3628  0.1471
  489loPI   C6A 7820  17.389  11.445   7.258 -0.1731  0.3292  0.3470
  489loPI   C1B 7821  16.392  11.893   9.302 -0.0231 -0.0667  0.0340
  489loPI   C2B 7822  16.354  11.833   8.859  0.1258  0.0629 -0.0371
  489loPI   C3B 7823  16.284  11.831   8.338 -0.2327  0.1397 -0.3433
  489loPI   C4B 7824  16.226  11.867   7.932 -0.2285  0.1499  0.0762
  490loPI    C1 7825  13.972   9.355   9.991  0.2142  0.0762  0.1133
  490loPI    C2 7826  14.170   9.008  10.016 -0.0637 -0.0754  0.2607
  490loPI    C3 7827  14.081   9.212  10.349 -0.4356 -0.1730  0.2258
  490loPI   PO4 7828  13.985   9.409   9.779  0.1658 -0.1395  0.1441
  490loPI   GL1 7829  13.790   9.118   9.493 -0.2945 -0.3398 -0.0967
  490loPI   GL2 7830  13.981   9.381   9.267 -0.1028 -0.0230  0.2262
  490loPI   C1A 7831  13.787   8.724   9.126 -0.3093 -0.1165  0.0997
  490loPI   C2A 7832  13.871   8.598   8.674 -0.3441  0.0999  0.0100
  490loPI   C3A 7833  13.894   8.578   8.343  0.1495  0.1550  0.0022
  490loPI   C4A 7834  13.673   8.577   8.001 -0.3808 -0.1914 -0.0812
  490loPI   C5A 7835  13.658   8.757   7.615 -0.0605  0.1605  0.1010
  490loPI   C6A 7836  13.741   8.576   7.232  0.1215 -0.0828  0.0061
  490loPI   C1B 7837  13.833   9.182   9.015  0.1013  0.1377  0.3950
  490loPI   C2B 7838  13.608   9.019   8.611 -0.1240  0.0698 -0.1380
  490loPI   C3B 7839  13.623   9.112   8.183  0.0350 -0.3145  0.1600
  490loPI   C4B 7840  13.633   9.356   7.707 -0.1869 -0.0004  0.0342
  491loPI    C1 7841  11.149  18.513  10.072 -0.1956 -0.1037 -0.0312
  491loPI    C2 7842  10.788  18.364  10.160 -0.2250 -0.0098  0.0079
  491loPI    C3 7843  11.109  18.246  10.368 -0.1995 -0.2550 -0.1664
  491loPI   PO4 7844  11.050  18.706   9.945  0.0550  0.2255 -0.0724
  491loPI   GL1 7845  10.912  18.886   9.570 -0.1079 -0.2167 -0.3279
  491loPI   GL2 7846  10.620  18.922   9.436 -0.0464  0.0966  0.0221
  491loPI   C1A 7847  11.020  18.877   9.186  0.3178 -0.2075  0.1680
  491loPI   C2A 7848  11.208  18.931   8.780  0.0252 -0.2643  0.0138
  491loPI   C3A 7849  11.021  18.980   8.385 -0.1483 -0.1750  0.2254
  491loPI   C4A 7850  11.098  18.840   7.958 -0.2859  0.0663 -0.0311
  491loPI   C5A 7851  11.327  18.616   7.667 -0.2308  0.3673  0.0789
  491loPI   C6A 7852  11.467  18.389   7.293 -0.0066 -0.2845 -0.1494
  491loPI   C1B 7853  10.556  18.960   8.994 -0.3359  0.2473 -0.1522
  491loPI   C2B 7854  10.536  19.054   8.510 -0.0632  0.3114  0.0807
  491loPI   C3B 7855  10.597  19.051   8.049  0.2939  0.0274  0.2453
  491loPI   C4B 7856  10.679  18.966   7.728  0.1533  0.3146 -0.2515
  492loPI    C1 7857   4.919  15.191   9.978 -0.2455  0.0569 -0.3663
  492loPI    C2 7858   4.868  15.555  10.134 -0.0924  0.0484 -0.2948
  492loPI    C3 7859   4.631  15.254  10.248 -0.0599  0.0699 -0.1690
  492loPI   PO4 7860   4.885  15.310   9.682 -0.0248  0.0934 -0.0580
  492loPI   GL1 7861   5.002  15.413   9.313  0.2274  0.2250  0.3877
  492loPI   GL2 7862   4.784  15.670   9.276  0.0850 -0.4144 -0.0716
  492loPI   C1A 7863   4.992  15.061   9.006  0.2044 -0.3435 -0.1818
  492loPI   C2A 7864   5.023  15.036   8.686 -0.0018  0.1164  0.0512
  492loPI   C3A 7865   5.140  14.998   8.261 -0.2724 -0.0878  0.0123
  492loPI   C4A 7866   5.006  15.106   7.859  0.1750 -0.4355 -0.0350
  492loPI   C5A 7867   5.095  15.352   7.455  0.1413  0.1734 -0.3832
  492loPI   C6A 7868   4.889  15.546   7.207  0.0340  0.2312 -0.1183
  492loPI   C1B 7869   4.613  15.575   8.860  0.1827 -0.3330 -0.1625
  492loPI   C2B 7870   4.462  15.588   8.405 -0.1890  0.1273 -0.1112
  492loPI   C3B 7871   4.572  15.624   8.028 -0.1874 -0.1709  0.1768
  492loPI   C4B 7872   4.774  15.642   7.653 -0.1377  0.0082  0.0537
  493loPI    C1 7873  15.457   0.486  10.423 -0.0564 -0.2192  0.0821
  493loPI    C2 7874  15.781   0.577  10.639  0.0044 -0.1062 -0.0553
  493loPI    C3 7875  15.417   0.622  10.797  0.0392  0.2218 -0.0613
  493loPI   PO4 7876  15.465   0.301  10.251  0.4472 -0.3475  0.4629
  493loPI   GL1 7877  15.324   0.245   9.844 -0.2057 -0.1515 -0.1274
  493loPI   GL2 7878  15.446  -0.037   9.776  0.0130 -0.0520  0.2503
  493loPI   C1A 7879  15.067   0.307   9.469  0.0096 -0.1271  0.0425
  493loPI   C2A 7880  15.077   0.224   8.973 -0.0767 -0.2682 -0.2747
  493loPI   C3A 7881  15.361   0.212   8.524  0.4594  0.1594  0.0407
  493loPI   C4A 7882  15.306   0.354   8.133  0.3160 -0.0562 -0.1712
  493loPI   C5A 7883  15.010   0.490   7.694 -0.2021  0.0707 -0.0757
  493loPI   C6A 7884  14.628   0.680   7.697  0.1296  0.2614  0.1869
  493loPI   C1B 7885  15.759   0.016   9.500 -0.2572  0.0082  0.0281
  493loPI   C2B 7886  16.003   0.135   9.133  0.3214  0.0617  0.2657
  493loPI   C3B 7887  16.122   0.254   8.713  0.2505 -0.1015 -0.0271
  493loPI   C4B 7888  16.354   0.425   8.336 -0.0467 -0.2147  0.0775
  494loPI    C1 7889  15.701   5.966   9.463 -0.0265 -0.1453 -0.1579
  494loPI    C2 7890  16.094   5.977   9.535 -0.0545  0.2149 -0.0378
  494loPI    C3 7891  15.835   5.981   9.840 -0.1535 -0.3528 -0.1028
  494loPI   PO4 7892  15.694   6.031   9.238 -0.1657 -0.3173  0.1492
  494loPI   GL1 7893  15.639   5.703   8.737  0.2074 -0.2853 -0.2080
  494loPI   GL2 7894  15.466   5.981   8.751 -0.0422  0.2383  0.2549
  494loPI   C1A 7895  15.724   5.949   8.339  0.0011  0.0383  0.1057
  494loPI   C2A 7896  15.678   5.871   7.918  0.2048 -0.2984 -0.3000
  494loPI   C3A 7897  15.504   5.960   7.559  0.0848 -0.0172  0.0906
  494loPI   C4A 7898  15.366   6.028   7.156  0.3720  0.1153 -0.0882
  494loPI   C5A 7899  15.328   6.030   6.729  0.1209 -0.0298  0.0105
  494loPI   C6A 7900  15.801   5.931   6.697 -0.0876 -0.1420 -0.4855
  494loPI   C1B 7901  15.199   5.841   8.457 -0.0421  0.2319  0.0930
  494loPI   C2B 7902  15.116   6.040   8.060  0.0307  0.0639  0.0494
  494loPI   C3B 7903  15.000   6.188   7.585  0.0529 -0.1040 -0.1567
  494loPI   C4B 7904  14.873   6.284   7.209  0.3623 -0.0101  0.4041
  495loPI    C1 7905   5.195   1.452   9.336  0.0853 -0.0494  0.0521
  495loPI    C2 7906   4.881   1.679   9.435  0.2740  0.2156  0.0536
  495loPI    C3 7907   4.972   1.357   9.654 -0.0699  0.0636 -0.0217
  495loPI   PO4 7908   5.196   1.552   9.107 -0.2268 -0.0821 -0.2279
  495loPI   GL1 7909   5.293   1.263   8.845 -0.1802  0.1053  0.0272
  495loPI   GL2 7910   5.414   0.956   8.802  0.0642 -0.0284  0.0881
  495loPI   C1A 7911   5.146   1.343   8.440 -0.2287 -0.0154 -0.0016
  495loPI   C2A 7912   5.138   1.186   7.960  0.2666  0.2946 -0.2462
  495loPI   C3A 7913   5.135   1.281   7.525 -0.2595  0.1272 -0.4603
  495loPI   C4A 7914   5.506   1.426   7.315 -0.1776  0.2589 -0.0390
  495loPI   C5A 7915   5.569   1.456   6.911 -0.1024  0.0441 -0.1316
  495loPI   C6A 7916   5.761   1.416   6.561  0.1116 -0.1895  0.2538
  495loPI   C1B 7917   5.470   0.968   8.393 -0.3037  0.0794  0.0860
  495loPI   C2B 7918   5.536   0.796   7.966  0.0822 -0.0202  0.1344
  495loPI   C3B 7919   5.301   0.616   7.703 -0.7391  0.0984 -0.0979
  495loPI   C4B 7920   5.454   0.329   7.483 -0.2066 -0.2654 -0.0254
  496loPI    C1 7921   7.808   4.954   8.835  0.0323  0.2642 -0.0506
  496loPI    C2 7922   8.075   5.059   9.114  0.2203  0.2095 -0.2075
  496loPI    C3 7923   7.879   4.712   9.146  0.4695  0.0576 -0.3020
  496loPI   PO4 7924   7.907   5.089   8.624  0.1381  0.0856 -0.0252
  496loPI   GL1 7925   7.747   4.858   8.289  0.1078 -0.0152  0.0821
  496loPI   GL2 7926   7.602   4.574   8.229 -0.3680 -0.0805 -0.0595
  496loPI   C1A 7927   7.846   4.972   7.837 -0.2873  0.1099 -0.1867
  496loPI   C2A 7928   7.791   5.376   7.631  0.1423  0.0351 -0.1670
  496loPI   C3A 7929   7.709   5.628   7.336  0.3222 -0.0941  0.0924
  496loPI   C4A 7930   7.865   5.764   6.937  0.2379  0.0419  0.0252
  496loPI   C5A 7931   8.196   5.504   6.712  0.1199  0.1103 -0.3208
  496loPI   C6A 7932   8.238   5.612   6.252 -0.0431 -0.2260  0.2831
  496loPI   C1B 7933   7.284   4.669   7.895  0.0294 -0.1016  0.0557
  496loPI   C2B 7934   7.117   4.541   7.507  0.0422 -0.0434 -0.0657
  496loPI   C3B 7935   7.106   4.618   7.039  0.0302  0.0599 -0.4097
  496loPI   C4B 7936   6.967   4.508   6.591 -0.0059  0.2004  0.0967
  497loPI    C1 7937   5.409  11.524   9.212 -0.0897 -0.0790 -0.0474
  497loPI    C2 7938   5.525  11.556   9.593 -0.1159  0.2233 -0.0626
  497loPI    C3 7939   5.778  11.412   9.318 -0.1214 -0.0643  0.0794
  497loPI   PO4 7940   5.176  11.469   9.164  0.3688  0.2047 -0.2374
  497loPI   GL1 7941   5.258  11.381   8.689  0.1850  0.1476  0.0038
  497loPI   GL2 7942   4.926  11.611   8.685  0.1857  0.1694 -0.0205
  497loPI   C1A 7943   5.256  11.542   8.254 -0.3524  0.1612  0.1004
  497loPI   C2A 7944   4.930  11.603   8.038  0.1146  0.0442  0.1030
  497loPI   C3A 7945   4.920  11.669   7.581  0.0577  0.2525  0.0281
  497loPI   C4A 7946   4.944  11.903   7.160 -0.0269 -0.0725 -0.0145
  497loPI   C5A 7947   4.665  12.013   6.870  0.0754  0.1474 -0.0468
  497loPI   C6A 7948   4.835  12.135   6.648 -0.1676  0.2582  0.0847
  497loPI   C1B 7949   4.998  11.995   8.469  0.0494  0.1425 -0.2441
  497loPI   C2B 7950   4.822  12.444   8.298 -0.0579 -0.2004 -0.0380
  497loPI   C3B 7951   4.917  12.875   8.096  0.2044 -0.2375  0.0205
  497loPI   C4B 7952   5.051  13.232   7.797 -0.1390  0.2664  0.0203
  498loPI    C1 7953  15.243   8.173   9.460 -0.0877  0.2048 -0.0302
  498loPI    C2 7954  14.901   8.373   9.520 -0.0565  0.2612 -0.0401
  498loPI    C3 7955  15.019   8.094   9.782 -0.0810  0.2825 -0.0063
  498loPI   PO4 7956  15.244   8.095   9.212  0.0461  0.0651 -0.2393
  498loPI   GL1 7957  15.334   7.855   8.874 -0.0614 -0.2697 -0.3199
  498loPI   GL2 7958  14.956   7.781   8.781 -0.0777  0.3475  0.1479
  498loPI   C1A 7959  15.424   8.021   8.523  0.3872 -0.2889 -0.2359
  498loPI   C2A 7960  15.182   8.050   8.162 -0.0133 -0.2943 -0.0998
  498loPI   C3A 7961  14.970   8.179   7.726  0.0176 -0.1187  0.2458
  498loPI   C4A 7962  14.934   8.221   7.218 -0.2514 -0.1466 -0.1465
  498loPI   C5A 7963  15.185   7.982   7.024 -0.3647  0.0451 -0.0448
  498loPI   C6A 7964  15.538   7.926   6.722 -0.0690 -0.4605 -0.0238
  498loPI   C1B 7965  15.149   7.409   8.663  0.1177 -0.4835 -0.1073
  498loPI   C2B 7966  15.303   7.140   8.436 -0.5329  0.2774  0.2483
  498loPI   C3B 7967  15.254   7.069   8.012  0.3916  0.0385  0.0011
  498loPI   C4B 7968  15.661   6.983   7.724  0.0360  0.1096 -0.3090
  499loPI    C1 7969  12.382  11.191  10.186 -0.1207  0.0202 -0.0526
  499loPI    C2 7970  12.547  11.395  10.489  0.0110 -0.0728 -0.0607
  499loPI    C3 7971  12.233  11.156  10.556 -0.1033  0.0820 -0.0397
  499loPI   PO4 7972  12.484  11.052   9.991  0.0949  0.0386  0.2118
  499loPI   GL1 7973  12.814  11.184   9.547 -0.5665  0.0550 -0.1818
  499loPI   GL2 7974  12.907  11.495   9.713 -0.2396 -0.1972  0.1113
  499loPI   C1A 7975  12.712  11.261   9.136 -0.0511  0.0436 -0.2283
  499loPI   C2A 7976  12.783  11.422   8.806  0.0388  0.1767  0.0857
  499loPI   C3A 7977  12.885  11.470   8.424 -0.0189  0.3136  0.0704
  499loPI   C4A 7978  13.063  11.495   8.042 -0.0119 -0.1561  0.0253
  499loPI   C5A 7979  13.106  11.787   7.772 -0.1031  0.0134 -0.1057
  499loPI   C6A 7980  13.138  12.178   7.786 -0.0437  0.4552  0.0406
  499loPI   C1B 7981  13.055  11.621   9.242  0.0421 -0.0288 -0.3535
  499loPI   C2B 7982  13.262  11.735   8.739  0.0083 -0.0064  0.2452
  499loPI   C3B 7983  13.253  11.929   8.232 -0.2908 -0.0805  0.0722
  499loPI   C4B 7984  13.591  11.881   7.905  0.2982 -0.1185 -0.3004
  500loPI    C1 7985   6.280  11.430   9.642  0.1590  0.2396  0.0787
  500loPI    C2 7986   6.424  11.112   9.837  0.3345 -0.0247 -0.4646
  500loPI    C3 7987   6.519  11.480   9.959 -0.0564 -0.1610  0.3139
  500loPI   PO4 7988   6.258  11.341   9.325  0.0202  0.1730 -0.1050
  500loPI   GL1 7989   6.073  11.421   8.899 -0.0874 -0.2904 -0.0052
  500loPI   GL2 7990   5.775  11.444   8.844 -0.0500  0.1196  0.3343
  500loPI   C1A 7991   6.207  11.330   8.552  0.0019  0.0064 -0.0641
  500loPI   C2A 7992   6.152  11.391   8.080  0.0553 -0.0544  0.1212
  500loPI   C3A 7993   6.074  11.323   7.694 -0.2636 -0.3110  0.2391
  500loPI   C4A 7994   6.381  11.444   7.370  0.0055 -0.0302 -0.0404
  500loPI   C5A 7995   6.541  11.020   7.093  0.0896  0.0748 -0.4247
  500loPI   C6A 7996   6.465  10.630   6.997  0.4543  0.4191  0.1769
  500loPI   C1B 7997   5.726  11.315   8.423 -0.0667  0.0654  0.0288
  500loPI   C2B 7998   5.785  11.011   8.055 -0.2453  0.0920  0.2608
  500loPI   C3B 7999   5.775  10.896   7.638 -0.0912  0.0461 -0.2209
  500loPI   C4B 8000   5.722  11.086   7.254  0.0371 -0.0053 -0.0135
  501loPI    C1 8001   8.647   1.533   9.105 -0.1485 -0.0628  0.0959
  501loPI    C2 8002   8.571   1.843   9.347 -0.0956  0.0173  0.0107
  501loPI    C3 8003   8.298   1.555   9.298 -0.2454  0.1766 -0.1013
  501loPI   PO4 8004   8.787   1.723   8.941  0.2285 -0.1780  0.1111
  501loPI   GL1 8005   8.713   1.815   8.531  0.1474 -0.0403  0.0271
  501loPI   GL2 8006   8.364   1.746   8.548  0.1123 -0.0104  0.1470
  501loPI   C1A 8007   9.006   1.981   8.203  0.3746  0.0028  0.1608
  501loPI   C2A 8008   9.197   1.986   7.876  0.1013 -0.2113 -0.1530
  501loPI   C3A 8009   9.129   2.091   7.558 -0.0547  0.3288  0.3935
  501loPI   C4A 8010   9.034   2.204   7.163  0.3939  0.1779  0.1308
  501loPI   C5A 8011   8.770   1.977   6.737  0.2480 -0.1052 -0.1486
  501loPI   C6A 8012   8.399   1.692   6.540 -0.1301 -0.0467  0.2306
  501loPI   C1B 8013   8.483   1.678   8.081 -0.0138  0.2519  0.1159
  501loPI   C2B 8014   8.746   1.748   7.657 -0.2022  0.2209 -0.1118
  501loPI   C3B 8015   8.945   1.705   7.250  0.2650 -0.0909 -0.2485
  501loPI   C4B 8016   9.052   1.561   6.763 -0.0693  0.0880 -0.1383
  502loPI    C1 8017   1.939  15.651  10.295 -0.3268 -0.1711 -0.1088
  502loPI    C2 8018   2.082  15.377  10.548 -0.1992  0.0738  0.0888
  502loPI    C3 8019   1.745  15.574  10.637 -0.2377  0.0509 -0.0059
  502loPI   PO4 8020   2.198  15.652  10.114 -0.5052 -0.0683 -0.1685
  502loPI   GL1 8021   2.395  15.695   9.751  0.1363 -0.1298 -0.1186
  502loPI   GL2 8022   2.391  15.938   9.567 -0.3247 -0.0305 -0.0338
  502loPI   C1A 8023   2.434  15.472   9.326 -0.0618 -0.1948 -0.1174
  502loPI   C2A 8024   2.321  15.464   8.935  0.3270 -0.3496  0.4041
  502loPI   C3A 8025   2.210  15.575   8.446  0.0096 -0.0878 -0.2175
  502loPI   C4A 8026   1.986  15.491   8.098 -0.0810 -0.0924 -0.1497
  502loPI   C5A 8027   1.960  15.115   7.732  0.0076  0.0165  0.0622
  502loPI   C6A 8028   2.126  15.085   7.341  0.1389  0.2076  0.0974
  502loPI   C1B 8029   2.069  15.877   9.380  0.0615 -0.1975 -0.0072
  502loPI   C2B 8030   1.743  16.130   9.169 -0.1412  0.1519  0.0950
  502loPI   C3B 8031   1.569  16.247   8.794 -0.1164  0.2250 -0.0464
  502loPI   C4B 8032   1.329  16.111   8.485 -0.2313 -0.0395  0.1219
  503loPI    C1 8033   1.952  10.722  10.237 -0.0037  0.1000  0.0031
  503loPI    C2 8034   1.988  11.023  10.498  0.0944  0.1967 -0.1207
  503loPI    C3 8035   1.638  10.833  10.458  0.0670  0.2102  0.0488
  503loPI   PO4 8036   2.039  10.805  10.005  0.2437 -0.0367 -0.2131
  503loPI   GL1 8037   2.170  10.839   9.559  0.0265  0.2160 -0.0169
  503loPI   GL2 8038   2.423  10.603   9.447 -0.0003  0.1000  0.1084
  503loPI   C1A 8039   1.927  10.968   9.183  0.1409 -0.0488 -0.0717
  503loPI   C2A 8040   1.972  10.940   8.770  0.0167  0.0794  0.1922
  503loPI   C3A 8041   2.096  11.148   8.307  0.3226  0.1985 -0.0613
  503loPI   C4A 8042   2.020  11.189   7.871  0.1664  0.2069  0.0718
  503loPI   C5A 8043   2.034  11.367   7.438 -0.1667 -0.0649 -0.0916
  503loPI   C6A 8044   1.515  11.453   7.462 -0.3319 -0.0021  0.0302
  503loPI   C1B 8045   2.247  10.604   9.013  0.5543  0.0867  0.2065
  503loPI   C2B 8046   2.226  10.535   8.442  0.3707  0.0249  0.2569
  503loPI   C3B 8047   2.268  10.579   8.088 -0.1022  0.3223 -0.1053
  503loPI   C4B 8048   2.513  10.757   7.778 -0.0754  0.0021  0.0514
  504loPI    C1 8049  13.773  15.193  10.577 -0.1669 -0.0248  0.1299
  504loPI    C2 8050  13.963  15.250  10.924  0.1853  0.1425 -0.0846
  504loPI    C3 8051  13.589  15.109  10.922  0.2565 -0.0716  0.3512
  504loPI   PO4 8052  13.813  15.160  10.273  0.2632 -0.0461  0.0040
  504loPI   GL1 8053  13.683  15.402   9.908  0.1277  0.0229  0.2097
  504loPI   GL2 8054  13.459  15.384   9.691  0.1393  0.0373  0.0383
  504loPI   C1A 8055  13.880  15.142   9.471 -0.0481 -0.0615 -0.1275
  504loPI   C2A 8056  13.774  15.324   9.021  0.1041 -0.0362 -0.3647
  504loPI   C3A 8057  13.907  15.306   8.590  0.1504  0.0219  0.0053
  504loPI   C4A 8058  14.033  15.515   8.244  0.0557  0.3265 -0.0189
  504loPI   C5A 8059  14.267  15.662   7.902  0.0798  0.2671 -0.2373
  504loPI   C6A 8060  14.226  15.649   7.461  0.3161 -0.0234 -0.4166
  504loPI   C1B 8061  13.267  15.370   9.347 -0.0797  0.1736  0.1993
  504loPI   C2B 8062  13.281  15.393   8.838 -0.1906 -0.4206  0.1062
  504loPI   C3B 8063  13.088  15.343   8.428 -0.4363  0.1545  0.1143
  504loPI   C4B 8064  12.959  15.513   8.099  0.0169 -0.1703  0.1023
  505loPI    C1 8065   1.474  15.859  10.132 -0.2525 -0.0578 -0.0101
  505loPI    C2 8066   1.132  15.966  10.310 -0.1121 -0.0686  0.2713
  505loPI    C3 8067   1.471  15.948  10.522  0.0205 -0.2826  0.0465
  505loPI   PO4 8068   1.521  15.574  10.038 -0.0830 -0.0066 -0.2511
  505loPI   GL1 8069   1.434  15.439   9.652  0.0559 -0.0427 -0.3032
  505loPI   GL2 8070   1.168  15.476   9.499  0.1892  0.2255 -0.1410
  505loPI   C1A 8071   1.674  15.604   9.307 -0.0165 -0.1674  0.0343
  505loPI   C2A 8072   1.475  15.706   8.950  0.0249 -0.1558  0.0600
  505loPI   C3A 8073   1.197  15.536   8.692  0.1763  0.0418 -0.0696
  505loPI   C4A 8074   1.048  15.325   8.362 -0.1026  0.1035 -0.1292
  505loPI   C5A 8075   0.995  15.321   7.915 -0.0488 -0.0086 -0.1653
  505loPI   C6A 8076   0.847  15.252   7.621 -0.2141  0.3992  0.0166
  505loPI   C1B 8077   0.861  15.260   9.225 -0.0230  0.1840 -0.1703
  505loPI   C2B 8078   0.835  15.094   8.802 -0.3778 -0.2590 -0.0248
  505loPI   C3B 8079   0.749  14.872   8.436 -0.0867 -0.1254 -0.0384
  505loPI   C4B 8080   0.595  14.718   7.986 -0.2127 -0.1540  0.1105
  506loPI    C1 8081  18.849  10.011   9.621 -0.1652 -0.0137 -0.0258
  506loPI    C2 8082  19.035  10.231   9.898 -0.3058 -0.0540  0.1017
  506loPI    C3 8083  18.944   9.849   9.974 -0.3681 -0.0576  0.0098
  506loPI   PO4 8084  18.943  10.185   9.373  0.0764 -0.0478 -0.2105
  506loPI   GL1 8085  19.146  10.404   9.042 -0.0530 -0.2341  0.1952
  506loPI   GL2 8086  19.295  10.186   9.042  0.1868 -0.0964 -0.0051
  506loPI   C1A 8087  19.112  10.385   8.617 -0.1486 -0.0816 -0.0520
  506loPI   C2A 8088  19.122  10.613   8.232  0.1314  0.1398  0.0029
  506loPI   C3A 8089  18.997  10.523   7.820 -0.1211  0.2288  0.1301
  506loPI   C4A 8090  18.795  10.603   7.489  0.1348  0.1865 -0.3327
  506loPI   C5A 8091  18.768  10.788   7.007 -0.0300 -0.1588  0.0337
  506loPI   C6A 8092  18.786  11.121   6.726  0.0831 -0.1939 -0.1153
  506loPI   C1B 8093  19.238   9.860   8.823 -0.0241  0.0619  0.0498
  506loPI   C2B 8094  19.316   9.891   8.445 -0.2528  0.0909  0.1377
  506loPI   C3B 8095  19.463   9.811   8.026 -0.2031 -0.0914  0.0295
  506loPI   C4B 8096  19.587   9.925   7.610 -0.2097  0.3173  0.1791
  507loPI    C1 8097   6.679  11.957   9.932  0.1688  0.0578 -0.0957
  507loPI    C2 8098   6.577  12.310  10.091  0.1073  0.0386 -0.0922
  507loPI    C3 8099   6.619  11.989  10.326 -0.3753 -0.0807 -0.1593
  507loPI   PO4 8100   6.442  11.918   9.667  0.3100  0.0320 -0.0225
  507loPI   GL1 8101   6.476  11.805   9.369  0.1624 -0.0558 -0.0176
  507loPI   GL2 8102   6.291  11.819   9.163 -0.2357  0.0126 -0.0082
  507loPI   C1A 8103   6.795  11.888   9.037  0.1524 -0.1245 -0.2885
  507loPI   C2A 8104   6.799  11.757   8.583  0.0550 -0.0825  0.0297
  507loPI   C3A 8105   6.493  11.853   8.279 -0.0042  0.1088 -0.1514
  507loPI   C4A 8106   6.243  12.031   8.038  0.3389  0.1857  0.1753
  507loPI   C5A 8107   5.983  11.828   7.610 -0.3641 -0.3829  0.1448
  507loPI   C6A 8108   5.896  11.640   7.240  0.0387  0.0906 -0.0438
  507loPI   C1B 8109   6.357  11.818   8.778 -0.1014 -0.1886  0.0950
  507loPI   C2B 8110   6.037  11.812   8.511 -0.3148 -0.1784  0.1137
  507loPI   C3B 8111   5.815  11.761   8.164 -0.1543 -0.2693  0.1644
  507loPI   C4B 8112   5.594  11.550   7.842  0.0715 -0.2369  0.1705
  508loPI    C1 8113   2.267  12.821   9.954  0.0727 -0.0654 -0.1830
  508loPI    C2 8114   2.244  12.632  10.306 -0.0297  0.1094 -0.0943
  508loPI    C3 8115   2.570  12.846  10.215  0.0923 -0.1182 -0.2006
  508loPI   PO4 8116   2.316  12.725   9.793 -0.1513 -0.0473  0.0955
  508loPI   GL1 8117   2.649  12.573   9.529 -0.1794 -0.0136 -0.1470
  508loPI   GL2 8118   2.853  12.381   9.495 -0.4177  0.0440 -0.1729
  508loPI   C1A 8119   2.878  12.667   9.112  0.2360  0.3191 -0.1964
  508loPI   C2A 8120   3.025  12.740   8.697  0.1366  0.0435  0.0025
  508loPI   C3A 8121   2.932  12.911   8.268 -0.1745 -0.0408 -0.0450
  508loPI   C4A 8122   2.799  12.726   7.855 -0.0641  0.0007 -0.0845
  508loPI   C5A 8123   2.781  12.501   7.485  0.0563  0.0241  0.0400
  508loPI   C6A 8124   2.613  12.194   7.112 -0.4225  0.2127 -0.1309
  508loPI   C1B 8125   2.882  12.128   9.183 -0.1291  0.0017 -0.0071
  508loPI   C2B 8126   2.946  12.191   8.740  0.1237 -0.1329 -0.1276
  508loPI   C3B 8127   3.034  12.404   8.248 -0.0607  0.2755 -0.1222
  508loPI   C4B 8128   2.997  12.223   7.846 -0.2298 -0.2155  0.0640
  509loPI    C1 8129   9.063   4.583   8.929  0.2079 -0.2170  0.0595
  509loPI    C2 8130   8.766   4.379   9.103 -0.0273 -0.0182 -0.1016
  509loPI    C3 8131   8.956   4.667   9.306  0.0519 -0.1406 -0.0006
  509loPI   PO4 8132   8.929   4.679   8.680 -0.2394 -0.0295  0.0288
  509loPI   GL1 8133   8.790   5.081   8.395  0.1234 -0.0548  0.1585
  509loPI   GL2 8134   8.546   5.219   8.313  0.1768 -0.0622  0.0154
  509loPI   C1A 8135   9.082   4.895   8.077 -0.2846  0.1941  0.1860
  509loPI   C2A 8136   9.262   4.733   7.782 -0.0946  0.1031  0.2015
  509loPI   C3A 8137   9.369   4.679   7.419 -0.2982 -0.0263  0.0687
  509loPI   C4A 8138   9.573   4.860   7.002 -0.4471 -0.0388  0.1037
  509loPI   C5A 8139   9.794   5.016   6.777 -0.0126  0.2396  0.0831
  509loPI   C6A 8140   9.950   4.820   6.445 -0.0499  0.0215  0.0982
  509loPI   C1B 8141   8.713   5.157   7.773 -0.1337 -0.1460 -0.0839
  509loPI   C2B 8142   8.872   5.034   7.384  0.3790  0.1009 -0.2485
  509loPI   C3B 8143   8.511   4.848   7.079  0.1839 -0.1762 -0.4366
  509loPI   C4B 8144   8.106   4.923   6.916  0.0652  0.1200 -0.1617
  510loPI    C1 8145   5.071  16.308   9.922  0.1784 -0.1243 -0.3520
  510loPI    C2 8146   4.939  16.546  10.216 -0.0622 -0.0362 -0.5286
  510loPI    C3 8147   5.332  16.502  10.155 -0.0107 -0.0402 -0.2073
  510loPI   PO4 8148   4.973  16.357   9.694  0.1645  0.1938 -0.3048
  510loPI   GL1 8149   5.049  16.502   9.408 -0.1881 -0.1083  0.0472
  510loPI   GL2 8150   4.831  16.758   9.387 -0.3138  0.0939  0.1708
  510loPI   C1A 8151   5.300  16.345   9.071  0.0448 -0.2987 -0.3345
  510loPI   C2A 8152   5.358  16.113   8.677 -0.2905  0.1257 -0.0131
  510loPI   C3A 8153   5.081  16.230   8.330 -0.0237  0.1819 -0.1752
  510loPI   C4A 8154   4.759  16.116   7.984 -0.2130  0.1216  0.0944
  510loPI   C5A 8155   4.311  16.085   7.901  0.2949  0.0015 -0.1307
  510loPI   C6A 8156   4.016  16.274   7.709 -0.1608  0.0567  0.0786
  510loPI   C1B 8157   4.693  16.980   9.139 -0.0516 -0.0498 -0.1051
  510loPI   C2B 8158   4.507  16.871   8.830  0.4420 -0.0598 -0.0854
  510loPI   C3B 8159   4.214  16.910   8.469  0.0346 -0.2507  0.0048
  510loPI   C4B 8160   4.229  16.979   8.055 -0.2053  0.0706 -0.1257
  511loPI    C1 8161   8.401  13.453   9.828  0.2467  0.0700  0.0448
  511loPI    C2 8162   8.087  13.473  10.075 -0.1398 -0.1975 -0.4094
  511loPI    C3 8163   8.407  13.256  10.177 -0.1239  0.0205  0.0276
  511loPI   PO4 8164   8.275  13.476   9.614 -0.1363 -0.2894  0.1699
  511loPI   GL1 8165   8.392  13.278   9.351 -0.0024  0.1479  0.0457
  511loPI   GL2 8166   8.384  13.059   9.232 -0.0965 -0.2990 -0.4260
  511loPI   C1A 8167   8.301  13.444   8.944  0.0444  0.1391 -0.0636
  511loPI   C2A 8168   8.405  13.515   8.579  0.1434  0.1216  0.2521
  511loPI   C3A 8169   8.321  13.354   8.205  0.1678  0.0344 -0.0129
  511loPI   C4A 8170   8.425  13.314   7.720 -0.0586 -0.1179  0.2391
  511loPI   C5A 8171   8.339  13.056   7.317  0.0179  0.0083  0.3732
  511loPI   C6A 8172   8.216  13.308   6.990 -0.1139 -0.0997  0.1470
  511loPI   C1B 8173   8.452  13.000   8.783  0.2008 -0.0266 -0.0779
  511loPI   C2B 8174   8.505  12.964   8.423 -0.0002 -0.0539 -0.1055
  511loPI   C3B 8175   8.488  12.907   8.036  0.0987  0.4016  0.0424
  511loPI   C4B 8176   8.654  12.886   7.694 -0.1261  0.0981 -0.1299
  512loPI    C1 8177   3.056   3.179   9.255 -0.0631 -0.0333 -0.1321
  512loPI    C2 8178   2.662   3.208   9.314 -0.0520 -0.1208 -0.0128
  512loPI    C3 8179   2.899   3.074   9.607  0.0688 -0.0504 -0.0777
  512loPI   PO4 8180   2.988   3.004   8.963  0.0275  0.0140  0.0003
  512loPI   GL1 8181   3.263   3.216   8.601  0.2498  0.2022 -0.0879
  512loPI   GL2 8182   3.041   3.435   8.437  0.1164 -0.1313  0.0496
  512loPI   C1A 8183   3.180   3.154   8.095 -0.2967 -0.0769  0.4560
  512loPI   C2A 8184   3.205   3.125   7.693  0.0033 -0.0841 -0.0458
  512loPI   C3A 8185   3.114   3.343   7.275  0.2005  0.1785  0.1833
  512loPI   C4A 8186   3.009   3.552   6.823  0.0777 -0.0611  0.3033
  512loPI   C5A 8187   3.251   3.787   6.629 -0.1683  0.0977 -0.1673
  512loPI   C6A 8188   3.655   3.632   6.538  0.0244  0.0452  0.0301
  512loPI   C1B 8189   2.959   3.649   8.092 -0.0850  0.2226  0.2699
  512loPI   C2B 8190   3.065   3.681   7.638 -0.3219  0.1788 -0.0295
  512loPI   C3B 8191   2.882   3.828   7.200 -0.1477 -0.1733  0.0563
  512loPI   C4B 8192   2.811   4.123   6.860  0.1506  0.3203  0.0064
  513loPI    C1 8193  17.164   1.692   9.898 -0.0709  0.2309 -0.0119
  513loPI    C2 8194  17.289   1.980  10.145 -0.1178  0.0917  0.1764
  513loPI    C3 8195  17.239   1.608  10.282  0.4357 -0.1250 -0.1791
  513loPI   PO4 8196  16.951   1.876   9.780 -0.0324 -0.1139 -0.0955
  513loPI   GL1 8197  16.870   2.170   9.465 -0.1503  0.3541  0.0526
  513loPI   GL2 8198  17.079   2.400   9.343  0.5429 -0.3426  0.1455
  513loPI   C1A 8199  16.568   2.114   9.121 -0.1108 -0.2897  0.1130
  513loPI   C2A 8200  16.546   1.905   8.675  0.0979 -0.1287  0.2796
  513loPI   C3A 8201  16.384   1.927   8.267  0.0431  0.0205  0.3193
  513loPI   C4A 8202  16.346   1.897   7.887 -0.1792  0.2076 -0.0325
  513loPI   C5A 8203  16.508   1.955   7.475 -0.0344  0.0501 -0.3982
  513loPI   C6A 8204  16.195   1.922   7.062 -0.1977 -0.4192  0.0506
  513loPI   C1B 8205  17.216   2.477   8.921  0.1249  0.1413  0.0710
  513loPI   C2B 8206  17.142   2.698   8.504  0.0719  0.1356  0.0789
  513loPI   C3B 8207  16.972   2.648   8.065  0.0870 -0.0695 -0.1014
  513loPI   C4B 8208  17.021   2.393   7.693  0.2274 -0.2861 -0.1871
  514loPI    C1 8209  18.454  13.777  10.102  0.1908 -0.0030  0.1133
  514loPI    C2 8210  18.470  13.774  10.502  0.1901  0.3660  0.1201
  514loPI    C3 8211  18.143  13.909  10.316  0.0832 -0.0565 -0.0097
  514loPI   PO4 8212  18.690  13.991   9.975 -0.1414  0.2837 -0.1152
  514loPI   GL1 8213  18.879  14.136   9.537  0.1887  0.3181  0.1904
  514loPI   GL2 8214  19.010  14.453   9.526  0.1815 -0.3574 -0.1932
  514loPI   C1A 8215  18.775  14.181   9.124  0.1198  0.3818  0.2160
  514loPI   C2A 8216  18.623  14.265   8.699  0.1615 -0.1992  0.0564
  514loPI   C3A 8217  18.582  14.310   8.212  0.2620 -0.0828  0.0537
  514loPI   C4A 8218  18.689  14.101   7.893  0.2396 -0.1784  0.3405
  514loPI   C5A 8219  18.767  14.161   7.436  0.0766 -0.2151  0.0096
  514loPI   C6A 8220  18.874  14.070   7.034  0.1151  0.0848 -0.0929
  514loPI   C1B 8221  19.080  14.634   9.064 -0.0145  0.2371  0.0548
  514loPI   C2B 8222  19.032  14.670   8.642 -0.1301 -0.0110  0.1252
  514loPI   C3B 8223  18.970  14.542   8.212 -0.1176 -0.0044 -0.0817
  514loPI   C4B 8224  18.857  14.611   7.814 -0.3540  0.0562 -0.4877
  515loPI    C1 8225  19.306  11.021   9.916 -0.1007  0.1795  0.2840
  515loPI    C2 8226  19.528  10.906  10.228  0.0631 -0.1559  0.0506
  515loPI    C3 8227  19.302  10.638  10.034  0.0909  0.0138 -0.2201
  515loPI   PO4 8228  19.446  11.052   9.675 -0.3835 -0.2670 -0.0551
  515loPI   GL1 8229  19.494  11.265   9.291  0.2959 -0.2613 -0.0991
  515loPI   GL2 8230  19.808  11.225   9.244  0.0360 -0.0188  0.1017
  515loPI   C1A 8231  19.533  11.247   8.858 -0.0222  0.2244 -0.0112
  515loPI   C2A 8232  19.670  11.355   8.536  0.0507  0.2180 -0.0813
  515loPI   C3A 8233  19.454  11.357   8.090 -0.1506  0.4585 -0.2424
  515loPI   C4A 8234  19.501  11.345   7.627  0.2646  0.0602  0.1476
  515loPI   C5A 8235  19.570  11.791   7.318 -0.1806  0.0562 -0.0937
  515loPI   C6A 8236  19.419  12.026   7.011 -0.0789  0.4075 -0.0502
  515loPI   C1B 8237  20.041  11.457   8.921  0.1851  0.1991  0.0037
  515loPI   C2B 8238  20.169  11.485   8.575  0.4755  0.0219 -0.0049
  515loPI   C3B 8239  20.101  11.536   8.100  0.1265  0.2201  0.2538
  515loPI   C4B 8240  19.913  11.620   7.738 -0.1684  0.2323 -0.2685
  516loPI    C1 8241  11.907   9.614   9.717  0.0850 -0.1618 -0.0018
  516loPI    C2 8242  11.609   9.412   9.893 -0.1611  0.0686 -0.1469
  516loPI    C3 8243  11.662   9.801   9.972  0.1359  0.0175 -0.0829
  516loPI   PO4 8244  11.874   9.515   9.509  0.0794 -0.0635 -0.1434
  516loPI   GL1 8245  11.740   9.500   9.105  0.1902 -0.0274  0.0033
  516loPI   GL2 8246  11.407   9.668   9.019 -0.1126  0.3535 -0.4161
  516loPI   C1A 8247  11.949   9.384   8.824  0.1267  0.0017  0.1552
  516loPI   C2A 8248  11.989   9.606   8.414  0.0049 -0.2987 -0.0490
  516loPI   C3A 8249  12.065   9.821   8.087  0.0697 -0.0417  0.3466
  516loPI   C4A 8250  12.126  10.000   7.724  0.1202 -0.0514 -0.0750
  516loPI   C5A 8251  12.265  10.094   7.315 -0.1752  0.1407  0.3196
  516loPI   C6A 8252  12.692  10.163   7.361 -0.0118 -0.1331 -0.0901
  516loPI   C1B 8253  11.008   9.721   8.784  0.1417 -0.1417  0.2155
  516loPI   C2B 8254  11.042   9.877   8.386 -0.0186 -0.0757  0.0394
  516loPI   C3B 8255  11.045   9.806   8.013 -0.1214 -0.0759 -0.3311
  516loPI   C4B 8256  11.456   9.740   7.711 -0.2081  0.3233  0.3344
  517loPI    C1 8257   6.827   4.245   8.990  0.0924  0.0843  0.0661
  517loPI    C2 8258   6.754   4.038   9.324 -0.0181 -0.2609 -0.1656
  517loPI    C3 8259   6.847   4.427   9.345 -0.3279 -0.2021  0.2442
  517loPI   PO4 8260   6.773   4.080   8.747 -0.2379  0.0102 -0.2093
  517loPI   GL1 8261   6.540   4.147   8.332  0.0677 -0.2097 -0.0117
  517loPI   GL2 8262   6.635   3.830   8.261 -0.1256  0.0899 -0.2090
  517loPI   C1A 8263   6.717   4.151   7.915  0.0946  0.1987  0.0310
  517loPI   C2A 8264   6.784   4.162   7.506  0.0818  0.0545 -0.0280
  517loPI   C3A 8265   6.725   4.069   7.190  0.1027  0.1574  0.1343
  517loPI   C4A 8266   6.521   4.280   6.792  0.0011  0.0691 -0.1072
  517loPI   C5A 8267   6.205   4.388   6.521  0.3158 -0.0628  0.3457
  517loPI   C6A 8268   5.812   4.307   6.483 -0.0024 -0.1436 -0.0484
  517loPI   C1B 8269   6.423   3.716   7.978  0.3264  0.0408  0.0441
  517loPI   C2B 8270   6.535   3.717   7.525  0.2293  0.2267 -0.2735
  517loPI   C3B 8271   6.312   3.700   7.074  0.2423  0.1341  0.1190
  517loPI   C4B 8272   6.484   3.687   6.738 -0.1507 -0.5009  0.1462
  518loPI    C1 8273  19.158  13.710  10.127 -0.0118 -0.1452 -0.0121
  518loPI    C2 8274  18.923  13.428   9.968 -0.1866 -0.0010 -0.0126
  518loPI    C3 8275  18.908  13.503  10.360  0.1030 -0.2218  0.0443
  518loPI   PO4 8276  19.275  13.861   9.895  0.1401  0.1931  0.1197
  518loPI   GL1 8277  19.263  13.758   9.505 -0.0609  0.0471  0.2214
  518loPI   GL2 8278  19.122  13.497   9.425 -0.4139  0.1715  0.3119
  518loPI   C1A 8279  19.519  13.770   9.116 -0.0648  0.0680 -0.0973
  518loPI   C2A 8280  19.498  13.618   8.659  0.1670 -0.2044  0.2042
  518loPI   C3A 8281  19.250  13.710   8.336 -0.0757 -0.0796 -0.0171
  518loPI   C4A 8282  18.887  13.597   8.168  0.2205  0.1150 -0.3014
  518loPI   C5A 8283  18.576  13.591   7.790  0.2060 -0.1157 -0.1590
  518loPI   C6A 8284  18.435  13.310   7.463  0.1743  0.3488 -0.0773
  518loPI   C1B 8285  18.948  13.694   9.076  0.0171 -0.1102  0.1194
  518loPI   C2B 8286  18.383  13.878   9.128 -0.0794 -0.2254 -0.2316
  518loPI   C3B 8287  18.202  14.173   8.924  0.2231 -0.0329 -0.1592
  518loPI   C4B 8288  18.151  14.232   8.511 -0.1766  0.1473  0.3156
  519loPI    C1 8289  13.399  14.270  10.250  0.1214  0.1528  0.2962
  519loPI    C2 8290  13.170  14.089  10.524 -0.0530  0.0093  0.0591
  519loPI    C3 8291  13.567  14.038  10.529 -0.0479  0.0639  0.3252
  519loPI   PO4 8292  13.224  14.279  10.049 -0.0734 -0.0873 -0.3018
  519loPI   GL1 8293  13.173  14.204   9.716 -0.0415  0.1961 -0.2396
  519loPI   GL2 8294  13.225  13.907   9.588  0.0049 -0.0768  0.0991
  519loPI   C1A 8295  12.993  14.349   9.411 -0.1026 -0.0615 -0.2587
  519loPI   C2A 8296  13.084  14.561   8.995 -0.0064 -0.1390  0.2343
  519loPI   C3A 8297  13.019  14.465   8.530 -0.0762  0.1938  0.0846
  519loPI   C4A 8298  13.076  14.325   8.143 -0.0959  0.0900  0.0186
  519loPI   C5A 8299  13.279  14.157   7.828  0.0215  0.3294 -0.3980
  519loPI   C6A 8300  13.654  14.356   7.757  0.0876 -0.0049  0.0724
  519loPI   C1B 8301  13.189  13.951   9.131 -0.5174 -0.3017 -0.1023
  519loPI   C2B 8302  13.102  14.058   8.738 -0.0463  0.0900  0.1430
  519loPI   C3B 8303  13.374  14.016   8.497 -0.0371 -0.1088  0.0447
  519loPI   C4B 8304  13.356  13.800   8.223 -0.2033  0.2954  0.1847
  520loPI    C1 8305   9.268   5.495   9.181 -0.0339  0.0706 -0.1674
  520loPI    C2 8306   9.213   5.885   9.253  0.2480  0.1269 -0.2457
  520loPI    C3 8307   9.404   5.657   9.520  0.0430  0.0307 -0.1791
  520loPI   PO4 8308   9.356   5.487   8.879  0.1410 -0.0342 -0.0786
  520loPI   GL1 8309   9.584   5.572   8.502  0.0351  0.4526  0.2280
  520loPI   GL2 8310   9.643   5.904   8.408 -0.3357  0.0642 -0.1008
  520loPI   C1A 8311   9.638   5.502   8.057  0.0559  0.1032 -0.2053
  520loPI   C2A 8312   9.675   5.523   7.620  0.1477  0.1232  0.1899
  520loPI   C3A 8313   9.893   5.635   7.284  0.0160  0.2858 -0.0823
  520loPI   C4A 8314  10.129   5.469   6.970  0.1359 -0.2634 -0.0989
  520loPI   C5A 8315  10.287   5.755   6.664  0.0880 -0.0132 -0.2389
  520loPI   C6A 8316  10.457   5.930   6.235  0.0800 -0.0300 -0.3429
  520loPI   C1B 8317   9.546   5.998   7.915 -0.0306 -0.2096 -0.1288
  520loPI   C2B 8318   9.643   6.048   7.571  0.2107 -0.0374  0.2904
  520loPI   C3B 8319   9.735   6.387   7.315  0.1151 -0.3685 -0.0109
  520loPI   C4B 8320   9.798   6.253   6.846 -0.3148  0.1933 -0.0462
  521loPI    C1 8321  10.248   5.017   9.074 -0.1018 -0.1684  0.1851
  521loPI    C2 8322  10.635   4.915   9.062 -0.0501  0.0406 -0.0187
  521loPI    C3 8323  10.449   4.956   9.414  0.1054 -0.0856  0.0795
  521loPI   PO4 8324  10.174   5.038   8.899 -0.1920 -0.0074  0.1181
  521loPI   GL1 8325  10.411   4.838   8.585 -0.1501 -0.1091  0.0424
  521loPI   GL2 8326  10.414   4.485   8.407 -0.2178 -0.0280  0.1546
  521loPI   C1A 8327  10.503   5.033   8.211 -0.1535  0.0242 -0.2562
  521loPI   C2A 8328  10.685   5.126   7.717 -0.0436 -0.0996  0.1109
  521loPI   C3A 8329  10.863   5.145   7.439 -0.0714  0.1584  0.0434
  521loPI   C4A 8330  11.127   5.272   7.050 -0.1683  0.0581  0.2579
  521loPI   C5A 8331  11.085   5.590   6.911  0.1409  0.0608  0.3278
  521loPI   C6A 8332  11.168   6.048   6.886 -0.0039 -0.0570 -0.3872
  521loPI   C1B 8333  10.562   4.554   8.012 -0.0627 -0.0131 -0.0620
  521loPI   C2B 8334  10.687   4.580   7.643 -0.2242 -0.1455 -0.0975
  521loPI   C3B 8335  10.985   4.649   7.308  0.0263  0.1606  0.0450
  521loPI   C4B 8336  10.869   4.841   6.915 -0.0367  0.0829  0.1429
  522loPI    C1 8337   8.585   4.850   8.942 -0.1368  0.1539  0.0515
  522loPI    C2 8338   8.354   4.610   9.162 -0.1182  0.0397 -0.0528
  522loPI    C3 8339   8.488   4.953   9.317 -0.2657  0.0539  0.0463
  522loPI   PO4 8340   8.428   4.824   8.674 -0.1550 -0.0903  0.1349
  522loPI   GL1 8341   8.218   4.769   8.356 -0.0070 -0.3669  0.1596
  522loPI   GL2 8342   8.193   4.473   8.260  0.0206 -0.1854 -0.1551
  522loPI   C1A 8343   8.303   4.945   7.906 -0.0878  0.0155 -0.1320
  522loPI   C2A 8344   8.339   4.840   7.582  0.0476 -0.2690  0.2226
  522loPI   C3A 8345   7.948   4.984   7.375  0.1758 -0.0101  0.0604
  522loPI   C4A 8346   7.828   5.261   7.081 -0.3771 -0.0487  0.0341
  522loPI   C5A 8347   7.791   5.182   6.655  0.0989 -0.3316  0.5359
  522loPI   C6A 8348   7.935   5.246   6.269  0.0617  0.0927 -0.1884
  522loPI   C1B 8349   8.192   4.472   7.878 -0.1678  0.1620  0.2895
  522loPI   C2B 8350   8.096   4.457   7.406  0.1286  0.0012  0.1453
  522loPI   C3B 8351   8.209   4.408   7.006  0.2513 -0.0180  0.0631
  522loPI   C4B 8352   8.314   4.209   6.679  0.0558  0.0811  0.2950
  523loPI    C1 8353   5.035   3.391   8.874  0.1200 -0.3119  0.2462
  523loPI    C2 8354   4.943   3.514   9.243 -0.1858 -0.2756  0.1610
  523loPI    C3 8355   4.719   3.236   9.064 -0.1722 -0.1334 -0.0813
  523loPI   PO4 8356   5.300   3.300   8.881  0.0935  0.0601  0.0894
  523loPI   GL1 8357   5.304   2.942   8.614  0.4521  0.2265  0.0861
  523loPI   GL2 8358   4.943   2.938   8.704  0.3664 -0.3117 -0.1053
  523loPI   C1A 8359   5.171   2.696   8.201  0.2541 -0.3505 -0.1250
  523loPI   C2A 8360   5.000   2.785   7.839 -0.2076 -0.1125  0.2719
  523loPI   C3A 8361   5.019   2.608   7.478 -0.1320 -0.0297  0.4023
  523loPI   C4A 8362   4.875   2.654   7.102 -0.1920  0.0870  0.1323
  523loPI   C5A 8363   4.809   2.611   6.666 -0.0960  0.0205 -0.2654
  523loPI   C6A 8364   4.637   2.577   6.334  0.0308  0.4416  0.4932
  523loPI   C1B 8365   4.890   3.105   8.289  0.4109  0.0393  0.1902
  523loPI   C2B 8366   4.757   3.192   7.914 -0.1535 -0.1344 -0.1362
  523loPI   C3B 8367   4.655   3.150   7.576  0.0195 -0.0069 -0.0331
  523loPI   C4B 8368   4.604   3.084   7.103 -0.2848 -0.1827  0.0830
  524loPI    C1 8369  10.591   6.240   9.286  0.1032  0.0320  0.0270
  524loPI    C2 8370  10.402   5.925   9.444  0.2418 -0.0529  0.0255
  524loPI    C3 8371  10.460   6.254   9.663  0.2980 -0.1134  0.1019
  524loPI   PO4 8372  10.825   6.166   9.150 -0.0628 -0.2750  0.3268
  524loPI   GL1 8373  11.092   6.198   8.829 -0.0907 -0.0490 -0.1781
  524loPI   GL2 8374  11.117   6.459   8.627 -0.1171 -0.0039 -0.1990
  524loPI   C1A 8375  11.343   5.997   8.498  0.0073 -0.0323 -0.0054
  524loPI   C2A 8376  11.468   6.180   8.093  0.2682 -0.1957 -0.1340
  524loPI   C3A 8377  11.391   6.447   7.896 -0.1559 -0.0978 -0.1239
  524loPI   C4A 8378  11.668   6.577   7.705  0.2101  0.2913  0.0923
  524loPI   C5A 8379  11.581   6.800   7.346  0.0346 -0.2863  0.1867
  524loPI   C6A 8380  11.678   6.995   6.944  0.0480  0.1180  0.0984
  524loPI   C1B 8381  10.956   6.337   8.154  0.1151 -0.1295 -0.0254
  524loPI   C2B 8382  10.848   6.401   7.866 -0.4259 -0.3819  0.0560
  524loPI   C3B 8383  11.071   6.522   7.510 -0.0765 -0.2448 -0.2318
  524loPI   C4B 8384  11.325   6.319   7.313  0.2335 -0.1528 -0.0537
  525loPI    C1 8385   9.022  15.516   9.593 -0.0159 -0.0573 -0.2238
  525loPI    C2 8386   8.708  15.276   9.653  0.1741 -0.2950 -0.1611
  525loPI    C3 8387   8.909  15.423   9.966  0.1478 -0.1713 -0.2016
  525loPI   PO4 8388   9.013  15.531   9.254 -0.1476  0.1333  0.2271
  525loPI   GL1 8389   8.952  15.290   8.998  0.1265 -0.3222  0.0806
  525loPI   GL2 8390   8.639  15.136   9.169  0.0846 -0.1235  0.0838
  525loPI   C1A 8391   9.078  15.413   8.530 -0.1533  0.0518 -0.1328
  525loPI   C2A 8392   9.065  15.758   8.243  0.1374 -0.0869 -0.0472
  525loPI   C3A 8393   8.882  15.919   7.963 -0.0567 -0.2644 -0.1994
  525loPI   C4A 8394   8.646  16.115   7.539 -0.1178  0.0750 -0.0191
  525loPI   C5A 8395   8.984  15.883   7.420  0.1592  0.1191  0.1670
  525loPI   C6A 8396   9.350  15.840   7.134  0.0755 -0.0962  0.1450
  525loPI   C1B 8397   8.521  15.278   8.750  0.0905 -0.1318 -0.0789
  525loPI   C2B 8398   8.490  15.270   8.320  0.0286  0.1150 -0.1145
  525loPI   C3B 8399   8.775  15.359   8.097  0.0918 -0.1292  0.0671
  525loPI   C4B 8400   8.725  15.555   7.697  0.2629 -0.1713  0.0532
  526loPI    C1 8401   6.239   4.430   8.951  0.2523  0.0997 -0.1826
  526loPI    C2 8402   6.326   4.089   9.141 -0.0179  0.0443 -0.1544
  526loPI    C3 8403   6.381   4.439   9.325  0.0729  0.0075 -0.1109
  526loPI   PO4 8404   6.204   4.292   8.720  0.1425  0.0342  0.3036
  526loPI   GL1 8405   5.742   4.240   8.558  0.1923 -0.0950  0.2686
  526loPI   GL2 8406   5.402   4.306   8.471 -0.3244 -0.0741 -0.1718
  526loPI   C1A 8407   5.749   4.232   8.014  0.2205 -0.1209 -0.2612
  526loPI   C2A 8408   5.648   4.149   7.637 -0.2074  0.2338 -0.0076
  526loPI   C3A 8409   5.509   4.130   7.216 -0.0808 -0.0663  0.1014
  526loPI   C4A 8410   5.548   4.023   6.822 -0.1438 -0.0789 -0.3124
  526loPI   C5A 8411   5.504   3.849   6.472 -0.2449  0.2240 -0.0933
  526loPI   C6A 8412   5.328   3.900   6.140 -0.0371  0.0535 -0.0094
  526loPI   C1B 8413   5.244   4.198   8.086 -0.3781  0.3805  0.0249
  526loPI   C2B 8414   5.081   4.086   7.718  0.0744  0.1842  0.0543
  526loPI   C3B 8415   4.933   4.075   7.313  0.3098  0.1033 -0.1812
  526loPI   C4B 8416   4.963   3.924   6.911 -0.1004  0.0385  0.4669
  527loPI    C1 8417  13.639  13.245  10.303  0.1182  0.1579 -0.2733
  527loPI    C2 8418  13.272  13.185  10.451  0.2440 -0.3190 -0.1384
  527loPI    C3 8419  13.442  13.546  10.478 -0.1273 -0.1493 -0.0082
  527loPI   PO4 8420  13.612  13.178  10.111 -0.0125  0.0940 -0.1220
  527loPI   GL1 8421  13.326  13.353   9.725  0.2094 -0.0695 -0.1149
  527loPI   GL2 8422  13.651  13.457   9.655  0.0147 -0.1311 -0.0255
  527loPI   C1A 8423  13.102  13.518   9.369  0.3083  0.1878 -0.1417
  527loPI   C2A 8424  13.178  13.503   8.899  0.1444 -0.2502 -0.1065
  527loPI   C3A 8425  13.019  13.576   8.528 -0.1092  0.1297  0.3856
  527loPI   C4A 8426  12.757  13.506   8.128  0.0195 -0.0683  0.1713
  527loPI   C5A 8427  12.455  13.443   7.822 -0.2738  0.1760  0.0375
  527loPI   C6A 8428  12.266  13.484   7.467 -0.0361  0.1433 -0.2556
  527loPI   C1B 8429  13.652  13.358   9.132  0.1389  0.3283 -0.1424
  527loPI   C2B 8430  13.595  13.251   8.879  0.1117 -0.2962  0.0596
  527loPI   C3B 8431  13.175  13.094   8.602 -0.0005 -0.2856  0.1336
  527loPI   C4B 8432  12.704  13.144   8.468  0.1483 -0.0127  0.1460
  528loPI    C1 8433   0.235  19.095  10.165  0.0517 -0.0783  0.0380
  528loPI    C2 8434   0.624  19.057  10.249  0.0637 -0.1276 -0.0379
  528loPI    C3 8435   0.354  19.054  10.544  0.0926 -0.4548 -0.0117
  528loPI   PO4 8436   0.139  19.338   9.909 -0.1752 -0.0642 -0.0704
  528loPI   GL1 8437   0.234  19.286   9.465  0.0821  0.4290 -0.1111
  528loPI   GL2 8438  -0.027  19.083   9.384 -0.1985 -0.1247 -0.2102
  528loPI   C1A 8439   0.249  19.141   8.999 -0.3003  0.0355  0.1519
  528loPI   C2A 8440   0.315  19.015   8.637  0.1850 -0.0979  0.1591
  528loPI   C3A 8441   0.116  18.924   8.354 -0.1270  0.2385 -0.0358
  528loPI   C4A 8442  -0.221  18.923   8.133  0.1640 -0.2214  0.3283
  528loPI   C5A 8443  -0.585  19.060   7.829  0.4059 -0.0091  0.1671
  528loPI   C6A 8444  -0.643  18.794   7.465  0.0386  0.0034  0.2177
  528loPI   C1B 8445  -0.209  18.981   8.980  0.0170 -0.2475  0.1938
  528loPI   C2B 8446  -0.357  18.871   8.597  0.2264  0.0766  0.1888
  528loPI   C3B 8447  -0.487  18.573   8.347 -0.0138  0.1184  0.0377
  528loPI   C4B 8448  -0.546  18.548   7.975  0.1741  0.1765  0.1101
  529loPI    C1 8449  14.556   8.181   9.922 -0.0214 -0.0105 -0.2331
  529loPI    C2 8450  14.364   7.879  10.100  0.0215  0.0163 -0.1404
  529loPI    C3 8451  14.697   8.028  10.264  0.1296 -0.0388 -0.3069
  529loPI   PO4 8452  14.487   8.098   9.622  0.1515  0.2527  0.0388
  529loPI   GL1 8453  14.656   8.168   9.126 -0.1405  0.2822 -0.0179
  529loPI   GL2 8454  14.859   8.270   8.976 -0.0619 -0.0827  0.2855
  529loPI   C1A 8455  14.249   7.984   8.901  0.0073  0.0397 -0.3458
  529loPI   C2A 8456  14.085   8.020   8.555 -0.1480  0.1539 -0.0276
  529loPI   C3A 8457  14.002   8.138   8.132 -0.1397  0.2309  0.0403
  529loPI   C4A 8458  13.906   8.190   7.752 -0.0985  0.0606  0.1357
  529loPI   C5A 8459  13.532   8.151   7.357  0.0968  0.0141  0.0584
  529loPI   C6A 8460  13.494   7.895   7.038 -0.0215 -0.3972  0.1304
  529loPI   C1B 8461  14.800   8.230   8.489 -0.2090  0.2818  0.0858
  529loPI   C2B 8462  14.665   8.109   8.076  0.0746 -0.0024 -0.2737
  529loPI   C3B 8463  14.445   8.175   7.765 -0.2530  0.1718 -0.0381
  529loPI   C4B 8464  14.594   7.976   7.459  0.0609 -0.2367  0.3062
  530loPI    C1 8465  12.060  14.669  10.241  0.0723 -0.1639 -0.0448
  530loPI    C2 8466  11.726  14.794  10.060  0.0356 -0.0136  0.1234
  530loPI    C3 8467  11.805  14.910  10.434  0.1809 -0.2061  0.1538
  530loPI   PO4 8468  12.208  14.592   9.977 -0.1078  0.1657 -0.1212
  530loPI   GL1 8469  12.053  14.763   9.606 -0.1653  0.1038 -0.6224
  530loPI   GL2 8470  12.379  14.617   9.480 -0.0523  0.0138  0.2131
  530loPI   C1A 8471  12.117  14.789   9.131  0.0887  0.2821  0.2120
  530loPI   C2A 8472  11.995  14.671   8.727 -0.1614 -0.2379  0.1921
  530loPI   C3A 8473  11.917  14.576   8.387  0.0871  0.0352  0.1852
  530loPI   C4A 8474  11.950  14.311   8.103  0.0525  0.1250  0.0033
  530loPI   C5A 8475  11.782  14.326   7.726 -0.0105 -0.0174  0.2163
  530loPI   C6A 8476  11.528  14.552   7.453  0.2834  0.1456  0.1323
  530loPI   C1B 8477  12.584  14.562   9.099  0.0387  0.1506  0.1781
  530loPI   C2B 8478  12.449  14.558   8.662 -0.1172 -0.3052 -0.1129
  530loPI   C3B 8479  12.567  14.365   8.312 -0.1994 -0.1875  0.0943
  530loPI   C4B 8480  12.465  14.354   7.895  0.0395 -0.1070 -0.0449
  531loPI    C1 8481  18.692  12.593  10.081  0.0759  0.0793 -0.1124
  531loPI    C2 8482  18.561  12.222  10.014  0.3853 -0.0564  0.0140
  531loPI    C3 8483  18.620  12.348  10.389  0.1786  0.1591 -0.0239
  531loPI   PO4 8484  18.599  12.776   9.901 -0.4263 -0.0570 -0.1530
  531loPI   GL1 8485  18.322  12.681   9.569  0.2210  0.3058  0.0087
  531loPI   GL2 8486  18.001  12.709   9.442 -0.1117 -0.2016 -0.1078
  531loPI   C1A 8487  18.505  12.823   9.236  0.2610  0.0628  0.0322
  531loPI   C2A 8488  18.414  12.996   8.792 -0.2795  0.4421  0.0432
  531loPI   C3A 8489  18.504  12.853   8.442  0.1119 -0.0380 -0.0710
  531loPI   C4A 8490  18.616  13.055   8.068 -0.0362  0.1944  0.0014
  531loPI   C5A 8491  18.887  13.126   7.655  0.0467 -0.2592  0.2810
  531loPI   C6A 8492  18.932  13.517   7.392 -0.1159 -0.0070  0.1201
  531loPI   C1B 8493  18.140  12.473   9.029 -0.1140 -0.2978 -0.4150
  531loPI   C2B 8494  18.076  12.589   8.535 -0.0801 -0.0407  0.1226
  531loPI   C3B 8495  17.937  12.778   8.187 -0.1928 -0.1658 -0.1546
  531loPI   C4B 8496  18.107  12.987   7.859 -0.1698  0.0414 -0.0442
  532loPI    C1 8497   0.347   3.414   9.593 -0.0185  0.0244  0.0667
  532loPI    C2 8498   0.374   3.015   9.578 -0.0313  0.0268 -0.0259
  532loPI    C3 8499   0.473   3.210   9.913  0.2131 -0.0347 -0.0603
  532loPI   PO4 8500   0.174   3.477   9.455 -0.0534 -0.1372  0.1198
  532loPI   GL1 8501   0.175   3.328   9.093 -0.1290  0.0363 -0.1536
  532loPI   GL2 8502   0.108   2.965   9.062 -0.1477  0.2983  0.1353
  532loPI   C1A 8503   0.462   3.265   8.887  0.1035  0.1429  0.1011
  532loPI   C2A 8504   0.551   3.272   8.422 -0.2706  0.3811 -0.1362
  532loPI   C3A 8505   0.469   3.210   8.020 -0.2893 -0.1342  0.0342
  532loPI   C4A 8506   0.415   3.103   7.595  0.1425 -0.1535  0.2812
  532loPI   C5A 8507   0.490   2.848   7.303 -0.0767  0.1431  0.2321
  532loPI   C6A 8508   0.652   2.795   6.848  0.0765 -0.0440  0.3239
  532loPI   C1B 8509   0.009   2.851   8.763  0.0586  0.3724  0.1375
  532loPI   C2B 8510   0.064   3.197   8.559  0.0511  0.0351 -0.1127
  532loPI   C3B 8511  -0.222   3.330   8.263 -0.0556 -0.0592 -0.2058
  532loPI   C4B 8512  -0.597   3.570   7.916 -0.3774 -0.0949  0.0632
  533loPI    C1 8513   7.475  16.521   9.755 -0.0134  0.0728  0.0020
  533loPI    C2 8514   7.697  16.647  10.063  0.1887 -0.2813  0.0057
  533loPI    C3 8515   7.428  16.355  10.115 -0.2648  0.1218 -0.0062
  533loPI   PO4 8516   7.512  16.698   9.597 -0.1306 -0.2445 -0.0087
  533loPI   GL1 8517   7.277  16.985   9.313 -0.0337  0.2431 -0.5070
  533loPI   GL2 8518   7.130  17.256   9.074  0.0719  0.0062  0.2753
  533loPI   C1A 8519   7.307  16.757   8.899  0.0275 -0.2700 -0.2009
  533loPI   C2A 8520   7.202  16.582   8.576  0.0817 -0.0130 -0.0171
  533loPI   C3A 8521   7.023  16.763   8.173  0.0530  0.1118 -0.2119
  533loPI   C4A 8522   7.195  16.638   7.801 -0.1609 -0.0272 -0.2753
  533loPI   C5A 8523   7.304  16.335   7.565 -0.0743 -0.0057 -0.0009
  533loPI   C6A 8524   7.386  16.156   7.173  0.1979 -0.0525  0.0517
  533loPI   C1B 8525   7.329  17.190   8.677 -0.0400  0.2244 -0.0380
  533loPI   C2B 8526   7.393  16.981   8.355  0.1817 -0.0548 -0.3147
  533loPI   C3B 8527   7.617  16.788   8.107 -0.4632  0.0243  0.0734
  533loPI   C4B 8528   7.603  16.861   7.761  0.1883  0.1961  0.1662
  534loPI    C1 8529   3.836   1.961   9.256  0.0426  0.3142  0.1211
  534loPI    C2 8530   4.062   1.983   9.586  0.1926 -0.0049  0.0429
  534loPI    C3 8531   3.673   1.894   9.615  0.2598 -0.2857  0.1188
  534loPI   PO4 8532   4.047   2.002   9.074 -0.1516  0.2811 -0.3130
  534loPI   GL1 8533   3.951   1.944   8.672 -0.0858 -0.0138  0.2611
  534loPI   GL2 8534   3.653   1.928   8.624 -0.0636 -0.0984 -0.1018
  534loPI   C1A 8535   3.893   1.927   8.164 -0.0990 -0.1309 -0.1063
  534loPI   C2A 8536   3.906   1.801   7.848  0.0592  0.3767  0.0394
  534loPI   C3A 8537   3.927   1.924   7.509 -0.3510  0.1572 -0.2206
  534loPI   C4A 8538   3.900   1.989   7.138  0.0313  0.2401 -0.2466
  534loPI   C5A 8539   3.887   1.915   6.690 -0.0118 -0.0865  0.0795
  534loPI   C6A 8540   3.912   1.847   6.188 -0.1731 -0.1287 -0.0201
  534loPI   C1B 8541   3.242   1.835   8.675  0.3286 -0.4211  0.0483
  534loPI   C2B 8542   2.951   1.753   8.345 -0.1972 -0.3683 -0.3760
  534loPI   C3B 8543   2.661   1.766   7.965 -0.0412  0.2019 -0.0107
  534loPI   C4B 8544   2.544   1.803   7.523 -0.0480 -0.1877  0.0479
  535loPI    C1 8545   8.945  11.864  10.340  0.0566 -0.2668 -0.1460
  535loPI    C2 8546   8.732  11.532  10.405  0.0076 -0.2368 -0.1538
  535loPI    C3 8547   9.042  11.620  10.642 -0.1799 -0.1203  0.0527
  535loPI   PO4 8548   8.956  11.865  10.038 -0.2888 -0.0494 -0.1362
  535loPI   GL1 8549   8.793  12.095   9.731  0.0864 -0.2604  0.0962
  535loPI   GL2 8550   8.496  11.941   9.549  0.1192  0.0257 -0.3341
  535loPI   C1A 8551   8.858  12.223   9.303 -0.2188 -0.1249  0.4519
  535loPI   C2A 8552   8.787  12.163   8.874  0.2590 -0.1257 -0.0986
  535loPI   C3A 8553   8.757  11.976   8.435  0.0918 -0.0294  0.1853
  535loPI   C4A 8554   8.733  11.863   7.992  0.0733  0.0420  0.1668
  535loPI   C5A 8555   8.578  11.620   7.632 -0.3137 -0.0378 -0.1832
  535loPI   C6A 8556   8.487  11.815   7.360  0.3168 -0.0153 -0.0682
  535loPI   C1B 8557   8.121  11.968   9.179 -0.0522  0.0237 -0.3061
  535loPI   C2B 8558   7.859  11.838   8.928 -0.1914 -0.0926 -0.0358
  535loPI   C3B 8559   7.907  11.820   8.511  0.1161 -0.1158  0.0203
  535loPI   C4B 8560   7.684  11.883   8.065 -0.1006 -0.3176 -0.1314
  536loPI    C1 8561  11.056  11.469  10.105 -0.0757  0.0258 -0.0549
  536loPI    C2 8562  10.689  11.518  10.255 -0.0652  0.0428 -0.0351
  536loPI    C3 8563  10.925  11.228  10.395  0.0087  0.1682  0.1031
  536loPI   PO4 8564  10.998  11.479   9.825 -0.1033  0.0074 -0.0610
  536loPI   GL1 8565  11.032  11.583   9.467 -0.0771  0.2998 -0.0409
  536loPI   GL2 8566  11.145  11.892   9.357 -0.0382 -0.0631  0.0475
  536loPI   C1A 8567  11.223  11.261   9.235  0.1591  0.2460 -0.0766
  536loPI   C2A 8568  11.311  11.264   8.833  0.1773 -0.2851 -0.2197
  536loPI   C3A 8569  11.271  11.399   8.336 -0.1277  0.0101 -0.0638
  536loPI   C4A 8570  11.147  11.537   7.944  0.1233  0.0146 -0.0523
  536loPI   C5A 8571  11.161  11.962   7.694 -0.0362  0.0230  0.2832
  536loPI   C6A 8572  11.370  12.426   7.524  0.0530  0.0163 -0.1970
  536loPI   C1B 8573  11.235  11.755   9.041  0.0193  0.2506  0.2359
  536loPI   C2B 8574  11.355  11.791   8.681 -0.0579  0.2803 -0.2914
  536loPI   C3B 8575  11.482  11.854   8.257  0.1085  0.1160 -0.1579
  536loPI   C4B 8576  11.613  11.807   7.798 -0.2240 -0.1018  0.0574
  537loPI    C1 8577  12.447  14.208  10.179 -0.1870  0.2381  0.1302
  537loPI    C2 8578  12.675  14.349   9.882 -0.1217  0.0621  0.0954
  537loPI    C3 8579  12.801  14.376  10.260  0.0154 -0.1470  0.0657
  537loPI   PO4 8580  12.314  14.037   9.977  0.4487  0.1155 -0.0773
  537loPI   GL1 8581  12.266  14.129   9.622  0.0014 -0.2698 -0.1661
  537loPI   GL2 8582  12.531  14.151   9.418  0.0261  0.2368  0.2714
  537loPI   C1A 8583  12.113  13.842   9.376 -0.0482 -0.0532 -0.0110
  537loPI   C2A 8584  12.167  13.445   9.126 -0.2595  0.1553 -0.0140
  537loPI   C3A 8585  12.001  13.510   8.832  0.1082 -0.0910 -0.1144
  537loPI   C4A 8586  11.779  13.279   8.574  0.0904  0.0153  0.0996
  537loPI   C5A 8587  11.650  12.979   8.256  0.1768  0.1481 -0.0799
  537loPI   C6A 8588  11.690  12.900   7.905  0.1042 -0.1395  0.0023
  537loPI   C1B 8589  12.685  14.124   9.032 -0.2640 -0.2854 -0.1843
  537loPI   C2B 8590  12.602  14.043   8.704  0.2006 -0.1088 -0.1148
  537loPI   C3B 8591  12.827  13.955   8.322  0.0491  0.0026  0.0978
  537loPI   C4B 8592  12.815  13.955   7.868 -0.0145  0.0809  0.0619
  538loPI    C1 8593  13.056   0.485  10.296 -0.2202 -0.2823 -0.2283
  538loPI    C2 8594  13.341   0.272  10.479 -0.3738 -0.2194  0.0907
  538loPI    C3 8595  13.341   0.671  10.505 -0.3285 -0.2023 -0.1507
  538loPI   PO4 8596  13.084   0.374  10.019  0.1388 -0.0308  0.1479
  538loPI   GL1 8597  13.166   0.539   9.592  0.1052 -0.1794  0.1494
  538loPI   GL2 8598  13.105   0.275   9.459  0.2462 -0.0338 -0.1396
  538loPI   C1A 8599  13.297   0.615   9.185  0.0344 -0.1324 -0.2864
  538loPI   C2A 8600  13.186   0.618   8.698  0.0282 -0.0853 -0.1807
  538loPI   C3A 8601  13.368   0.551   8.313  0.0407  0.0690  0.1592
  538loPI   C4A 8602  13.446   0.623   7.822  0.1429  0.0618  0.0193
  538loPI   C5A 8603  13.749   0.785   7.599  0.1451  0.0190 -0.0338
  538loPI   C6A 8604  14.104   0.636   7.350 -0.2483  0.2386  0.1269
  538loPI   C1B 8605  13.107   0.174   9.019 -0.1578 -0.2257 -0.1484
  538loPI   C2B 8606  12.923   0.276   8.530 -0.1477 -0.0445  0.0445
  538loPI   C3B 8607  12.689   0.414   8.217  0.2287 -0.1477 -0.0916
  538loPI   C4B 8608  12.420   0.799   8.036  0.0503  0.3006 -0.2352
  539loPI    C1 8609  10.626   3.509   8.933  0.0284  0.0640 -0.1042
  539loPI    C2 8610  10.722   3.819   9.167 -0.2830 -0.0368  0.1633
  539loPI    C3 8611  10.817   3.446   9.279 -0.3289 -0.0763  0.0716
  539loPI   PO4 8612  10.417   3.497   8.953 -0.1526  0.1752  0.1028
  539loPI   GL1 8613  10.203   3.585   8.576 -0.0756 -0.0942 -0.2442
  539loPI   GL2 8614  10.462   3.404   8.484 -0.0510 -0.1886  0.0633
  539loPI   C1A 8615  10.106   3.574   8.155 -0.0296 -0.0470  0.1118
  539loPI   C2A 8616  10.088   3.602   7.661  0.0169  0.0118 -0.0892
  539loPI   C3A 8617  10.332   3.635   7.284 -0.0324  0.2187 -0.1225
  539loPI   C4A 8618  10.599   3.777   6.972 -0.1684 -0.0365 -0.1934
  539loPI   C5A 8619  10.670   4.170   6.664  0.0654 -0.1769  0.1402
  539loPI   C6A 8620  10.689   4.628   6.501 -0.1603  0.0917 -0.0194
  539loPI   C1B 8621  10.450   3.241   8.103 -0.0368 -0.0658  0.1242
  539loPI   C2B 8622  10.478   3.273   7.716  0.3471 -0.2388  0.2297
  539loPI   C3B 8623  10.628   3.191   7.277  0.1237 -0.0644 -0.1164
  539loPI   C4B 8624  10.652   3.214   6.862 -0.0033 -0.2030  0.1061
  540loPI    C1 8625   5.807   5.281   8.678 -0.0135  0.0733 -0.0482
  540loPI    C2 8626   5.789   5.618   8.463  0.1667 -0.0267 -0.2228
  540loPI    C3 8627   5.918   5.629   8.841  0.0204  0.1230 -0.1763
  540loPI   PO4 8628   5.564   5.187   8.551  0.0811 -0.2998 -0.0493
  540loPI   GL1 8629   5.370   5.206   8.160 -0.1590 -0.2021  0.0570
  540loPI   GL2 8630   4.961   5.181   8.219 -0.1823  0.1464 -0.0769
  540loPI   C1A 8631   5.476   5.086   7.911  0.1693 -0.1595  0.2208
  540loPI   C2A 8632   5.318   5.004   7.514  0.0065  0.1020 -0.1061
  540loPI   C3A 8633   5.414   4.984   7.105  0.0840  0.0627  0.2241
  540loPI   C4A 8634   5.183   4.913   6.713  0.1858  0.1008 -0.5101
  540loPI   C5A 8635   4.984   5.143   6.437  0.4143 -0.0064  0.0145
  540loPI   C6A 8636   5.152   5.502   6.144 -0.1576  0.2153  0.0312
  540loPI   C1B 8637   4.998   5.170   7.838 -0.1560  0.0945  0.0290
  540loPI   C2B 8638   4.838   5.217   7.376  0.1243  0.3408  0.2891
  540loPI   C3B 8639   4.882   5.334   6.945  0.3105 -0.2367 -0.0431
  540loPI   C4B 8640   4.970   5.593   6.574 -0.2751 -0.0992  0.0803
  541loPI    C1 8641   1.434  10.473  10.065  0.0281 -0.3070  0.3928
  541loPI    C2 8642   1.120  10.683  10.196  0.1521  0.0284  0.1660
  541loPI    C3 8643   1.153  10.294  10.287 -0.2945  0.0027  0.2425
  541loPI   PO4 8644   1.516  10.736   9.820  0.1854  0.3851 -0.1988
  541loPI   GL1 8645   1.431  10.912   9.355  0.1426 -0.0345  0.1126
  541loPI   GL2 8646   1.277  11.271   9.511 -0.1727  0.1097 -0.0949
  541loPI   C1A 8647   1.522  10.872   8.907 -0.0797 -0.3095 -0.0930
  541loPI   C2A 8648   1.609  10.921   8.404  0.3933 -0.2185  0.0080
  541loPI   C3A 8649   1.802  10.811   8.099 -0.3013  0.0056  0.0019
  541loPI   C4A 8650   1.660  10.791   7.661 -0.0647 -0.3992  0.2263
  541loPI   C5A 8651   1.333  10.982   7.515 -0.0672  0.0647 -0.1203
  541loPI   C6A 8652   0.887  11.089   7.860  0.1947 -0.0646  0.4024
  541loPI   C1B 8653   1.038  11.182   9.089 -0.1992  0.0308 -0.3116
  541loPI   C2B 8654   1.093  11.161   8.590  0.0859 -0.0379  0.2292
  541loPI   C3B 8655   1.203  11.136   8.266  0.1992  0.3232  0.3542
  541loPI   C4B 8656   1.396  11.234   7.948  0.2982 -0.1542  0.2976
  542loPI    C1 8657   6.095   3.251   8.786  0.0127  0.0104  0.0908
  542loPI    C2 8658   6.222   2.908   8.948 -0.0902 -0.0173  0.1133
  542loPI    C3 8659   6.185   3.235   9.175  0.1508  0.0482  0.0609
  542loPI   PO4 8660   6.154   3.359   8.554  0.0669  0.1477 -0.0539
  542loPI   GL1 8661   6.297   3.308   8.189 -0.1548 -0.1189 -0.3215
  542loPI   GL2 8662   6.190   3.022   8.231 -0.1108  0.0517  0.1126
  542loPI   C1A 8663   6.207   3.321   7.768 -0.1258 -0.0995 -0.2404
  542loPI   C2A 8664   6.088   3.308   7.295 -0.2217 -0.0860 -0.1518
  542loPI   C3A 8665   6.019   3.343   6.872  0.0228 -0.4308 -0.0941
  542loPI   C4A 8666   6.184   3.402   6.483  0.2472 -0.1866  0.0621
  542loPI   C5A 8667   6.481   3.239   6.325 -0.3182 -0.2526 -0.3289
  542loPI   C6A 8668   6.585   2.862   6.095 -0.0582  0.2277  0.4379
  542loPI   C1B 8669   6.117   2.827   7.903 -0.0456  0.0708  0.1413
  542loPI   C2B 8670   6.015   2.824   7.531 -0.0290 -0.4294 -0.2412
  542loPI   C3B 8671   6.025   2.882   7.036  0.0128 -0.0765  0.3123
  542loPI   C4B 8672   6.253   2.891   6.589  0.0160 -0.0523  0.1840
  543loPI    C1 8673   1.684   6.672   9.680 -0.1145  0.1731 -0.0061
  543loPI    C2 8674   1.378   6.569   9.917 -0.0601 -0.0031 -0.0116
  543loPI    C3 8675   1.754   6.520  10.044 -0.0319  0.0005 -0.0933
  543loPI   PO4 8676   1.603   6.498   9.434  0.1900 -0.2996 -0.0456
  543loPI   GL1 8677   1.378   6.458   9.048  0.1336 -0.1776  0.0360
  543loPI   GL2 8678   1.722   6.224   9.010 -0.2234 -0.1707 -0.0081
  543loPI   C1A 8679   1.367   6.706   8.633  0.4240  0.0068 -0.0948
  543loPI   C2A 8680   1.046   6.468   8.322  0.0444 -0.0146 -0.0770
  543loPI   C3A 8681   1.065   5.990   8.173  0.2279  0.0427  0.1661
  543loPI   C4A 8682   0.955   5.726   7.799 -0.1167 -0.0266 -0.3213
  543loPI   C5A 8683   0.880   5.698   7.325  0.0490 -0.2123 -0.0937
  543loPI   C6A 8684   0.970   5.761   6.823 -0.1288 -0.2194 -0.2232
  543loPI   C1B 8685   1.524   6.219   8.663 -0.1162 -0.0358 -0.1015
  543loPI   C2B 8686   1.467   6.235   8.135 -0.0341  0.1992 -0.1873
  543loPI   C3B 8687   1.721   6.389   7.785 -0.3373 -0.2457 -0.0141
  543loPI   C4B 8688   1.627   6.698   7.544  0.0196  0.0442 -0.3110
  544loPI    C1 8689  14.476  16.912  10.277  0.0023 -0.0768  0.3338
  544loPI    C2 8690  14.834  17.085  10.324  0.1214 -0.2018 -0.0712
  544loPI    C3 8691  14.632  16.954  10.643  0.3030  0.1303  0.1867
  544loPI   PO4 8692  14.252  17.102  10.212  0.2436 -0.2291 -0.1556
  544loPI   GL1 8693  14.130  16.999   9.738 -0.1875 -0.1447  0.0368
  544loPI   GL2 8694  14.274  16.774   9.794 -0.3984  0.3676  0.4087
  544loPI   C1A 8695  14.057  17.035   9.352 -0.0503 -0.1019 -0.4294
  544loPI   C2A 8696  14.294  17.156   8.977  0.3113  0.0833  0.1031
  544loPI   C3A 8697  14.259  17.241   8.511  0.2507  0.0199 -0.0801
  544loPI   C4A 8698  14.240  17.299   8.087  0.1537 -0.0243  0.5747
  544loPI   C5A 8699  14.257  17.307   7.633 -0.3081  0.1917 -0.0005
  544loPI   C6A 8700  14.359  16.943   7.308 -0.0754 -0.3848  0.0045
  544loPI   C1B 8701  14.500  16.800   9.358 -0.0031 -0.0886  0.0429
  544loPI   C2B 8702  14.792  16.892   8.941  0.1010 -0.0542 -0.0912
  544loPI   C3B 8703  14.856  16.725   8.513  0.0901 -0.0023 -0.0190
  544loPI   C4B 8704  15.015  16.686   8.182 -0.2934 -0.1400 -0.1523
  545loPI    C1 8705   3.355   6.690   9.374 -0.0055 -0.3757  0.1735
  545loPI    C2 8706   3.703   6.852   9.262 -0.2943  0.0828 -0.0994
  545loPI    C3 8707   3.594   6.857   9.647 -0.0184 -0.0352 -0.0171
  545loPI   PO4 8708   3.282   6.467   9.257 -0.0114 -0.1702 -0.0046
  545loPI   GL1 8709   3.114   6.376   8.872  0.1648 -0.1356 -0.1862
  545loPI   GL2 8710   3.019   6.145   8.714 -0.3581 -0.3138  0.0246
  545loPI   C1A 8711   3.234   6.674   8.544 -0.1564 -0.0464  0.0116
  545loPI   C2A 8712   3.033   6.711   8.065 -0.0436  0.1504  0.0502
  545loPI   C3A 8713   3.095   6.920   7.738  0.2374 -0.1506  0.0353
  545loPI   C4A 8714   3.243   7.031   7.343  0.1110 -0.0997  0.4115
  545loPI   C5A 8715   2.997   6.967   7.018 -0.2106 -0.2874  0.2254
  545loPI   C6A 8716   2.851   6.644   6.745 -0.1145  0.2034  0.2920
  545loPI   C1B 8717   2.943   6.243   8.270 -0.2346 -0.3190 -0.1460
  545loPI   C2B 8718   2.679   6.376   7.924 -0.0414 -0.0143  0.0617
  545loPI   C3B 8719   2.521   6.782   7.753  0.2584 -0.2377  0.0504
  545loPI   C4B 8720   2.452   7.052   7.416 -0.0826  0.0701 -0.0076
  546loPI    C1 8721   3.802   2.449   9.228 -0.2070  0.1778  0.0722
  546loPI    C2 8722   4.193   2.395   9.288 -0.2385 -0.0948  0.0492
  546loPI    C3 8723   3.958   2.509   9.591 -0.1534  0.0031  0.0791
  546loPI   PO4 8724   3.882   2.457   8.926 -0.2347  0.0345  0.0140
  546loPI   GL1 8725   3.867   2.412   8.464 -0.1924  0.2814  0.0425
  546loPI   GL2 8726   4.099   2.601   8.202  0.6075 -0.1466 -0.3082
  546loPI   C1A 8727   3.684   2.367   8.047 -0.1970  0.4264  0.0443
  546loPI   C2A 8728   3.505   2.095   7.707 -0.0036  0.4321 -0.1189
  546loPI   C3A 8729   3.369   2.066   7.266  0.1990  0.2078 -0.0219
  546loPI   C4A 8730   3.184   2.173   6.835  0.2960  0.0889 -0.0961
  546loPI   C5A 8731   3.177   2.499   6.568 -0.1552  0.0140 -0.0991
  546loPI   C6A 8732   3.298   2.827   6.324  0.0356  0.2296  0.2803
  546loPI   C1B 8733   4.010   2.598   7.754  0.3244 -0.1297  0.1213
  546loPI   C2B 8734   3.806   2.416   7.475  0.0704  0.1599 -0.0306
  546loPI   C3B 8735   3.574   2.474   7.145  0.0067  0.1682  0.1614
  546loPI   C4B 8736   3.719   2.384   6.766 -0.0859  0.2299 -0.2035
  547loPI    C1 8737  16.151   5.114   9.823  0.2199 -0.0449  0.2665
  547loPI    C2 8738  15.950   4.786   9.714  0.0915  0.0504  0.2139
  547loPI    C3 8739  15.802   5.026   9.998  0.0836  0.1706  0.1091
  547loPI   PO4 8740  16.160   5.178   9.484  0.2481  0.2126 -0.0407
  547loPI   GL1 8741  16.224   5.256   8.994 -0.3395  0.0596  0.0534
  547loPI   GL2 8742  16.266   4.959   8.956 -0.0207  0.1312 -0.2569
  547loPI   C1A 8743  16.013   5.517   8.577 -0.0796  0.0462 -0.0991
  547loPI   C2A 8744  16.047   5.587   8.157  0.1593  0.0499  0.1035
  547loPI   C3A 8745  16.329   5.518   7.708  0.2467  0.1319 -0.2602
  547loPI   C4A 8746  16.320   5.474   7.232  0.3260  0.1769 -0.0462
  547loPI   C5A 8747  16.331   5.163   6.925 -0.0497  0.0623 -0.0402
  547loPI   C6A 8748  16.417   4.732   6.673  0.1698 -0.0777 -0.1574
  547loPI   C1B 8749  16.397   5.033   8.590 -0.3218  0.2107 -0.1805
  547loPI   C2B 8750  16.349   5.147   8.104  0.1229 -0.2890 -0.0213
  547loPI   C3B 8751  16.182   5.018   7.741  0.1523 -0.1333  0.0524
  547loPI   C4B 8752  16.091   4.934   7.349 -0.1054  0.0578 -0.3307
  548loPI    C1 8753  10.037   2.717   9.321  0.3444  0.2121 -0.0971
  548loPI    C2 8754  10.329   2.744   9.593  0.0568  0.0287  0.2383
  548loPI    C3 8755  10.013   2.509   9.662 -0.1866  0.2451 -0.1064
  548loPI   PO4 8756  10.095   2.881   9.162 -0.2498 -0.0600  0.1609
  548loPI   GL1 8757  10.315   3.014   8.769 -0.2478 -0.0595 -0.1902
  548loPI   GL2 8758   9.924   3.036   8.686 -0.2429  0.1251 -0.1387
  548loPI   C1A 8759  10.451   2.830   8.425  0.3253 -0.1981  0.0075
  548loPI   C2A 8760  10.347   2.774   7.971  0.0733  0.0285 -0.4059
  548loPI   C3A 8761  10.417   2.774   7.562  0.0558 -0.2658 -0.0030
  548loPI   C4A 8762  10.790   2.666   7.213 -0.1822 -0.0718  0.2583
  548loPI   C5A 8763  10.845   2.748   6.793 -0.0554 -0.1173 -0.4953
  548loPI   C6A 8764  10.933   2.394   6.475  0.0293  0.0196  0.3133
  548loPI   C1B 8765  10.011   3.034   8.256  0.1500  0.2295  0.1053
  548loPI   C2B 8766  10.014   3.061   7.811 -0.0937 -0.0229 -0.0835
  548loPI   C3B 8767  10.088   3.136   7.365  0.0682  0.2628 -0.1381
  548loPI   C4B 8768  10.157   3.286   6.963 -0.3575 -0.0070  0.0480
  549loPI    C1 8769  16.433  18.734  10.106  0.1849  0.0383  0.0579
  549loPI    C2 8770  16.812  18.647  10.015  0.1701  0.1397 -0.1042
  549loPI    C3 8771  16.700  19.028  10.061  0.0618  0.1174 -0.1784
  549loPI   PO4 8772  16.276  18.598   9.880  0.0686  0.0729  0.0476
  549loPI   GL1 8773  16.249  18.647   9.445 -0.0391  0.0115 -0.2347
  549loPI   GL2 8774  16.303  18.267   9.480  0.0954  0.4049 -0.0533
  549loPI   C1A 8775  16.413  19.034   9.130 -0.0283 -0.2858  0.1389
  549loPI   C2A 8776  16.334  19.111   8.637 -0.2709 -0.0334  0.0929
  549loPI   C3A 8777  16.365  19.410   8.267 -0.4049  0.1108  0.3120
  549loPI   C4A 8778  16.164  19.682   7.928 -0.2536 -0.0138 -0.1953
  549loPI   C5A 8779  15.888  19.923   7.747 -0.1469 -0.0764 -0.1938
  549loPI   C6A 8780  15.537  20.141   7.606 -0.3518 -0.0834 -0.1918
  549loPI   C1B 8781  16.357  18.153   9.028 -0.0392  0.0374  0.0696
  549loPI   C2B 8782  16.302  18.148   8.551 -0.1818 -0.3179 -0.2430
  549loPI   C3B 8783  16.435  18.120   8.303  0.2467  0.1916 -0.1016
  549loPI   C4B 8784  16.590  18.384   8.030 -0.3802  0.1181  0.0493
  550loPI    C1 8785   8.288   7.885   8.971 -0.0269 -0.0348  0.0581
  550loPI    C2 8786   8.131   7.812   9.332 -0.0536  0.0163  0.0569
  550loPI    C3 8787   8.198   8.189   9.215 -0.1531  0.0052 -0.0374
  550loPI   PO4 8788   8.301   7.747   8.842 -0.1994  0.1160  0.1527
  550loPI   GL1 8789   8.339   7.709   8.475 -0.0907  0.0170  0.2489
  550loPI   GL2 8790   8.458   8.065   8.263 -0.1703 -0.2135 -0.2119
  550loPI   C1A 8791   8.132   7.780   8.104 -0.2495  0.1292  0.1566
  550loPI   C2A 8792   8.009   7.747   7.682  0.0111 -0.1301 -0.1336
  550loPI   C3A 8793   7.836   7.788   7.212 -0.4352  0.1318  0.1251
  550loPI   C4A 8794   7.860   7.580   6.920  0.0694  0.0705  0.0622
  550loPI   C5A 8795   7.485   7.281   6.834 -0.3139 -0.0301  0.2501
  550loPI   C6A 8796   7.254   7.060   7.097  0.0542 -0.3393 -0.0217
  550loPI   C1B 8797   8.248   8.145   7.819 -0.2070 -0.0019 -0.0997
  550loPI   C2B 8798   8.172   8.207   7.453  0.3714 -0.0097  0.2131
  550loPI   C3B 8799   8.015   8.353   7.059  0.0623  0.1050  0.2107
  550loPI   C4B 8800   7.889   8.696   6.827 -0.0800  0.2082 -0.0909
  551loPI    C1 8801  14.655   6.353   9.554  0.0640 -0.1698  0.0525
  551loPI    C2 8802  14.292   6.363   9.387  0.1443  0.2085 -0.1090
  551loPI    C3 8803  14.342   6.483   9.766  0.0564 -0.1171  0.0090
  551loPI   PO4 8804  14.792   6.387   9.366 -0.1927  0.3668  0.2669
  551loPI   GL1 8805  14.809   6.585   8.984 -0.3102 -0.2603 -0.3133
  551loPI   GL2 8806  14.482   6.615   8.978 -0.1821  0.2341 -0.2007
  551loPI   C1A 8807  14.884   6.328   8.552  0.1809  0.2948  0.0166
  551loPI   C2A 8808  14.789   6.398   8.068  0.1037 -0.0439 -0.0429
  551loPI   C3A 8809  14.561   6.413   7.652 -0.2145  0.0233  0.0186
  551loPI   C4A 8810  14.510   6.574   7.307  0.2439 -0.1837  0.2765
  551loPI   C5A 8811  14.168   6.800   7.043  0.0236 -0.1329  0.1748
  551loPI   C6A 8812  14.100   6.981   6.578 -0.0455  0.3680 -0.1990
  551loPI   C1B 8813  14.454   6.717   8.482  0.1394 -0.0889  0.0415
  551loPI   C2B 8814  14.360   6.752   8.021  0.3821  0.2198  0.0287
  551loPI   C3B 8815  14.172   6.822   7.687 -0.0358 -0.1220 -0.4062
  551loPI   C4B 8816  14.281   7.144   7.362  0.0141  0.1691  0.0511
  552loPI    C1 8817   5.974  13.787   9.789  0.2492 -0.1647 -0.1457
  552loPI    C2 8818   5.695  13.779  10.075 -0.0032 -0.2004 -0.3889
  552loPI    C3 8819   6.001  13.522  10.087  0.1917  0.0415  0.0455
  552loPI   PO4 8820   5.908  13.954   9.673 -0.1936 -0.1198 -0.2470
  552loPI   GL1 8821   5.917  14.056   9.311  0.2573 -0.1954  0.0294
  552loPI   GL2 8822   5.665  13.782   9.244  0.2441  0.1785 -0.0133
  552loPI   C1A 8823   5.897  13.943   8.824 -0.3075  0.0033 -0.0503
  552loPI   C2A 8824   5.998  13.926   8.378  0.0866  0.2032  0.2078
  552loPI   C3A 8825   6.065  13.901   7.969 -0.5102 -0.0514 -0.3845
  552loPI   C4A 8826   6.096  13.750   7.556 -0.2289 -0.1361 -0.1420
  552loPI   C5A 8827   6.386  13.856   7.292  0.1790  0.0494 -0.0105
  552loPI   C6A 8828   6.790  13.876   7.138 -0.1566 -0.2418 -0.1607
  552loPI   C1B 8829   6.004  13.550   9.114 -0.0599 -0.0673 -0.0184
  552loPI   C2B 8830   6.368  13.338   8.988 -0.1037  0.1005  0.0400
  552loPI   C3B 8831   6.608  13.171   8.642 -0.1385 -0.0210 -0.0211
  552loPI   C4B 8832   6.772  13.120   8.222 -0.1891 -0.0441  0.0891
  553loPI    C1 8833   8.332  14.403   9.959  0.0182 -0.0088  0.1240
  553loPI    C2 8834   8.133  14.366  10.304  0.2772 -0.2389  0.2527
  553loPI    C3 8835   8.361  14.688  10.238 -0.1424  0.0349  0.0971
  553loPI   PO4 8836   8.057  14.371   9.797 -0.3109 -0.1955  0.1018
  553loPI   GL1 8837   7.965  14.434   9.452  0.3523 -0.0143  0.0974
  553loPI   GL2 8838   7.732  14.645   9.420 -0.0334 -0.1399  0.0739
  553loPI   C1A 8839   7.915  14.352   9.007  0.0797 -0.2175 -0.0383
  553loPI   C2A 8840   8.054  14.218   8.574 -0.0506 -0.0970 -0.2403
  553loPI   C3A 8841   8.052  14.336   8.193 -0.3553  0.0117  0.2386
  553loPI   C4A 8842   7.999  14.088   7.868 -0.0528 -0.0991  0.1386
  553loPI   C5A 8843   8.022  13.595   7.912  0.3122 -0.0921 -0.0581
  553loPI   C6A 8844   7.833  13.487   8.147  0.0129 -0.0283  0.2882
  553loPI   C1B 8845   7.760  14.814   9.067 -0.2241  0.0216 -0.0399
  553loPI   C2B 8846   7.598  14.640   8.697 -0.3934  0.0961  0.1643
  553loPI   C3B 8847   7.484  14.433   8.311  0.0718 -0.0517  0.1617
  553loPI   C4B 8848   7.207  14.401   7.872 -0.1889  0.3227  0.0343
  554loPI    C1 8849  13.946   2.226  10.178  0.0467 -0.1924  0.0423
  554loPI    C2 8850  14.003   2.278  10.570  0.2875 -0.1344  0.0014
  554loPI    C3 8851  13.847   1.936  10.434 -0.0779 -0.0389  0.1695
  554loPI   PO4 8852  14.173   2.271  10.060  0.0509 -0.2307 -0.2616
  554loPI   GL1 8853  14.434   2.233   9.698  0.1811  0.1347  0.1097
  554loPI   GL2 8854  14.622   2.392   9.609 -0.6105  0.1313 -0.0897
  554loPI   C1A 8855  14.270   2.162   9.340  0.0217  0.0026  0.1209
  554loPI   C2A 8856  14.254   2.009   8.979  0.1975 -0.1253 -0.1089
  554loPI   C3A 8857  14.263   2.104   8.581 -0.0765 -0.1303  0.3119
  554loPI   C4A 8858  14.249   2.275   8.237  0.2052 -0.0302  0.1747
  554loPI   C5A 8859  14.140   2.432   7.823 -0.0641  0.1463 -0.0396
  554loPI   C6A 8860  13.962   2.680   7.547  0.0510  0.0349  0.0770
  554loPI   C1B 8861  14.614   2.444   9.085  0.0628 -0.0056 -0.6804
  554loPI   C2B 8862  14.664   2.463   8.636  0.1706 -0.0172 -0.2497
  554loPI   C3B 8863  14.626   2.546   8.250  0.4804  0.1418  0.3692
  554loPI   C4B 8864  14.602   2.455   7.696 -0.0483 -0.5095 -0.0136
  555loPI    C1 8865   0.312   9.944   9.804 -0.4067 -0.0187 -0.1286
  555loPI    C2 8866   0.288   9.610  10.022 -0.0855  0.1335  0.1484
  555loPI    C3 8867  -0.015   9.870  10.022 -0.2213 -0.0230  0.1525
  555loPI   PO4 8868   0.376   9.803   9.578  0.4368  0.1738  0.0362
  555loPI   GL1 8869   0.197   9.867   9.135 -0.2652 -0.4553  0.1932
  555loPI   GL2 8870   0.338  10.137   9.179 -0.1250 -0.0707  0.2553
  555loPI   C1A 8871   0.496   9.823   8.734  0.2106  0.1978  0.2969
  555loPI   C2A 8872   0.774   9.717   8.314  0.0632 -0.0416 -0.2936
  555loPI   C3A 8873   0.630   9.671   7.957  0.2994  0.0712  0.1204
  555loPI   C4A 8874   0.609   9.371   7.636  0.1202  0.0331 -0.1175
  555loPI   C5A 8875   0.812   9.016   7.584  0.2433 -0.1556 -0.1106
  555loPI   C6A 8876   1.204   8.897   7.479 -0.0187 -0.2406 -0.0815
  555loPI   C1B 8877   0.255  10.187   8.746  0.0275 -0.3150 -0.2750
  555loPI   C2B 8878   0.096  10.328   8.369  0.1460  0.0966 -0.1490
  555loPI   C3B 8879  -0.044  10.331   7.929  0.1503 -0.2111 -0.2415
  555loPI   C4B 8880  -0.122  10.356   7.503 -0.0105  0.2777 -0.2364
  556loPI    C1 8881   3.289   2.282   9.135  0.1311  0.1655 -0.1934
  556loPI    C2 8882   3.279   2.611   9.364  0.1153 -0.0575  0.1333
  556loPI    C3 8883   3.402   2.263   9.518 -0.0948 -0.2588 -0.1422
  556loPI   PO4 8884   3.206   2.459   8.904  0.3304 -0.1659  0.0805
  556loPI   GL1 8885   3.390   2.663   8.566  0.2284 -0.1569 -0.0860
  556loPI   GL2 8886   3.378   2.746   8.368 -0.1023  0.0580  0.0880
  556loPI   C1A 8887   3.316   2.219   8.308  0.0009  0.3734  0.0401
  556loPI   C2A 8888   3.069   2.282   8.013 -0.4462  0.2764 -0.0393
  556loPI   C3A 8889   2.940   2.178   7.579  0.2191  0.0963  0.2398
  556loPI   C4A 8890   2.703   2.145   7.219  0.1120 -0.0638  0.1817
  556loPI   C5A 8891   2.361   2.214   6.936  0.0929  0.0514  0.0020
  556loPI   C6A 8892   1.924   2.055   6.852 -0.1791  0.3638  0.0266
  556loPI   C1B 8893   3.300   2.688   7.948  0.3389 -0.3845 -0.5677
  556loPI   C2B 8894   3.285   2.593   7.591  0.1778 -0.2647 -0.1698
  556loPI   C3B 8895   3.090   2.480   7.261 -0.1299 -0.0651  0.1353
  556loPI   C4B 8896   2.819   2.614   6.870 -0.0294  0.1663 -0.3295
  557loPI    C1 8897   0.833   8.955  10.043 -0.1315  0.3920 -0.1982
  557loPI    C2 8898   0.581   8.745  10.272  0.3446  0.1592  0.1286
  557loPI    C3 8899   0.506   9.130  10.195 -0.4866 -0.0805 -0.3944
  557loPI   PO4 8900   0.883   8.872   9.654  0.4915  0.1292  0.3827
  557loPI   GL1 8901   1.072   8.814   9.293  0.3744 -0.1487 -0.3066
  557loPI   GL2 8902   1.225   8.557   9.458  0.1680  0.2266  0.1664
  557loPI   C1A 8903   1.023   8.965   8.970  0.1456 -0.0491 -0.0076
  557loPI   C2A 8904   1.325   9.107   8.589 -0.2365 -0.0362  0.2652
  557loPI   C3A 8905   1.450   9.225   8.182  0.1727  0.0452  0.1112
  557loPI   C4A 8906   1.685   9.144   7.711 -0.1096 -0.2095 -0.1148
  557loPI   C5A 8907   1.653   9.104   7.199  0.0673  0.1523  0.1099
  557loPI   C6A 8908   1.227   8.896   7.003 -0.0307 -0.0903  0.0985
  557loPI   C1B 8909   1.345   8.210   9.225 -0.2780 -0.0789  0.4944
  557loPI   C2B 8910   1.570   8.235   8.771 -0.1326  0.3372  0.0864
  557loPI   C3B 8911   1.364   7.915   8.519  0.1278 -0.0040 -0.1334
  557loPI   C4B 8912   1.414   7.590   8.193 -0.0380 -0.2786  0.1664
  558loPI    C1 8913   2.308   3.952   9.455  0.0673  0.3019 -0.2438
  558loPI    C2 8914   2.171   4.095   9.803  0.0045 -0.0020 -0.1399
  558loPI    C3 8915   2.480   3.841   9.799  0.0405  0.0429 -0.3120
  558loPI   PO4 8916   2.184   4.082   9.305 -0.2045  0.0448 -0.1986
  558loPI   GL1 8917   2.092   4.315   8.908  0.1387  0.0663 -0.0449
  558loPI   GL2 8918   2.068   4.030   8.828 -0.1148  0.0770  0.3095
  558loPI   C1A 8919   1.907   4.262   8.378  0.0984  0.2171  0.2475
  558loPI   C2A 8920   2.043   4.196   7.929 -0.1751  0.0456 -0.1424
  558loPI   C3A 8921   2.074   4.051   7.485 -0.4334 -0.3007  0.1880
  558loPI   C4A 8922   2.164   3.768   7.144 -0.1658 -0.1965 -0.1101
  558loPI   C5A 8923   1.795   3.527   6.937 -0.3854 -0.2570 -0.1240
  558loPI   C6A 8924   1.508   3.753   6.645  0.0918 -0.0698 -0.0383
  558loPI   C1B 8925   2.079   3.822   8.349  0.1636 -0.3396 -0.1604
  558loPI   C2B 8926   2.023   3.701   8.002 -0.2883  0.0994  0.4160
  558loPI   C3B 8927   2.233   3.528   7.663  0.1010 -0.1498 -0.3966
  558loPI   C4B 8928   2.304   3.097   7.463 -0.2176  0.0463  0.2937
  559loPI    C1 8929   2.447   6.094   9.368  0.0623  0.1903 -0.0507
  559loPI    C2 8930   2.695   5.849   9.564  0.1436  0.2175 -0.1187
  559loPI    C3 8931   2.504   6.140   9.761 -0.1403 -0.0497  0.0090
  559loPI   PO4 8932   2.630   6.187   9.093 -0.3498 -0.0627 -0.1462
  559loPI   GL1 8933   2.511   6.106   8.664 -0.0653  0.3462  0.0448
  559loPI   GL2 8934   2.173   5.953   8.907  0.2804 -0.0349 -0.1935
  559loPI   C1A 8935   2.430   6.071   8.293  0.1617 -0.0334 -0.1174
  559loPI   C2A 8936   2.392   5.896   7.878 -0.1006 -0.1187 -0.1454
  559loPI   C3A 8937   2.397   5.803   7.514  0.1727 -0.1874 -0.1513
  559loPI   C4A 8938   2.387   6.020   7.204 -0.2233  0.4149  0.0002
  559loPI   C5A 8939   2.350   6.339   6.845  0.1490 -0.0887 -0.0051
  559loPI   C6A 8940   2.368   6.696   6.502  0.1142  0.2454 -0.2233
  559loPI   C1B 8941   1.918   5.947   8.435 -0.1293  0.1669 -0.4204
  559loPI   C2B 8942   1.967   6.011   8.091  0.3862  0.2454  0.0389
  559loPI   C3B 8943   1.975   5.974   7.705  0.1042  0.0199  0.1706
  559loPI   C4B 8944   1.901   5.996   7.379  0.1284 -0.0937  0.2223
  560loPI    C1 8945   5.765   4.597   8.897 -0.0110 -0.1272  0.0475
  560loPI    C2 8946   5.995   4.891   9.041  0.3055 -0.2346 -0.2245
  560loPI    C3 8947   5.883   4.589   9.279  0.0973  0.0278  0.0182
  560loPI   PO4 8948   5.638   4.683   8.750  0.3119  0.1740 -0.1629
  560loPI   GL1 8949   5.427   4.777   8.309  0.0727  0.2087 -0.1059
  560loPI   GL2 8950   5.702   4.724   8.231  0.0394 -0.0683 -0.3625
  560loPI   C1A 8951   5.400   4.565   7.822  0.0622  0.1450 -0.4197
  560loPI   C2A 8952   5.351   4.583   7.386 -0.4923  0.2118 -0.1532
  560loPI   C3A 8953   5.210   4.392   6.922 -0.0604  0.1032  0.5810
  560loPI   C4A 8954   5.287   4.429   6.539 -0.0434  0.3252 -0.0730
  560loPI   C5A 8955   5.486   4.354   6.148 -0.0164  0.0600 -0.1618
  560loPI   C6A 8956   5.820   4.391   5.753 -0.2185 -0.0170 -0.2335
  560loPI   C1B 8957   5.837   4.751   7.750  0.0074 -0.0601 -0.1674
  560loPI   C2B 8958   5.818   4.619   7.380 -0.2230 -0.0471  0.1899
  560loPI   C3B 8959   5.673   4.559   6.992  0.1985 -0.4125  0.3043
  560loPI   C4B 8960   5.668   4.761   6.717 -0.0252  0.1256  0.1383
  561loPI    C1 8961   7.271   1.970   9.440 -0.0215  0.2923  0.0494
  561loPI    C2 8962   7.092   2.327   9.423  0.2158  0.4107 -0.0128
  561loPI    C3 8963   7.371   2.256   9.701  0.0783  0.2287  0.0816
  561loPI   PO4 8964   7.320   1.940   9.177  0.0141 -0.3175 -0.2222
  561loPI   GL1 8965   7.335   1.834   8.767 -0.2374  0.0173 -0.4421
  561loPI   GL2 8966   7.253   1.581   8.610 -0.0806  0.0642  0.2212
  561loPI   C1A 8967   7.230   1.838   8.227 -0.0706  0.2614  0.0937
  561loPI   C2A 8968   7.274   1.724   7.723 -0.2520  0.2925  0.4108
  561loPI   C3A 8969   7.174   1.757   7.276  0.1225 -0.3818  0.1202
  561loPI   C4A 8970   7.080   1.851   6.751  0.1051  0.2354  0.1862
  561loPI   C5A 8971   7.149   1.428   6.503  0.1960  0.0222 -0.0754
  561loPI   C6A 8972   6.876   1.090   6.394 -0.0848 -0.0897 -0.0616
  561loPI   C1B 8973   7.365   1.331   8.361 -0.3710 -0.2204 -0.1875
  561loPI   C2B 8974   7.479   1.362   7.984  0.0002  0.1757  0.0817
  561loPI   C3B 8975   7.588   1.370   7.683  0.2366  0.0238  0.2067
  561loPI   C4B 8976   7.555   1.179   7.379 -0.0760 -0.1130  0.1844
  562loPI    C1 8977  16.567   0.303  10.139  0.2904  0.0434  0.1408
  562loPI    C2 8978  16.789  -0.016  10.235 -0.1192 -0.3596 -0.2051
  562loPI    C3 8979  16.514   0.121  10.491  0.1485 -0.1928 -0.0006
  562loPI   PO4 8980  16.483   0.289   9.875 -0.0860  0.1269  0.0622
  562loPI   GL1 8981  16.575   0.339   9.447 -0.1155  0.2089 -0.1404
  562loPI   GL2 8982  16.912   0.446   9.316  0.0272  0.0094  0.4127
  562loPI   C1A 8983  16.480   0.093   8.999  0.1960 -0.3612 -0.2740
  562loPI   C2A 8984  16.708   0.146   8.572 -0.2657 -0.0287 -0.0024
  562loPI   C3A 8985  16.818  -0.200   8.361  0.0225 -0.1923 -0.1466
  562loPI   C4A 8986  16.733  -0.317   7.919 -0.0840 -0.1156  0.1640
  562loPI   C5A 8987  16.740  -0.409   7.378  0.1860  0.0876 -0.0604
  562loPI   C6A 8988  16.700  -0.089   6.955 -0.1387  0.1743  0.1234
  562loPI   C1B 8989  16.985   0.336   8.920  0.0988  0.1276 -0.3280
  562loPI   C2B 8990  17.236   0.008   8.645  0.1248  0.1190 -0.0456
  562loPI   C3B 8991  17.266  -0.453   8.658  0.0930 -0.0496 -0.0967
  562loPI   C4B 8992  17.035  -0.653   8.257  0.0096 -0.2175 -0.1630
  563loPI    C1 8993   9.351  18.319  10.095 -0.1567 -0.0084  0.0794
  563loPI    C2 8994   9.180  18.680  10.070 -0.0531  0.0332 -0.0327
  563loPI    C3 8995   9.480  18.618  10.328  0.0450  0.0751 -0.1355
  563loPI   PO4 8996   9.465  18.300   9.831  0.1414  0.2255  0.0123
  563loPI   GL1 8997   9.359  18.467   9.433  0.0977 -0.0883 -0.2469
  563loPI   GL2 8998   9.575  18.297   9.267 -0.1692  0.0143  0.2036
  563loPI   C1A 8999   9.651  18.691   9.002 -0.2085  0.2596 -0.4454
  563loPI   C2A 9000   9.701  18.656   8.528  0.2067 -0.0192 -0.0455
  563loPI   C3A 9001   9.347  18.591   8.233  0.2569 -0.2104  0.0711
  563loPI   C4A 9002   9.174  18.423   7.871 -0.2987  0.2995  0.0036
  563loPI   C5A 9003   8.883  18.169   7.801  0.1689  0.5042  0.3758
  563loPI   C6A 9004   8.567  18.010   7.567  0.2511 -0.1528 -0.2427
  563loPI   C1B 9005   9.848  18.168   9.041 -0.2097 -0.3151 -0.0189
  563loPI   C2B 9006   9.936  18.110   8.715 -0.1507 -0.1215  0.1255
  563loPI   C3B 9007  10.151  18.090   8.427  0.1519 -0.1226 -0.2570
  563loPI   C4B 9008  10.257  18.255   8.017 -0.4074  0.0577  0.2489
  564loPI    C1 9009   4.569  11.439  10.105  0.0011  0.0186  0.3475
  564loPI    C2 9010   4.555  11.090  10.299  0.4475 -0.2362 -0.0572
  564loPI    C3 9011   4.903  11.284  10.261  0.1927  0.2970  0.2229
  564loPI   PO4 9012   4.439  11.377   9.857 -0.0209  0.3090 -0.2155
  564loPI   GL1 9013   4.625  11.503   9.428  0.0563  0.1386 -0.2358
  564loPI   GL2 9014   4.285  11.724   9.366 -0.2165  0.1897 -0.3076
  564loPI   C1A 9015   4.512  11.245   9.068  0.2415 -0.0116 -0.0445
  564loPI   C2A 9016   4.336  11.054   8.627  0.0502  0.1552 -0.3610
  564loPI   C3A 9017   4.414  10.964   8.222 -0.0029  0.0251  0.2501
  564loPI   C4A 9018   4.308  10.799   7.756  0.0465  0.1726 -0.0527
  564loPI   C5A 9019   4.050  10.605   7.450  0.0998 -0.0894 -0.0925
  564loPI   C6A 9020   3.953  10.432   7.106 -0.0461 -0.0835 -0.0336
  564loPI   C1B 9021   4.083  11.526   9.097  0.0470 -0.0479  0.0003
  564loPI   C2B 9022   3.930  11.373   8.694 -0.0677 -0.0312  0.0799
  564loPI   C3B 9023   4.019  11.305   8.283  0.0528 -0.2753 -0.2807
  564loPI   C4B 9024   3.974  11.257   7.815  0.0189  0.2274 -0.1519
  565loPI    C1 9025   5.813   2.255   8.890  0.1200  0.0567  0.1923
  565loPI    C2 9026   5.978   2.104   9.221  0.2211  0.0118  0.1223
  565loPI    C3 9027   6.113   1.992   8.862  0.2102  0.1709  0.0676
  565loPI   PO4 9028   5.872   2.547   8.831 -0.1496  0.3850  0.1361
  565loPI   GL1 9029   6.101   2.589   8.525 -0.0276  0.1902 -0.0640
  565loPI   GL2 9030   6.302   2.349   8.565 -0.0767 -0.4583  0.1410
  565loPI   C1A 9031   6.061   2.388   8.077 -0.0937  0.1733 -0.1290
  565loPI   C2A 9032   6.001   2.297   7.734  0.0610  0.0797  0.1572
  565loPI   C3A 9033   5.927   2.390   7.347 -0.1309 -0.2083 -0.0816
  565loPI   C4A 9034   5.839   2.439   6.820 -0.2254  0.2793 -0.3853
  565loPI   C5A 9035   5.622   2.359   6.503  0.0449  0.2336 -0.1702
  565loPI   C6A 9036   5.450   2.295   6.106 -0.0491 -0.2259 -0.0777
  565loPI   C1B 9037   6.432   2.061   8.227  0.1189  0.1966 -0.0282
  565loPI   C2B 9038   6.406   1.981   7.829 -0.0604  0.3684 -0.0456
  565loPI   C3B 9039   6.338   2.084   7.476 -0.3503  0.0786 -0.0645
  565loPI   C4B 9040   6.217   2.074   7.131  0.0924 -0.0554 -0.3333
  566loPI    C1 9041  13.003   9.676   9.777  0.1923  0.0351 -0.0692
  566loPI    C2 9042  13.230   9.880  10.036  0.0409  0.1560 -0.0301
  566loPI    C3 9043  12.856   9.778  10.135 -0.0166  0.1991 -0.1991
  566loPI   PO4 9044  13.123   9.838   9.487  0.1096 -0.0429  0.0605
  566loPI   GL1 9045  13.357  10.156   9.142  0.4239  0.0426 -0.3220
  566loPI   GL2 9046  13.157  10.384   9.152  0.0351  0.2828 -0.0473
  566loPI   C1A 9047  13.474  10.105   8.745 -0.0142  0.2350 -0.0525
  566loPI   C2A 9048  13.576  10.093   8.334 -0.1004  0.0053 -0.1735
  566loPI   C3A 9049  13.817  10.373   8.077 -0.0242 -0.1922 -0.3502
  566loPI   C4A 9050  13.986  10.527   7.749  0.1915 -0.1246 -0.0700
  566loPI   C5A 9051  14.057  10.700   7.401  0.1714 -0.0273 -0.0945
  566loPI   C6A 9052  14.174  11.022   6.936  0.1319 -0.0337 -0.1864
  566loPI   C1B 9053  12.997  10.506   8.851  0.0835  0.1014  0.2889
  566loPI   C2B 9054  12.782  10.498   8.513 -0.2056 -0.0542  0.1387
  566loPI   C3B 9055  12.872  10.608   8.087 -0.0976  0.3096  0.1084
  566loPI   C4B 9056  12.887  10.612   7.587  0.0434  0.1165  0.0296
  567loPI    C1 9057  17.898   0.588   9.681 -0.3785 -0.0574  0.1529
  567loPI    C2 9058  17.681   0.772   9.963 -0.1017  0.1007  0.2662
  567loPI    C3 9059  18.078   0.739  10.005 -0.0983 -0.1676  0.0514
  567loPI   PO4 9060  17.723   0.526   9.401 -0.2327  0.0903 -0.0741
  567loPI   GL1 9061  17.453   0.664   9.105  0.2097 -0.3477  0.0382
  567loPI   GL2 9062  17.478   0.500   8.883 -0.1275 -0.2902  0.1157
  567loPI   C1A 9063  17.637   1.046   8.865  0.2195 -0.1385  0.1419
  567loPI   C2A 9064  17.401   1.392   8.850 -0.1323  0.2251  0.2085
  567loPI   C3A 9065  17.241   1.510   8.487  0.2132 -0.2298 -0.1668
  567loPI   C4A 9066  17.296   1.582   8.032 -0.1337  0.1123  0.2793
  567loPI   C5A 9067  17.432   1.555   7.622  0.2121 -0.0484  0.2571
  567loPI   C6A 9068  17.454   1.532   7.233  0.1407 -0.2250  0.0836
  567loPI   C1B 9069  17.297   0.526   8.526  0.2424  0.0105 -0.0582
  567loPI   C2B 9070  17.068   0.300   8.203  0.1075 -0.0693  0.1093
  567loPI   C3B 9071  16.714   0.263   8.001 -0.2931  0.1713 -0.0408
  567loPI   C4B 9072  16.402   0.590   7.748  0.1978  0.0362 -0.0798
  568loPI    C1 9073   1.679   1.850   9.165  0.0922 -0.0600 -0.0292
  568loPI    C2 9074   1.869   2.110   9.402 -0.0723  0.0578 -0.0248
  568loPI    C3 9075   1.777   1.745   9.538  0.2266 -0.0319 -0.0560
  568loPI   PO4 9076   1.812   2.028   8.927 -0.0642  0.0714 -0.4799
  568loPI   GL1 9077   1.604   2.327   8.753 -0.0591  0.0224 -0.3633
  568loPI   GL2 9078   1.247   2.397   8.743 -0.0958  0.0279 -0.0508
  568loPI   C1A 9079   1.573   2.242   8.315 -0.1011 -0.0762  0.1213
  568loPI   C2A 9080   1.543   2.290   7.907  0.4055 -0.1952 -0.0296
  568loPI   C3A 9081   1.473   2.379   7.494  0.2466 -0.0075  0.1362
  568loPI   C4A 9082   1.381   2.241   7.088 -0.0940 -0.3290 -0.0818
  568loPI   C5A 9083   1.440   1.793   6.846  0.2860 -0.2181  0.0714
  568loPI   C6A 9084   1.431   1.301   6.807  0.0846 -0.0477  0.4811
  568loPI   C1B 9085   1.077   2.454   8.322  0.0718 -0.0658  0.0371
  568loPI   C2B 9086   1.099   2.444   7.815  0.5220  0.0056  0.0005
  568loPI   C3B 9087   0.908   2.425   7.402 -0.0253 -0.0476 -0.1805
  568loPI   C4B 9088   0.824   2.332   6.984  0.0919 -0.3759 -0.1444
  569loPI    C1 9089  11.158   7.272   9.341  0.0161  0.4605  0.1344
  569loPI    C2 9090  11.442   7.416   9.098  0.0685  0.1328 -0.0047
  569loPI    C3 9091  11.471   7.470   9.494  0.0828  0.5010 -0.0522
  569loPI   PO4 9092  11.106   7.024   9.146  0.0473 -0.0066  0.0363
  569loPI   GL1 9093  11.184   6.997   8.735 -0.3911 -0.0229  0.1097
  569loPI   GL2 9094  11.128   7.199   8.694  0.0724  0.0941  0.1313
  569loPI   C1A 9095  11.472   6.814   8.452 -0.2432  0.0720 -0.0312
  569loPI   C2A 9096  11.693   6.947   8.026 -0.2099  0.3815  0.1771
  569loPI   C3A 9097  11.971   7.099   7.879 -0.0254 -0.1685 -0.0670
  569loPI   C4A 9098  12.395   7.180   7.660  0.0609 -0.1476  0.0196
  569loPI   C5A 9099  12.478   7.236   7.290  0.0167 -0.4457 -0.3475
  569loPI   C6A 9100  12.787   7.239   6.999  0.1413  0.0020  0.4667
  569loPI   C1B 9101  11.318   7.306   8.228 -0.0055  0.1557  0.0040
  569loPI   C2B 9102  11.369   7.504   7.784  0.1566  0.0136 -0.1102
  569loPI   C3B 9103  11.658   7.367   7.506  0.0075  0.2323 -0.1011
  569loPI   C4B 9104  11.959   7.081   7.391  0.2882  0.0680 -0.0430
  570loPI    C1 9105  10.430   0.401   9.856  0.0545  0.0556  0.0154
  570loPI    C2 9106  10.218   0.292   9.535  0.2491  0.1342 -0.1419
  570loPI    C3 9107  10.188   0.084   9.875  0.0878  0.0138 -0.2287
  570loPI   PO4 9108  10.670   0.408   9.750 -0.0749  0.1597 -0.1170
  570loPI   GL1 9109  10.855   0.452   9.316  0.2387  0.1215  0.0187
  570loPI   GL2 9110  11.152   0.338   9.178  0.1390  0.0662 -0.4908
  570loPI   C1A 9111  10.703   0.394   9.023 -0.3444  0.3630 -0.0941
  570loPI   C2A 9112  10.673   0.362   8.587  0.1263  0.0893 -0.0195
  570loPI   C3A 9113  10.852   0.595   8.319 -0.0234  0.4809 -0.0930
  570loPI   C4A 9114  10.606   0.719   7.899  0.2165  0.0627 -0.1711
  570loPI   C5A 9115  10.489   0.779   7.450  0.0115 -0.1469  0.1949
  570loPI   C6A 9116  10.211   0.544   7.226 -0.0291 -0.0533  0.0538
  570loPI   C1B 9117  11.191   0.382   8.711  0.1033 -0.0149  0.0987
  570loPI   C2B 9118  11.311   0.388   8.226  0.0362  0.1318  0.2805
  570loPI   C3B 9119  11.384   0.544   7.849 -0.0833 -0.0824  0.0232
  570loPI   C4B 9120  11.548   0.468   7.579 -0.2965 -0.0037  0.2468
  571loPI    C1 9121   3.797  12.083  10.249  0.1071 -0.2410  0.1400
  571loPI    C2 9122   3.757  12.293  10.587  0.2711 -0.1641  0.1124
  571loPI    C3 9123   4.115  12.264  10.411  0.1296  0.0586 -0.2236
  571loPI   PO4 9124   3.757  12.189   9.953 -0.0517 -0.1677  0.3658
  571loPI   GL1 9125   3.791  11.984   9.502  0.5095 -0.2120 -0.0292
  571loPI   GL2 9126   3.801  12.375   9.502 -0.2488  0.4202 -0.2424
  571loPI   C1A 9127   3.625  11.842   9.103  0.0021 -0.0837  0.0753
  571loPI   C2A 9128   3.461  11.521   8.712  0.2227 -0.3492 -0.3750
  571loPI   C3A 9129   3.415  11.338   8.303 -0.0871 -0.0775 -0.1661
  571loPI   C4A 9130   3.495  11.297   7.841  0.2542  0.2236  0.0167
  571loPI   C5A 9131   3.506  11.343   7.399 -0.3373 -0.2638 -0.2011
  571loPI   C6A 9132   3.337  11.014   7.141 -0.0665  0.1088 -0.3091
  571loPI   C1B 9133   3.775  12.359   9.100 -0.3072  0.0381 -0.0346
  571loPI   C2B 9134   3.869  12.369   8.645  0.1600  0.0124  0.2358
  571loPI   C3B 9135   3.667  12.252   8.166 -0.0365  0.0232 -0.0436
  571loPI   C4B 9136   3.470  12.356   7.884  0.2908 -0.2673  0.1602
  572loPI    C1 9137  10.290   1.018   9.850 -0.2864  0.3240  0.0648
  572loPI    C2 9138  10.571   0.882  10.100 -0.1646  0.0400 -0.2200
  572loPI    C3 9139  10.400   1.238  10.165  0.2055  0.1825 -0.0010
  572loPI   PO4 9140  10.194   0.856   9.680  0.0961  0.2835 -0.0849
  572loPI   GL1 9141  10.229   0.735   9.317 -0.3978 -0.2509  0.2565
  572loPI   GL2 9142   9.891   0.674   9.234 -0.4633  0.1592 -0.3241
  572loPI   C1A 9143  10.251   0.554   8.899 -0.0687 -0.2626 -0.0900
  572loPI   C2A 9144  10.119   0.462   8.503 -0.0315 -0.2188 -0.1678
  572loPI   C3A 9145  10.132   0.547   8.062 -0.1316 -0.1271 -0.0964
  572loPI   C4A 9146  10.310   0.310   7.721  0.1563 -0.0448 -0.0082
  572loPI   C5A 9147  10.205  -0.207   7.616  0.0433  0.1848  0.0568
  572loPI   C6A 9148  10.259  -0.784   7.703  0.1652  0.0357 -0.3171
  572loPI   C1B 9149   9.876   0.201   9.031  0.0920 -0.2334  0.3337
  572loPI   C2B 9150   9.753   0.109   8.553  0.2073 -0.0978  0.0444
  572loPI   C3B 9151   9.513   0.289   8.185  0.1136  0.0643  0.2942
  572loPI   C4B 9152   9.385   0.130   7.742 -0.1742  0.1393 -0.0021
  573loPI    C1 9153  19.213  17.086  10.053  0.0075  0.0857 -0.0057
  573loPI    C2 9154  18.974  17.284  10.306  0.0296  0.2657 -0.1238
  573loPI    C3 9155  19.179  16.964  10.433 -0.0463  0.2870  0.0551
  573loPI   PO4 9156  19.276  17.271   9.890 -0.0166 -0.0252  0.1766
  573loPI   GL1 9157  19.351  17.196   9.492  0.1733 -0.1350  0.1099
  573loPI   GL2 9158  18.992  17.286   9.347 -0.0143 -0.0029 -0.0252
  573loPI   C1A 9159  19.441  16.967   9.173  0.0932 -0.0626 -0.0243
  573loPI   C2A 9160  19.561  17.040   8.742 -0.1465 -0.3381  0.1542
  573loPI   C3A 9161  19.604  16.919   8.363 -0.0101 -0.3442  0.0302
  573loPI   C4A 9162  19.643  16.888   7.835 -0.2248  0.2420 -0.3594
  573loPI   C5A 9163  19.711  17.082   7.356  0.0348  0.2297 -0.2620
  573loPI   C6A 9164  19.759  17.579   7.112 -0.2589  0.1867 -0.1248
  573loPI   C1B 9165  19.076  17.148   8.886  0.2270 -0.2161 -0.0017
  573loPI   C2B 9166  19.198  17.257   8.469 -0.0152  0.4126 -0.0303
  573loPI   C3B 9167  19.377  17.279   7.988  0.2937  0.1516 -0.1286
  573loPI   C4B 9168  19.631  17.435   7.664  0.2068  0.0411  0.0514
  574loPI    C1 9169  17.278   2.761  10.071  0.0680 -0.0068  0.0930
  574loPI    C2 9170  16.943   2.974  10.021 -0.0029 -0.1360  0.0094
  574loPI    C3 9171  17.043   2.840  10.385  0.0059 -0.0206  0.0500
  574loPI   PO4 9172  17.313   2.665   9.708 -0.0155 -0.2603 -0.3372
  574loPI   GL1 9173  17.528   2.703   9.305 -0.0584  0.0779  0.1235
  574loPI   GL2 9174  17.568   2.444   9.329 -0.4595  0.0231 -0.3764
  574loPI   C1A 9175  17.600   2.774   8.946  0.1191  0.1256  0.2698
  574loPI   C2A 9176  17.813   2.604   8.591 -0.1556  0.1619  0.1027
  574loPI   C3A 9177  17.855   2.442   8.155  0.1646  0.0749  0.1688
  574loPI   C4A 9178  17.882   2.255   7.793 -0.0139  0.2161 -0.0110
  574loPI   C5A 9179  17.699   2.167   7.547  0.2132  0.0861  0.3469
  574loPI   C6A 9180  17.701   2.016   7.143  0.0354  0.1104 -0.1309
  574loPI   C1B 9181  17.679   2.306   8.929  0.3089 -0.1968 -0.1983
  574loPI   C2B 9182  17.441   2.318   8.514 -0.0837 -0.0715  0.0359
  574loPI   C3B 9183  17.299   2.342   8.093  0.0477  0.0933 -0.0472
  574loPI   C4B 9184  17.364   2.020   7.883  0.1003 -0.2033 -0.1842
  575loPI    C1 9185  12.790   4.845   9.897 -0.0542 -0.2665 -0.0200
  575loPI    C2 9186  12.500   4.583   9.810 -0.0221 -0.3473  0.1128
  575loPI    C3 9187  12.829   4.461  10.002  0.0053 -0.2144  0.1518
  575loPI   PO4 9188  12.899   4.969   9.665 -0.5671 -0.0960  0.2429
  575loPI   GL1 9189  13.058   4.894   9.254 -0.1415 -0.0120  0.2949
  575loPI   GL2 9190  13.139   5.122   8.989 -0.0024  0.0580  0.0394
  575loPI   C1A 9191  12.972   4.692   8.908  0.1547 -0.0024  0.2519
  575loPI   C2A 9192  13.167   4.733   8.463  0.0610 -0.0778 -0.1989
  575loPI   C3A 9193  13.110   4.638   8.026  0.2094  0.4987  0.2048
  575loPI   C4A 9194  13.030   4.430   7.655  0.0649 -0.2225  0.4031
  575loPI   C5A 9195  12.989   4.130   7.373  0.2388 -0.0055  0.0358
  575loPI   C6A 9196  12.984   3.878   7.051  0.2232  0.0152  0.0446
  575loPI   C1B 9197  13.261   5.197   8.575 -0.1952  0.0565 -0.0653
  575loPI   C2B 9198  13.317   5.099   8.124 -0.2940  0.2705  0.0447
  575loPI   C3B 9199  13.429   4.994   7.733  0.0919 -0.1752 -0.0616
  575loPI   C4B 9200  13.446   5.039   7.276  0.0964 -0.0325  0.1679
  576loPI    C1 9201   0.195   5.206   9.667 -0.1836  0.0671  0.0243
  576loPI    C2 9202   0.031   5.522   9.851  0.0178  0.1573  0.0515
  576loPI    C3 9203  -0.095   5.152   9.938 -0.0320  0.2125  0.2190
  576loPI   PO4 9204   0.127   5.227   9.345 -0.1739 -0.0647 -0.0888
  576loPI   GL1 9205  -0.163   5.282   9.077  0.2525  0.0922  0.2596
  576loPI   GL2 9206  -0.078   5.525   8.929  0.1682 -0.0208  0.1090
  576loPI   C1A 9207  -0.101   5.023   8.625  0.1631  0.0209  0.0761
  576loPI   C2A 9208  -0.378   4.832   8.222 -0.2932 -0.1063 -0.1185
  576loPI   C3A 9209  -0.179   4.889   7.718  0.2679  0.0608  0.1231
  576loPI   C4A 9210  -0.140   4.783   7.291 -0.2061  0.2719 -0.0054
  576loPI   C5A 9211  -0.294   4.565   6.984 -0.1022  0.0506  0.1744
  576loPI   C6A 9212  -0.196   4.052   6.755 -0.1935  0.0488 -0.1165
  576loPI   C1B 9213  -0.128   5.561   8.464 -0.1524  0.0527  0.2699
  576loPI   C2B 9214  -0.110   5.671   7.918  0.0423  0.1255 -0.4290
  576loPI   C3B 9215  -0.156   5.667   7.455  0.2052  0.2722  0.0601
  576loPI   C4B 9216   0.049   5.717   7.055 -0.0274  0.0883 -0.0295
  577loPI    C1 9217  18.587  15.393   9.892 -0.2523  0.0102  0.0493
  577loPI    C2 9218  18.478  15.566  10.236 -0.1827  0.0226  0.0653
  577loPI    C3 9219  18.585  15.180  10.230  0.0423  0.0831  0.0999
  577loPI   PO4 9220  18.433  15.504   9.689 -0.2277  0.0203 -0.1944
  577loPI   GL1 9221  18.421  15.883   9.451 -0.1067  0.1236 -0.1077
  577loPI   GL2 9222  18.703  15.952   9.485 -0.3716 -0.1555 -0.1489
  577loPI   C1A 9223  18.400  15.886   9.018 -0.0750  0.1507 -0.1012
  577loPI   C2A 9224  18.331  15.790   8.644  0.0583  0.0484 -0.0759
  577loPI   C3A 9225  18.380  15.773   8.255 -0.0499 -0.1928  0.5591
  577loPI   C4A 9226  18.355  15.694   7.856 -0.3287  0.1895 -0.0144
  577loPI   C5A 9227  18.349  15.863   7.558 -0.1241 -0.0225 -0.0585
  577loPI   C6A 9228  18.426  16.341   7.561  0.2542 -0.2014 -0.0549
  577loPI   C1B 9229  18.994  16.047   9.104  0.0069 -0.1712 -0.1831
  577loPI   C2B 9230  19.257  16.010   8.763 -0.3364  0.2534  0.0866
  577loPI   C3B 9231  19.303  15.863   8.335 -0.1499  0.1695 -0.0770
  577loPI   C4B 9232  19.159  16.045   7.917 -0.2608  0.0704  0.0489
  578loPI    C1 9233  10.514  12.803  10.029 -0.2147  0.0435 -0.1725
  578loPI    C2 9234  10.750  13.072  10.208 -0.1429 -0.1384  0.0108
  578loPI    C3 9235  10.358  13.064  10.290 -0.1423 -0.1001  0.0172
  578loPI   PO4 9236  10.608  12.868   9.720  0.1092  0.2754  0.1825
  578loPI   GL1 9237  10.653  13.058   9.367  0.1664 -0.2362 -0.1016
  578loPI   GL2 9238  10.718  13.340   9.338  0.2000  0.0909  0.0429
  578loPI   C1A 9239  10.672  12.653   9.029  0.2607  0.1114 -0.4272
  578loPI   C2A 9240  10.746  12.653   8.635 -0.0427  0.0007  0.0816
  578loPI   C3A 9241  10.778  12.781   8.206 -0.1223 -0.4416 -0.2427
  578loPI   C4A 9242  10.907  12.809   7.671 -0.2322 -0.0026 -0.1668
  578loPI   C5A 9243  11.116  12.889   7.288  0.0678 -0.0937 -0.1308
  578loPI   C6A 9244  11.370  12.704   6.992  0.1231  0.1177  0.1340
  578loPI   C1B 9245  10.725  13.134   8.894 -0.1368  0.1841  0.2443
  578loPI   C2B 9246  10.709  13.227   8.430 -0.0849  0.2550  0.0085
  578loPI   C3B 9247  10.718  13.199   7.981 -0.1768  0.0848 -0.1044
  578loPI   C4B 9248  10.903  13.348   7.591  0.0525 -0.0155  0.2735
  579loPI    C1 9249   4.548   3.781   9.343  0.1590 -0.0508  0.0548
  579loPI    C2 9250   4.396   3.418   9.414 -0.2453  0.1029  0.0008
  579loPI    C3 9251   4.586   3.616   9.705  0.1040 -0.2065 -0.0097
  579loPI   PO4 9252   4.566   3.720   8.957  0.0539 -0.2458  0.0437
  579loPI   GL1 9253   4.581   3.390   8.537  0.1436  0.0476 -0.0361
  579loPI   GL2 9254   4.379   3.164   8.393 -0.0719 -0.2907  0.1273
  579loPI   C1A 9255   4.489   3.595   8.142 -0.0967 -0.1832  0.3552
  579loPI   C2A 9256   4.323   3.594   7.772  0.1410  0.0610  0.1811
  579loPI   C3A 9257   4.079   3.660   7.441  0.0350  0.2782  0.0566
  579loPI   C4A 9258   4.162   3.809   6.912 -0.1042 -0.1561  0.0022
  579loPI   C5A 9259   4.158   4.069   6.599  0.4033  0.3976  0.0104
  579loPI   C6A 9260   4.320   4.347   6.222  0.2731  0.1398 -0.0856
  579loPI   C1B 9261   4.135   3.088   7.984  0.2719 -0.1745  0.0477
  579loPI   C2B 9262   4.135   3.095   7.514  0.1757 -0.0408 -0.1740
  579loPI   C3B 9263   4.099   3.178   7.097 -0.0749 -0.0233  0.0047
  579loPI   C4B 9264   4.074   3.309   6.679  0.1803 -0.0910 -0.4000
  580loPI    C1 9265   5.868   9.147   9.591  0.1958 -0.0797 -0.0803
  580loPI    C2 9266   5.957   8.765   9.669  0.4259 -0.0187 -0.0368
  580loPI    C3 9267   5.921   9.027   9.969  0.0648 -0.0474 -0.0513
  580loPI   PO4 9268   5.562   9.163   9.408 -0.0931 -0.1481  0.0442
  580loPI   GL1 9269   5.159   9.111   9.068 -0.0637  0.0300  0.4394
  580loPI   GL2 9270   5.452   9.086   8.967 -0.1831 -0.4254  0.0554
  580loPI   C1A 9271   4.904   9.077   8.762 -0.0399  0.2364  0.1072
  580loPI   C2A 9272   4.975   9.092   8.379 -0.0794  0.0559 -0.0469
  580loPI   C3A 9273   4.802   9.191   8.023  0.1670  0.1729 -0.1479
  580loPI   C4A 9274   4.471   9.387   7.697  0.0084  0.0199  0.1903
  580loPI   C5A 9275   4.466   9.554   7.290 -0.0091  0.2460  0.2622
  580loPI   C6A 9276   4.351   9.916   7.103 -0.0018 -0.1114  0.1923
  580loPI   C1B 9277   5.335   9.418   8.646  0.0266  0.2899  0.2009
  580loPI   C2B 9278   5.233   9.575   8.289  0.1865  0.0206 -0.0022
  580loPI   C3B 9279   5.145   9.596   7.863  0.3185 -0.1240 -0.2407
  580loPI   C4B 9280   5.197   9.663   7.469 -0.0255  0.0268  0.0190
  581loPI    C1 9281   8.366   3.522   8.810  0.0975 -0.1092  0.2803
  581loPI    C2 9282   8.131   3.325   8.554  0.0485  0.3081 -0.0069
  581loPI    C3 9283   7.998   3.411   8.921  0.0350 -0.0988  0.0882
  581loPI   PO4 9284   8.508   3.670   8.645 -0.4162  0.2432 -0.0001
  581loPI   GL1 9285   8.667   3.538   8.282 -0.0523 -0.0791  0.1364
  581loPI   GL2 9286   8.584   3.196   8.269  0.0200  0.0129 -0.0270
  581loPI   C1A 9287   8.490   3.567   7.836 -0.3335  0.0755  0.3402
  581loPI   C2A 9288   8.276   3.489   7.397  0.0190  0.2022 -0.0102
  581loPI   C3A 9289   8.271   3.257   7.152 -0.1036 -0.1948 -0.0728
  581loPI   C4A 9290   8.412   3.269   6.685  0.1166 -0.1894  0.0582
  581loPI   C5A 9291   8.622   3.334   6.259 -0.3015  0.3083 -0.0987
  581loPI   C6A 9292   8.401   3.273   5.833  0.1510 -0.2478  0.1363
  581loPI   C1B 9293   8.726   3.098   7.967  0.0057 -0.1101  0.3706
  581loPI   C2B 9294   8.856   3.336   7.599 -0.2338 -0.0848 -0.0886
  581loPI   C3B 9295   9.165   3.306   7.330  0.3409  0.0714  0.1284
  581loPI   C4B 9296   9.200   3.316   6.954  0.2330  0.3384  0.1408
  582loPI    C1 9297  14.381   8.644   9.799  0.0392 -0.1189  0.3195
  582loPI    C2 9298  14.015   8.656   9.636  0.1318 -0.2563  0.0957
  582loPI    C3 9299  14.092   8.404   9.937 -0.0347 -0.0163  0.3444
  582loPI   PO4 9300  14.493   8.686   9.548  0.0159 -0.1890 -0.0931
  582loPI   GL1 9301  14.268   8.666   9.184 -0.2937 -0.0316 -0.0150
  582loPI   GL2 9302  14.234   8.972   9.174  0.1133 -0.1991 -0.0377
  582loPI   C1A 9303  14.421   8.524   8.790 -0.0152  0.0292 -0.1050
  582loPI   C2A 9304  14.345   8.444   8.356 -0.1245 -0.0282 -0.2234
  582loPI   C3A 9305  14.127   8.594   7.927 -0.1151  0.1797 -0.2490
  582loPI   C4A 9306  14.123   8.574   7.600 -0.1371 -0.1391  0.0476
  582loPI   C5A 9307  14.080   8.223   7.291 -0.0050  0.2295  0.2696
  582loPI   C6A 9308  14.432   8.017   6.985 -0.0113  0.0315  0.2183
  582loPI   C1B 9309  14.232   8.983   8.693 -0.1977  0.2337 -0.4065
  582loPI   C2B 9310  14.217   8.950   8.292 -0.2427 -0.2459  0.3228
  582loPI   C3B 9311  14.043   9.064   7.839  0.0442 -0.1694 -0.1353
  582loPI   C4B 9312  13.984   9.041   7.309  0.2662  0.2033 -0.0139
  583loPI    C1 9313  10.313  17.904  10.021 -0.3501 -0.0067  0.1423
  583loPI    C2 9314  10.457  17.688  10.326 -0.3045 -0.0411  0.0967
  583loPI    C3 9315  10.401  18.082  10.369 -0.0602 -0.0012  0.0693
  583loPI   PO4 9316  10.449  17.794   9.819 -0.2346 -0.0859  0.2113
  583loPI   GL1 9317  10.393  17.510   9.502  0.1548 -0.5230 -0.1678
  583loPI   GL2 9318  10.227  17.204   9.556  0.5249 -0.0560  0.2768
  583loPI   C1A 9319  10.549  17.398   9.075  0.2592 -0.1179 -0.1590
  583loPI   C2A 9320  10.822  17.253   8.772  0.4538  0.1334  0.0361
  583loPI   C3A 9321  10.925  17.111   8.317 -0.2848  0.0136  0.1425
  583loPI   C4A 9322  10.597  17.109   7.958 -0.0281  0.0625  0.1914
  583loPI   C5A 9323  10.301  17.351   7.606 -0.2034 -0.3481 -0.1680
  583loPI   C6A 9324  10.018  17.505   7.262 -0.2194  0.0204  0.0458
  583loPI   C1B 9325  10.046  17.297   9.000 -0.0680  0.1431  0.0468
  583loPI   C2B 9326   9.943  17.325   8.596  0.2162 -0.3623 -0.0878
  583loPI   C3B 9327  10.183  17.230   8.250 -0.1706  0.0932  0.0530
  583loPI   C4B 9328  10.146  16.884   7.885  0.2619 -0.3164 -0.0467
  584loPI    C1 9329  16.440  16.493  10.350  0.1421 -0.1782 -0.2411
  584loPI    C2 9330  16.384  16.153  10.147  0.3167 -0.2087 -0.2396
  584loPI    C3 9331  16.719  16.206  10.359 -0.0211 -0.3311  0.3464
  584loPI   PO4 9332  16.274  16.576  10.340  0.2353  0.0751 -0.0090
  584loPI   GL1 9333  16.046  16.500   9.920 -0.1857  0.0102  0.0480
  584loPI   GL2 9334  16.257  16.353   9.705 -0.4856 -0.1471  0.0284
  584loPI   C1A 9335  15.861  16.437   9.482  0.0340 -0.0858  0.0676
  584loPI   C2A 9336  15.772  16.706   9.154 -0.1346  0.1576  0.0580
  584loPI   C3A 9337  15.758  16.854   8.754 -0.0649  0.0988  0.1828
  584loPI   C4A 9338  15.822  16.961   8.327  0.1549 -0.1089  0.2285
  584loPI   C5A 9339  15.708  17.005   7.908 -0.1038 -0.1415 -0.0384
  584loPI   C6A 9340  15.846  17.302   7.601 -0.2758  0.3342  0.4695
  584loPI   C1B 9341  16.273  16.270   9.273  0.1403 -0.1428 -0.4539
  584loPI   C2B 9342  16.484  16.238   8.811 -0.3112  0.2903 -0.0255
  584loPI   C3B 9343  16.232  16.044   8.473  0.0867  0.0607  0.0589
  584loPI   C4B 9344  16.117  15.904   7.990 -0.1000 -0.0271 -0.0163
  585loPI    C1 9345  14.523  12.955  10.247 -0.1767 -0.2244 -0.2382
  585loPI    C2 9346  14.804  12.733  10.425  0.0175  0.1924 -0.0081
  585loPI    C3 9347  14.426  12.601  10.408  0.1331 -0.1645  0.0930
  585loPI   PO4 9348  14.543  13.037   9.973 -0.1153 -0.1767  0.3297
  585loPI   GL1 9349  14.423  13.357   9.740 -0.1978 -0.2857  0.1086
  585loPI   GL2 9350  14.155  13.533   9.692  0.3654  0.0479 -0.2246
  585loPI   C1A 9351  14.547  13.387   9.330 -0.4802  0.0883  0.1994
  585loPI   C2A 9352  14.524  13.541   8.973  0.1779  0.3130 -0.0040
  585loPI   C3A 9353  14.505  13.526   8.612  0.0657  0.0011 -0.0300
  585loPI   C4A 9354  14.586  13.571   8.191 -0.1006  0.0601  0.0454
  585loPI   C5A 9355  14.510  13.666   7.742 -0.1195 -0.0125  0.0248
  585loPI   C6A 9356  14.180  13.786   7.470  0.0771 -0.1367  0.2733
  585loPI   C1B 9357  14.080  13.574   9.216  0.4744  0.1432  0.0916
  585loPI   C2B 9358  14.050  13.566   8.870 -0.3379 -0.0757 -0.1996
  585loPI   C3B 9359  14.057  13.688   8.461 -0.2211 -0.0881 -0.2879
  585loPI   C4B 9360  14.069  13.667   7.996  0.2411  0.0546 -0.3179
  586loPI    C1 9361   5.762  17.346   9.814  0.4752  0.2176 -0.0783
  586loPI    C2 9362   5.990  17.033   9.913  0.2062  0.0242 -0.0566
  586loPI    C3 9363   5.763  17.211  10.191  0.3370  0.2236 -0.0750
  586loPI   PO4 9364   5.623  17.315   9.553 -0.2002 -0.0473  0.1554
  586loPI   GL1 9365   5.736  17.312   9.175 -0.0029 -0.1326 -0.1493
  586loPI   GL2 9366   6.023  17.316   8.970 -0.0663 -0.2682  0.1150
  586loPI   C1A 9367   5.569  17.412   8.735 -0.3359  0.0617  0.0071
  586loPI   C2A 9368   5.493  17.216   8.252  0.1498  0.3089  0.2683
  586loPI   C3A 9369   5.182  17.072   7.861 -0.2557 -0.2477 -0.1109
  586loPI   C4A 9370   5.337  16.930   7.462  0.1478  0.4311  0.0259
  586loPI   C5A 9371   5.478  16.973   7.053 -0.0891  0.1377  0.1086
  586loPI   C6A 9372   5.678  16.791   6.674  0.2587 -0.3330  0.1198
  586loPI   C1B 9373   5.870  17.090   8.585  0.0032  0.1600 -0.1735
  586loPI   C2B 9374   6.001  17.092   8.160 -0.0444  0.0372  0.0104
  586loPI   C3B 9375   6.237  17.260   7.743 -0.0173 -0.3821  0.1555
  586loPI   C4B 9376   6.386  17.013   7.417 -0.0586  0.1150  0.3663
  587loPI    C1 9377   4.121   5.338   9.132  0.4626  0.0734  0.1170
  587loPI    C2 9378   3.897   5.480   9.431  0.1011 -0.2763  0.0203
  587loPI    C3 9379   4.272   5.362   9.502  0.0966 -0.1396  0.2859
  587loPI   PO4 9380   3.942   5.278   8.927 -0.0534  0.0940 -0.2625
  587loPI   GL1 9381   4.016   5.339   8.511  0.0555 -0.0893 -0.1270
  587loPI   GL2 9382   3.767   5.639   8.504 -0.0155 -0.0861 -0.0686
  587loPI   C1A 9383   4.014   5.319   8.064  0.1193  0.0902 -0.4495
  587loPI   C2A 9384   3.935   5.434   7.644 -0.0457  0.2106  0.2871
  587loPI   C3A 9385   3.781   5.297   7.249  0.0094 -0.0871 -0.0093
  587loPI   C4A 9386   3.664   5.159   6.880  0.0194 -0.0432 -0.2832
  587loPI   C5A 9387   3.964   5.434   6.588 -0.0507 -0.1205  0.1091
  587loPI   C6A 9388   4.456   5.521   6.562 -0.0359 -0.2896  0.0322
  587loPI   C1B 9389   3.748   5.963   8.198  0.1040 -0.1656 -0.0483
  587loPI   C2B 9390   3.662   6.107   7.720 -0.2415 -0.6344  0.0866
  587loPI   C3B 9391   3.373   6.180   7.318 -0.2070 -0.0630  0.0518
  587loPI   C4B 9392   3.301   6.210   6.934  0.1353  0.1931 -0.0269
  588loPI    C1 9393  12.714   0.838  10.157 -0.2139 -0.2077 -0.0687
  588loPI    C2 9394  12.542   1.085  10.421 -0.1286 -0.1017 -0.1117
  588loPI    C3 9395  12.927   0.986  10.462 -0.0960 -0.0289 -0.2357
  588loPI   PO4 9396  12.825   0.941   9.903 -0.0822 -0.2047  0.1971
  588loPI   GL1 9397  12.663   1.206   9.456  0.3557 -0.1976 -0.0057
  588loPI   GL2 9398  12.597   1.572   9.594  0.0495  0.1759  0.0505
  588loPI   C1A 9399  12.655   1.271   8.977  0.0285  0.0210  0.2926
  588loPI   C2A 9400  12.426   1.301   8.631  0.0918 -0.0357 -0.0610
  588loPI   C3A 9401  12.373   1.265   8.218 -0.4037  0.0775  0.2655
  588loPI   C4A 9402  12.458   1.241   7.780  0.1901 -0.2209  0.4665
  588loPI   C5A 9403  12.349   1.475   7.435 -0.4421 -0.1184 -0.1832
  588loPI   C6A 9404  11.994   1.732   7.505 -0.0665 -0.0552 -0.0414
  588loPI   C1B 9405  12.455   1.683   9.175  0.0673  0.0052 -0.3120
  588loPI   C2B 9406  12.412   1.784   8.660  0.0669  0.0237  0.2029
  588loPI   C3B 9407  12.334   1.758   8.332  0.6504 -0.1451 -0.0806
  588loPI   C4B 9408  12.410   1.676   7.924 -0.1127  0.1387 -0.1186
  589loPI    C1 9409  11.949  13.719  10.124 -0.0612 -0.1251 -0.1612
  589loPI    C2 9410  11.977  14.040  10.363 -0.1380 -0.1297 -0.1457
  589loPI    C3 9411  12.039  13.673  10.511 -0.0887 -0.1251 -0.1549
  589loPI   PO4 9412  11.778  13.784   9.953 -0.1433  0.2048  0.3291
  589loPI   GL1 9413  11.664  13.828   9.624  0.1331  0.0248 -0.3200
  589loPI   GL2 9414  11.459  14.051   9.511  0.2133 -0.1393 -0.4288
  589loPI   C1A 9415  11.672  13.730   9.220  0.0071 -0.0313 -0.2414
  589loPI   C2A 9416  11.533  13.817   8.812  0.1940  0.2786  0.1963
  589loPI   C3A 9417  11.541  13.688   8.453 -0.0195 -0.3208 -0.4698
  589loPI   C4A 9418  11.718  13.485   8.143 -0.0014 -0.1285  0.1536
  589loPI   C5A 9419  11.910  13.375   7.818 -0.2011 -0.1298  0.4220
  589loPI   C6A 9420  11.989  13.044   7.535  0.0681  0.3325 -0.2368
  589loPI   C1B 9421  11.680  14.393   9.300 -0.3656 -0.1071 -0.1633
  589loPI   C2B 9422  11.552  14.369   8.885  0.0505  0.2651 -0.0035
  589loPI   C3B 9423  11.508  14.195   8.475 -0.0150  0.0060  0.1650
  589loPI   C4B 9424  11.583  13.994   8.016  0.0850  0.3076 -0.1981
  590loPI    C1 9425   3.907   9.705  10.163 -0.0892 -0.2136 -0.1368
  590loPI    C2 9426   3.796   9.640  10.542  0.1992 -0.1070 -0.0316
  590loPI    C3 9427   3.532   9.592  10.246 -0.0579 -0.0895  0.1906
  590loPI   PO4 9428   4.064   9.906  10.052  0.0354  0.3224 -0.3055
  590loPI   GL1 9429   4.045   9.940   9.563 -0.2349 -0.1652  0.3575
  590loPI   GL2 9430   4.360  10.057   9.470 -0.0618  0.0781 -0.2913
  590loPI   C1A 9431   4.003   9.978   9.101  0.5177  0.0497  0.1892
  590loPI   C2A 9432   3.933  10.026   8.677  0.0073  0.2041  0.1139
  590loPI   C3A 9433   3.679   9.938   8.402  0.1673 -0.1743  0.0606
  590loPI   C4A 9434   3.760  10.050   8.026 -0.1089 -0.0823 -0.0387
  590loPI   C5A 9435   3.958  10.135   7.592 -0.3838  0.3854  0.1126
  590loPI   C6A 9436   3.939   9.738   7.333  0.2558  0.2411  0.1292
  590loPI   C1B 9437   4.366  10.396   9.044  0.0468  0.1370 -0.3056
  590loPI   C2B 9438   4.245  10.540   8.690 -0.1465 -0.2294  0.1370
  590loPI   C3B 9439   4.170  10.555   8.289 -0.0642  0.0272 -0.0674
  590loPI   C4B 9440   3.905  10.492   7.958 -0.1439 -0.1005 -0.1751
  591loPI    C1 9441   9.434   7.188   9.440 -0.0947  0.0025 -0.0570
  591loPI    C2 9442   9.746   7.364   9.618 -0.1540  0.0749 -0.0240
  591loPI    C3 9443   9.376   7.419   9.761 -0.1208 -0.5102  0.3192
  591loPI   PO4 9444   9.468   7.043   9.097 -0.4411 -0.0804 -0.2633
  591loPI   GL1 9445   9.657   7.171   8.675 -0.1665 -0.2016  0.2037
  591loPI   GL2 9446   9.735   7.533   8.548  0.0722  0.0197  0.0519
  591loPI   C1A 9447   9.638   7.101   8.279 -0.0853 -0.2145  0.0929
  591loPI   C2A 9448   9.632   7.239   7.850  0.0759 -0.2169  0.3778
  591loPI   C3A 9449   9.629   7.359   7.469  0.1031 -0.0352  0.0988
  591loPI   C4A 9450   9.721   7.377   7.054 -0.0179 -0.0143  0.0065
  591loPI   C5A 9451   9.934   7.382   6.641 -0.0946 -0.0444  0.0141
  591loPI   C6A 9452  10.231   7.272   6.247 -0.1321 -0.1685 -0.1597
  591loPI   C1B 9453  10.022   7.499   8.188  0.3289  0.0125 -0.0158
  591loPI   C2B 9454  10.048   7.561   7.777 -0.0656  0.0777  0.0026
  591loPI   C3B 9455  10.058   7.690   7.325 -0.1671  0.0461  0.0103
  591loPI   C4B 9456  10.435   7.699   6.995  0.1551 -0.2066 -0.0672
  592loPI    C1 9457   2.597   1.245   9.701  0.1752  0.0090  0.0790
  592loPI    C2 9458   2.773   1.579   9.833 -0.0491  0.0648  0.2433
  592loPI    C3 9459   2.578   1.341  10.089  0.0016 -0.1276  0.1055
  592loPI   PO4 9460   2.423   1.353   9.463  0.1720 -0.3309 -0.0323
  592loPI   GL1 9461   2.364   1.262   9.031  0.3807  0.1302  0.1580
  592loPI   GL2 9462   2.170   1.061   8.844  0.1779  0.1885  0.2472
  592loPI   C1A 9463   2.526   1.311   8.545  0.0029 -0.5228 -0.4711
  592loPI   C2A 9464   2.285   1.205   8.196  0.1689 -0.1035  0.0969
  592loPI   C3A 9465   1.927   1.050   7.978  0.1595  0.3034 -0.1555
  592loPI   C4A 9466   1.909   0.975   7.462  0.0989  0.0062  0.0752
  592loPI   C5A 9467   2.070   0.567   7.256 -0.0253 -0.2951 -0.2351
  592loPI   C6A 9468   2.450   0.354   7.124 -0.0744 -0.0897  0.2776
  592loPI   C1B 9469   2.455   0.795   8.669 -0.1089  0.2083  0.0994
  592loPI   C2B 9470   2.560   0.812   8.319  0.1799 -0.0220 -0.2278
  592loPI   C3B 9471   2.552   0.839   7.977 -0.0840  0.2552  0.4611
  592loPI   C4B 9472   2.425   0.986   7.559  0.0216 -0.1431  0.0367
  593loPI    C1 9473  11.282  13.636  10.069 -0.0418 -0.0315 -0.0208
  593loPI    C2 9474  11.447  13.941  10.269  0.0311  0.0064 -0.1376
  593loPI    C3 9475  11.521  13.564  10.382  0.0718  0.0276 -0.0932
  593loPI   PO4 9476  11.183  13.727   9.773  0.1753 -0.3561 -0.3262
  593loPI   GL1 9477  11.245  13.588   9.339 -0.0711 -0.1730 -0.1583
  593loPI   GL2 9478  11.338  13.334   9.326  0.3122  0.2928 -0.0251
  593loPI   C1A 9479  11.077  13.964   9.114  0.0991 -0.0061 -0.2708
  593loPI   C2A 9480  11.024  13.915   8.721 -0.0867 -0.3197  0.2226
  593loPI   C3A 9481  11.105  13.881   8.348  0.0636  0.2896  0.0979
  593loPI   C4A 9482  11.168  13.686   7.985  0.0639  0.0705 -0.3484
  593loPI   C5A 9483  11.461  13.650   7.664  0.2723  0.2219  0.3245
  593loPI   C6A 9484  11.725  13.461   7.303 -0.0634  0.2956 -0.1161
  593loPI   C1B 9485  11.305  13.367   8.834 -0.2502  0.4706  0.2609
  593loPI   C2B 9486  11.197  13.364   8.411 -0.0948  0.0948 -0.1252
  593loPI   C3B 9487  11.243  13.166   7.973 -0.2197  0.2586  0.0499
  593loPI   C4B 9488  11.439  13.140   7.585  0.3816 -0.1438  0.1245
  594loPI    C1 9489   4.414   1.732   9.326  0.2357 -0.1698 -0.1455
  594loPI    C2 9490   4.600   1.994   9.088 -0.1456  0.0252 -0.2375
  594loPI    C3 9491   4.551   2.076   9.476 -0.1877  0.0505 -0.2481
  594loPI   PO4 9492   4.290   1.619   9.019  0.0873  0.2916 -0.0428
  594loPI   GL1 9493   4.477   1.665   8.592  0.4083  0.4074 -0.3409
  594loPI   GL2 9494   4.667   1.923   8.596  0.2675 -0.2687 -0.2185
  594loPI   C1A 9495   4.333   1.500   8.183  0.0949  0.2446 -0.1412
  594loPI   C2A 9496   4.342   1.534   7.717 -0.0519  0.1058  0.0808
  594loPI   C3A 9497   4.067   1.496   7.379  0.0848  0.1466 -0.0871
  594loPI   C4A 9498   4.010   1.422   6.914  0.0351  0.0694 -0.0341
  594loPI   C5A 9499   4.417   1.442   6.708  0.0577 -0.2956  0.2775
  594loPI   C6A 9500   4.758   1.220   6.618 -0.1670 -0.4637 -0.0489
  594loPI   C1B 9501   4.904   1.724   8.250  0.1605  0.1454 -0.1128
  594loPI   C2B 9502   4.799   1.603   7.933  0.1418 -0.0823  0.0308
  594loPI   C3B 9503   4.822   1.646   7.415 -0.0437  0.2503  0.0736
  594loPI   C4B 9504   4.800   1.584   7.007 -0.1083  0.1671  0.2403
  595loPI    C1 9505   5.633   6.345   9.052  0.0470 -0.1291 -0.0977
  595loPI    C2 9506   5.632   5.959   9.155  0.0417 -0.1216 -0.0694
  595loPI    C3 9507   5.287   6.148   9.083  0.0256 -0.0522  0.1808
  595loPI   PO4 9508   5.841   6.295   8.846 -0.0713 -0.4402  0.1904
  595loPI   GL1 9509   5.988   6.063   8.432  0.0945  0.1477 -0.1735
  595loPI   GL2 9510   5.856   6.386   8.366  0.0196 -0.0546 -0.0999
  595loPI   C1A 9511   6.111   5.739   8.035  0.2761 -0.2323 -0.1512
  595loPI   C2A 9512   6.031   5.780   7.621 -0.4887  0.0539  0.2580
  595loPI   C3A 9513   6.017   5.695   7.301 -0.0571 -0.0689  0.1066
  595loPI   C4A 9514   5.838   5.675   6.930 -0.0879 -0.2874 -0.0379
  595loPI   C5A 9515   5.783   5.734   6.425  0.2499 -0.3757  0.2100
  595loPI   C6A 9516   5.634   5.735   6.015 -0.1400 -0.0121 -0.1420
  595loPI   C1B 9517   5.808   6.153   7.957  0.0947  0.0267 -0.1301
  595loPI   C2B 9518   5.700   6.214   7.555 -0.1170  0.1641 -0.0534
  595loPI   C3B 9519   5.615   6.158   7.110 -0.1440 -0.1028 -0.3205
  595loPI   C4B 9520   5.622   6.164   6.647 -0.1248 -0.1550  0.1492
  596loPI    C1 9521  18.014   4.505   9.629  0.1319 -0.1147 -0.2876
  596loPI    C2 9522  17.720   4.313   9.819  0.2884  0.0020  0.0825
  596loPI    C3 9523  18.016   4.106   9.648 -0.0012 -0.1160 -0.2917
  596loPI   PO4 9524  17.917   4.605   9.369  0.0747 -0.1239  0.0250
  596loPI   GL1 9525  17.738   4.830   9.038  0.0818  0.0984 -0.2311
  596loPI   GL2 9526  17.659   4.554   8.949 -0.0890  0.3210  0.1878
  596loPI   C1A 9527  17.442   4.970   8.771 -0.1967  0.0234 -0.0761
  596loPI   C2A 9528  17.273   5.043   8.406  0.2875  0.2212 -0.2290
  596loPI   C3A 9529  17.401   4.979   7.998 -0.0124 -0.5534 -0.1656
  596loPI   C4A 9530  17.179   5.128   7.656 -0.0493  0.1083  0.0560
  596loPI   C5A 9531  17.119   5.050   7.236  0.3771  0.4684 -0.0624
  596loPI   C6A 9532  17.010   5.173   6.814  0.1451 -0.1082 -0.2579
  596loPI   C1B 9533  17.710   4.510   8.526 -0.2588 -0.1185 -0.1669
  596loPI   C2B 9534  17.586   4.545   8.172 -0.1266 -0.2480 -0.0163
  596loPI   C3B 9535  17.554   4.564   7.749  0.1469 -0.0192  0.3356
  596loPI   C4B 9536  17.351   4.601   7.352 -0.0309 -0.2077  0.0571
  597loPI    C1 9537   8.547  15.704   9.706  0.2429  0.1765  0.1257
  597loPI    C2 9538   8.739  16.045   9.788  0.0817  0.3087 -0.0395
  597loPI    C3 9539   8.405  15.951   9.986  0.1569  0.2183  0.0456
  597loPI   PO4 9540   8.497  15.706   9.470 -0.0198 -0.3244  0.0978
  597loPI   GL1 9541   8.390  15.598   9.030 -0.1608 -0.0938  0.2291
  597loPI   GL2 9542   8.667  15.674   8.917 -0.1761  0.3594  0.1602
  597loPI   C1A 9543   8.136  15.689   8.672 -0.1313  0.2339  0.3059
  597loPI   C2A 9544   8.016  15.379   8.268  0.0890 -0.2137 -0.0407
  597loPI   C3A 9545   8.198  15.366   7.857 -0.0819  0.2169  0.2750
  597loPI   C4A 9546   8.567  15.117   7.585 -0.0229  0.2129  0.0911
  597loPI   C5A 9547   8.895  15.275   7.344  0.0393  0.0984  0.0398
  597loPI   C6A 9548   8.936  15.477   7.043 -0.2545  0.1805 -0.0755
  597loPI   C1B 9549   8.645  15.726   8.469  0.0390  0.2710 -0.3315
  597loPI   C2B 9550   8.454  15.780   8.084 -0.0445 -0.0129 -0.1142
  597loPI   C3B 9551   8.201  15.927   7.676  0.0702  0.0845  0.1870
  597loPI   C4B 9552   7.974  15.608   7.504  0.0323  0.0107  0.0585
  598loPI    C1 9553   5.840   4.045   8.997  0.0139  0.1976 -0.1159
  598loPI    C2 9554   5.612   4.099   9.321  0.0271 -0.0891 -0.0557
  598loPI    C3 9555   5.468   4.186   8.958 -0.0149  0.1599  0.0190
  598loPI   PO4 9556   5.948   3.796   8.903  0.1165 -0.1107 -0.1599
  598loPI   GL1 9557   5.879   3.775   8.480 -0.0867  0.0419  0.1992
  598loPI   GL2 9558   6.101   3.941   8.317 -0.0471  0.1216 -0.1827
  598loPI   C1A 9559   5.730   3.422   8.059 -0.5885  0.0558  0.1067
  598loPI   C2A 9560   5.715   3.339   7.640 -0.0914  0.2385 -0.4878
  598loPI   C3A 9561   5.582   3.293   7.201 -0.2239  0.1304  0.2511
  598loPI   C4A 9562   5.473   3.457   6.781 -0.1648  0.0583  0.1140
  598loPI   C5A 9563   5.032   3.459   6.622  0.0237 -0.0984  0.1043
  598loPI   C6A 9564   4.930   3.643   6.290 -0.0620  0.3885  0.0302
  598loPI   C1B 9565   5.942   3.810   7.826  0.0503 -0.2848 -0.1538
  598loPI   C2B 9566   6.001   3.769   7.457 -0.2504 -0.1995  0.0014
  598loPI   C3B 9567   5.837   3.716   7.099 -0.1828  0.1620 -0.3035
  598loPI   C4B 9568   6.003   3.848   6.605  0.3097  0.0005 -0.1517
  599loPI    C1 9569   4.845  14.142   9.698 -0.0904 -0.0517 -0.0707
  599loPI    C2 9570   4.978  14.203  10.070  0.1875  0.1107 -0.1942
  599loPI    C3 9571   4.830  13.846   9.967 -0.1879  0.1572  0.1580
  599loPI   PO4 9572   5.055  14.348   9.557  0.1314 -0.2213 -0.0455
  599loPI   GL1 9573   5.445  14.372   9.316  0.0926  0.0674 -0.1958
  599loPI   GL2 9574   5.501  14.653   9.368  0.2405  0.0141 -0.0480
  599loPI   C1A 9575   5.219  14.435   8.877  0.0729 -0.3760  0.0541
  599loPI   C2A 9576   5.226  14.364   8.316  0.1540  0.0545 -0.0078
  599loPI   C3A 9577   5.164  14.158   7.938  0.1573 -0.1346  0.1493
  599loPI   C4A 9578   5.060  14.292   7.529  0.1404 -0.1753 -0.1915
  599loPI   C5A 9579   5.090  14.405   7.021 -0.0337  0.2955  0.1852
  599loPI   C6A 9580   5.054  14.290   6.599  0.3483  0.0445 -0.0443
  599loPI   C1B 9581   5.736  14.494   8.949  0.0059 -0.0168  0.2804
  599loPI   C2B 9582   5.757  14.373   8.540 -0.0579 -0.0114 -0.3616
  599loPI   C3B 9583   5.740  14.325   8.075  0.1199  0.3624  0.5444
  599loPI   C4B 9584   5.621  14.089   7.771  0.1620 -0.0406 -0.0338
  600loPI    C1 9585  14.684   2.287  10.125 -0.1154 -0.0280 -0.0412
  600loPI    C2 9586  14.701   2.120  10.488 -0.2302  0.1319  0.0391
  600loPI    C3 9587  14.457   2.430  10.422 -0.2082  0.1050 -0.1747
  600loPI   PO4 9588  14.897   2.312  10.005 -0.3146  0.3397 -0.1216
  600loPI   GL1 9589  15.105   2.436   9.560  0.1214  0.2218 -0.1343
  600loPI   GL2 9590  15.376   2.163   9.378  0.1575 -0.0287 -0.0939
  600loPI   C1A 9591  15.199   2.607   9.226 -0.1241  0.1070 -0.2869
  600loPI   C2A 9592  15.126   2.527   8.769  0.2605 -0.0142 -0.4834
  600loPI   C3A 9593  15.137   2.476   8.370  0.0948  0.0084  0.1328
  600loPI   C4A 9594  15.145   2.345   7.979  0.2758  0.0570  0.0069
  600loPI   C5A 9595  14.991   2.174   7.563 -0.2230 -0.2007 -0.0061
  600loPI   C6A 9596  14.664   2.181   7.266  0.1617  0.0614 -0.0508
  600loPI   C1B 9597  15.438   2.058   8.982  0.0956  0.1079 -0.1975
  600loPI   C2B 9598  15.239   1.930   8.534  0.1280  0.1027 -0.0749
  600loPI   C3B 9599  15.130   1.791   8.103  0.0397  0.1584  0.0874
  600loPI   C4B 9600  15.027   1.632   7.714 -0.0257 -0.0994  0.0268
  601loPI    C1 9601  12.980  19.440  10.345 -0.0857 -0.0267 -0.1056
  601loPI    C2 9602  12.924  19.110  10.564  0.1015  0.0533  0.0666
  601loPI    C3 9603  13.160  19.403  10.700  0.4102  0.0045 -0.3444
  601loPI   PO4 9604  13.098  19.353  10.126  0.1447 -0.0701 -0.0928
  601loPI   GL1 9605  13.299  19.443   9.754 -0.1940  0.0680 -0.1677
  601loPI   GL2 9606  13.202  19.241   9.591 -0.0873 -0.0888  0.0910
  601loPI   C1A 9607  13.488  19.537   9.347 -0.2670  0.0544 -0.1564
  601loPI   C2A 9608  13.586  19.512   8.965  0.0746  0.3036 -0.1195
  601loPI   C3A 9609  13.556  19.691   8.629 -0.0975 -0.1024 -0.4528
  601loPI   C4A 9610  13.341  19.508   8.235 -0.0047  0.3050 -0.1532
  601loPI   C5A 9611  13.091  19.701   7.983  0.5458  0.0558 -0.1077
  601loPI   C6A 9612  12.748  19.546   7.647  0.0242 -0.0208  0.4154
  601loPI   C1B 9613  13.043  19.246   9.261 -0.0962 -0.2660 -0.0895
  601loPI   C2B 9614  13.213  19.265   8.734  0.2513  0.0074 -0.1860
  601loPI   C3B 9615  12.994  19.134   8.299  0.1637  0.0484 -0.0807
  601loPI   C4B 9616  12.878  18.794   7.996 -0.3823  0.1125 -0.2659
  602loPI    C1 9617   8.380   9.708   9.795 -0.1021  0.1194 -0.0894
  602loPI    C2 9618   8.535   9.628  10.155 -0.0428 -0.0109 -0.1432
  602loPI    C3 9619   8.563   9.358   9.860 -0.0933  0.0941 -0.2449
  602loPI   PO4 9620   8.410   9.944   9.726 -0.3077  0.0414 -0.1131
  602loPI   GL1 9621   8.434  10.081   9.312  0.1563 -0.0627  0.2037
  602loPI   GL2 9622   8.588  10.311   9.233  0.1937  0.1218 -0.0565
  602loPI   C1A 9623   8.234  10.166   8.819  0.3160 -0.1581 -0.2132
  602loPI   C2A 9624   8.200  10.264   8.313 -0.1144 -0.0704 -0.3232
  602loPI   C3A 9625   7.937  10.416   7.964 -0.1129 -0.0353  0.2923
  602loPI   C4A 9626   7.993  10.594   7.506  0.1689  0.0701 -0.2997
  602loPI   C5A 9627   8.009  10.925   7.190 -0.1134  0.0441  0.0792
  602loPI   C6A 9628   7.962  11.175   6.999  0.2483 -0.1807  0.0352
  602loPI   C1B 9629   8.666  10.481   8.896 -0.0821 -0.0217 -0.0209
  602loPI   C2B 9630   8.773  10.495   8.427  0.0339  0.0502  0.5349
  602loPI   C3B 9631   8.871  10.453   7.949 -0.2287  0.0401  0.2256
  602loPI   C4B 9632   9.047  10.099   7.756 -0.0525  0.3126  0.1839
  603loPI    C1 9633  18.608  14.516  10.048  0.2220 -0.1500  0.0314
  603loPI    C2 9634  18.275  14.325  10.160  0.1637 -0.1115 -0.0756
  603loPI    C3 9635  18.578  14.366  10.418 -0.0167  0.0845  0.1097
  603loPI   PO4 9636  18.626  14.493   9.883 -0.1083 -0.0459  0.1684
  603loPI   GL1 9637  18.453  14.456   9.482 -0.1953  0.2280  0.2071
  603loPI   GL2 9638  18.101  14.590   9.562 -0.1418  0.1607 -0.2014
  603loPI   C1A 9639  18.636  14.685   9.272 -0.0568  0.4815  0.0000
  603loPI   C2A 9640  18.606  14.822   8.835  0.0270 -0.0495  0.2333
  603loPI   C3A 9641  18.558  14.826   8.387 -0.0394 -0.0933  0.0460
  603loPI   C4A 9642  18.784  15.001   8.012 -0.2569  0.1129 -0.3169
  603loPI   C5A 9643  18.984  15.041   7.620 -0.0377 -0.1305  0.3620
  603loPI   C6A 9644  19.069  14.782   7.267 -0.0983  0.2104  0.1470
  603loPI   C1B 9645  18.165  14.733   9.087 -0.1138 -0.2937  0.1715
  603loPI   C2B 9646  18.120  14.749   8.643 -0.4875 -0.0907 -0.3345
  603loPI   C3B 9647  18.127  14.607   8.107 -0.2202 -0.3079 -0.4283
  603loPI   C4B 9648  18.370  14.509   7.780  0.2499  0.3675 -0.0738
  604loPI    C1 9649  10.184   5.421   9.440 -0.0762  0.0258  0.1407
  604loPI    C2 9650  10.524   5.438   9.649 -0.1438  0.0823  0.2472
  604loPI    C3 9651  10.207   5.243   9.797 -0.2534  0.2873  0.2863
  604loPI   PO4 9652  10.206   5.572   9.141 -0.2472 -0.0016 -0.2575
  604loPI   GL1 9653  10.065   5.504   8.757  0.2441  0.0640 -0.0699
  604loPI   GL2 9654  10.091   5.848   8.620 -0.4075  0.2763  0.2785
  604loPI   C1A 9655  10.419   5.501   8.434 -0.1123  0.0728 -0.2473
  604loPI   C2A 9656  10.580   5.562   8.056  0.0307  0.1701 -0.3869
  604loPI   C3A 9657  10.655   5.660   7.584 -0.5000 -0.0958  0.0583
  604loPI   C4A 9658  10.669   5.848   7.140 -0.1598  0.4832  0.0806
  604loPI   C5A 9659  10.623   6.146   6.806  0.2398  0.3224 -0.0373
  604loPI   C6A 9660  10.840   6.308   6.398 -0.1014 -0.3761 -0.0540
  604loPI   C1B 9661  10.092   5.759   8.189 -0.0123  0.2332  0.0027
  604loPI   C2B 9662  10.035   5.890   7.782  0.1176  0.1942 -0.1598
  604loPI   C3B 9663  10.171   6.086   7.422  0.0766  0.1636 -0.0892
  604loPI   C4B 9664  10.217   6.100   7.098 -0.0719  0.2608 -0.0075
  605loPI    C1 9665  13.146  15.584  10.159 -0.1039 -0.0552  0.0637
  605loPI    C2 9666  13.510  15.561  10.323 -0.1317 -0.0185  0.1312
  605loPI    C3 9667  13.314  15.227  10.223  0.0442 -0.0313 -0.1818
  605loPI   PO4 9668  13.241  15.757   9.980  0.1604 -0.1086 -0.2499
  605loPI   GL1 9669  13.334  15.865   9.587 -0.2231 -0.0113  0.0256
  605loPI   GL2 9670  13.028  15.758   9.526  0.2027  0.0197  0.0471
  605loPI   C1A 9671  13.164  16.180   9.248 -0.0406 -0.0367 -0.0222
  605loPI   C2A 9672  13.250  16.372   8.820 -0.0524 -0.0590 -0.0987
  605loPI   C3A 9673  13.126  16.402   8.503  0.2321  0.0135  0.0087
  605loPI   C4A 9674  13.270  16.524   8.101  0.1731 -0.1243 -0.0050
  605loPI   C5A 9675  13.519  16.433   7.680  0.1182 -0.1400 -0.0691
  605loPI   C6A 9676  13.963  16.554   7.722  0.0685  0.2665 -0.1533
  605loPI   C1B 9677  13.105  15.752   9.073  0.0324  0.0132 -0.0735
  605loPI   C2B 9678  13.164  15.837   8.584 -0.3126  0.2334  0.3417
  605loPI   C3B 9679  13.476  15.630   8.296  0.0324  0.0828 -0.2017
  605loPI   C4B 9680  13.564  15.398   7.896 -0.2559  0.0695  0.2892
  606loPI    C1 9681   4.719   2.469   9.178 -0.0760  0.3892 -0.1059
  606loPI    C2 9682   4.536   2.800   9.309  0.0389  0.2996  0.2955
  606loPI    C3 9683   4.834   2.638   9.521 -0.0898 -0.1262  0.1636
  606loPI   PO4 9684   4.826   2.521   8.945  0.0299  0.0679 -0.6943
  606loPI   GL1 9685   5.026   2.359   8.515 -0.2094  0.0237 -0.3439
  606loPI   GL2 9686   4.719   2.446   8.465  0.1060 -0.0575  0.2060
  606loPI   C1A 9687   4.938   2.212   8.075 -0.1779  0.3056  0.1429
  606loPI   C2A 9688   4.912   2.151   7.710  0.0886 -0.1448  0.0848
  606loPI   C3A 9689   4.923   2.147   7.313  0.0222  0.1270  0.0723
  606loPI   C4A 9690   4.769   2.219   7.009 -0.2548  0.2042  0.1696
  606loPI   C5A 9691   4.614   1.949   6.678  0.1969 -0.1453 -0.3545
  606loPI   C6A 9692   4.412   1.799   6.299 -0.1849 -0.0452  0.0337
  606loPI   C1B 9693   4.582   2.731   8.215  0.0275  0.1764  0.1962
  606loPI   C2B 9694   4.540   2.629   7.780 -0.0446 -0.4052 -0.1251
  606loPI   C3B 9695   4.499   2.626   7.405  0.0974 -0.5664 -0.0149
  606loPI   C4B 9696   4.093   2.677   7.171 -0.2681  0.2854 -0.0306
  607loPI    C1 9697  18.872   7.728   9.586 -0.1015 -0.1449  0.1173
  607loPI    C2 9698  18.913   7.877   9.956  0.1027 -0.3331  0.1723
  607loPI    C3 9699  18.913   7.481   9.898  0.0441 -0.3050 -0.0270
  607loPI   PO4 9700  19.052   7.986   9.357  0.1162  0.0667  0.0652
  607loPI   GL1 9701  19.105   7.830   9.039  0.1151 -0.0530  0.1063
  607loPI   GL2 9702  19.427   7.876   9.079 -0.0868 -0.0478  0.2256
  607loPI   C1A 9703  19.052   7.826   8.578 -0.0487  0.2131 -0.1176
  607loPI   C2A 9704  18.998   7.917   8.043 -0.0667  0.3663  0.0981
  607loPI   C3A 9705  18.973   8.188   7.596  0.0787  0.5278 -0.0410
  607loPI   C4A 9706  19.350   8.143   7.414 -0.1226  0.1135  0.4260
  607loPI   C5A 9707  19.526   7.798   7.418  0.0492  0.1914  0.1022
  607loPI   C6A 9708  19.502   7.402   7.257 -0.0179 -0.1700  0.0864
  607loPI   C1B 9709  19.533   8.004   8.730 -0.0962 -0.0331 -0.0843
  607loPI   C2B 9710  19.414   8.239   8.422 -0.3568  0.2085  0.1939
  607loPI   C3B 9711  19.308   8.312   8.042  0.0412  0.0378 -0.0683
  607loPI   C4B 9712  19.406   8.622   7.736  0.1198 -0.2078  0.0599
  608loPI    C1 9713   4.009   0.001   9.682 -0.4500  0.1101  0.2535
  608loPI    C2 9714   4.350   0.074   9.878 -0.2121 -0.0954 -0.0732
  608loPI    C3 9715   4.032  -0.066  10.075 -0.1176  0.1185  0.2387
  608loPI   PO4 9716   3.870   0.182   9.460 -0.1674 -0.0984 -0.2429
  608loPI   GL1 9717   3.967   0.001   9.057 -0.1484  0.1548  0.2569
  608loPI   GL2 9718   4.253  -0.032   8.795  0.1633 -0.0355 -0.0713
  608loPI   C1A 9719   3.787   0.180   8.700 -0.1052 -0.0828 -0.0365
  608loPI   C2A 9720   3.697   0.147   8.283  0.0486  0.3872 -0.0320
  608loPI   C3A 9721   3.785   0.272   7.905  0.3991 -0.0750 -0.1299
  608loPI   C4A 9722   3.754   0.177   7.477 -0.1690 -0.1959  0.0122
  608loPI   C5A 9723   3.849   0.476   7.144 -0.0504 -0.4090 -0.1201
  608loPI   C6A 9724   4.112   0.952   7.125 -0.0945  0.4288 -0.0539
  608loPI   C1B 9725   4.095  -0.116   8.454 -0.3018 -0.1007  0.0946
  608loPI   C2B 9726   4.029  -0.235   8.013  0.0978  0.2440 -0.2647
  608loPI   C3B 9727   3.830  -0.296   7.612 -0.1098 -0.0557 -0.5949
  608loPI   C4B 9728   3.841  -0.219   7.111  0.2455 -0.1086 -0.1915
  609POPI    C1 9729   3.121   9.982   9.793 -0.4563  0.1547 -0.0546
  609POPI    C2 9730   3.263  10.252  10.052  0.4779 -0.2678 -0.0867
  609POPI    C3 9731   3.295  10.316   9.658 -0.2999  0.0493 -0.1165
  609POPI   PO4 9732   3.181   9.678   9.922 -0.0258  0.2463 -0.1317
  609POPI   GL1 9733   3.287   9.462   9.611 -0.0288 -0.1260  0.1177
  609POPI   GL2 9734   3.038   9.559   9.347 -0.0507 -0.0724 -0.3731
  609POPI   C1A 9735   3.455   9.457   9.053  0.1213  0.2233  0.3384
  609POPI   D2A 9736   3.546   9.558   8.674 -0.0371  0.2006  0.1291
  609POPI   C3A 9737   3.148   9.553   8.366  0.0882  0.3669 -0.2324
  609POPI   C4A 9738   3.063   9.322   7.969 -0.1815 -0.1815  0.3135
  609POPI   C1B 9739   2.859   9.800   8.999  0.0808  0.5050 -0.0244
  609POPI   C2B 9740   2.936   9.975   8.612  0.2033  0.1727 -0.4131
  609POPI   C3B 9741   3.199  10.078   8.278 -0.2476  0.0887 -0.0642
  609POPI   C4B 9742   3.350   9.815   7.990  0.1488 -0.0374 -0.1104
  610POPI    C1 9743   2.988   5.358   9.159 -0.1398  0.4105  0.0095
  610POPI    C2 9744   2.700   5.334   9.435  0.1105  0.0732  0.2500
  610POPI    C3 9745   3.056   5.488   9.531  0.1848 -0.0056  0.1031
  610POPI   PO4 9746   2.964   5.455   9.008 -0.2893  0.0787 -0.1207
  610POPI   GL1 9747   2.720   5.317   8.711 -0.0894 -0.0213 -0.2221
  610POPI   GL2 9748   2.698   5.498   8.607 -0.3002 -0.0402  0.0567
  610POPI   C1A 9749   3.062   5.225   8.339 -0.0320  0.3011  0.1725
  610POPI   D2A 9750   3.061   5.446   7.957  0.2292 -0.0690 -0.2322
  610POPI   C3A 9751   2.893   5.505   7.511  0.1607 -0.2026 -0.1977
  610POPI   C4A 9752   2.684   5.484   7.161  0.0184 -0.3383 -0.1636
  610POPI   C1B 9753   2.749   5.765   8.193 -0.1887 -0.1007 -0.1981
  610POPI   C2B 9754   2.876   5.979   7.766 -0.0993  0.0174  0.0858
  610POPI   C3B 9755   2.840   6.045   7.314 -0.0943 -0.3110  0.1679
  610POPI   C4B 9756   2.833   6.118   6.846  0.4246  0.2515 -0.1452
  611POPI    C1 9757   1.888   1.313   9.231 -0.0433  0.4144  0.0618
  611POPI    C2 9758   1.542   1.336   9.432  0.0102  0.2627  0.1728
  611POPI    C3 9759   1.861   1.164   9.601 -0.0121 -0.0946 -0.1332
  611POPI   PO4 9760   1.782   1.301   8.995 -0.0725  0.2815 -0.0994
  611POPI   GL1 9761   1.726   1.161   8.539  0.0592 -0.0912 -0.0623
  611POPI   GL2 9762   1.394   1.111   8.636 -0.0316  0.3863  0.1887
  611POPI   C1A 9763   1.586   0.744   8.295  0.0146 -0.2402 -0.3604
  611POPI   D2A 9764   1.682   0.502   7.984 -0.0030  0.1259 -0.0369
  611POPI   C3A 9765   1.601   0.543   7.561  0.1099  0.1829 -0.0203
  611POPI   C4A 9766   1.218   0.523   7.217 -0.0307  0.2407  0.2300
  611POPI   C1B 9767   1.275   1.126   8.176  0.0837  0.0569 -0.0057
  611POPI   C2B 9768   1.338   1.033   7.786  0.0315  0.1274 -0.1229
  611POPI   C3B 9769   1.400   0.986   7.350 -0.2372 -0.0469 -0.3673
  611POPI   C4B 9770   1.100   0.899   6.965 -0.1177  0.2065  0.0013
  612POPI    C1 9771   3.328  11.624  10.098  0.1684 -0.0181  0.0228
  612POPI    C2 9772   3.658  11.728   9.897  0.0947  0.0961 -0.0402
  612POPI    C3 9773   3.689  11.565  10.261  0.2367 -0.2625 -0.2076
  612POPI   PO4 9774   3.164  11.670   9.848 -0.1087  0.2469 -0.1932
  612POPI   GL1 9775   3.049  11.708   9.488 -0.2285  0.0563 -0.0511
  612POPI   GL2 9776   2.688  11.802   9.554 -0.2387 -0.0672 -0.1732
  612POPI   C1A 9777   3.128  11.746   9.018 -0.1564 -0.3133 -0.1266
  612POPI   D2A 9778   2.930  11.678   8.634 -0.2096 -0.2165 -0.0560
  612POPI   C3A 9779   2.910  11.882   8.284  0.1493  0.1099 -0.4799
  612POPI   C4A 9780   2.708  11.751   7.887  0.6383 -0.0235 -0.0943
  612POPI   C1B 9781   2.635  11.706   9.068  0.0012  0.0661  0.3535
  612POPI   C2B 9782   2.492  11.994   8.598 -0.0406 -0.0282  0.1646
  612POPI   C3B 9783   2.345  11.996   8.188 -0.6962  0.0296  0.0676
  612POPI   C4B 9784   1.916  12.198   7.887 -0.1890  0.1716 -0.2848
  613POPI    C1 9785  10.305  18.593  10.182  0.0640 -0.2620  0.2110
  613POPI    C2 9786  10.601  18.860  10.156 -0.0850 -0.1268 -0.1753
  613POPI    C3 9787  10.351  18.869  10.468  0.0463  0.0413 -0.0725
  613POPI   PO4 9788  10.330  18.451   9.964 -0.2355  0.1572 -0.0314
  613POPI   GL1 9789  10.630  18.512   9.698 -0.0335  0.0010 -0.0475
  613POPI   GL2 9790  10.517  18.213   9.568  0.2039 -0.1516  0.2378
  613POPI   C1A 9791  10.721  18.469   9.150 -0.0937  0.0419  0.2885
  613POPI   D2A 9792  10.795  18.661   8.728 -0.0166  0.2243  0.1383
  613POPI   C3A 9793  10.665  18.516   8.322 -0.3664  0.0572  0.0915
  613POPI   C4A 9794  10.674  18.526   7.979  0.1969 -0.1643 -0.2078
  613POPI   C1B 9795  10.751  17.979   9.107 -0.0011  0.1251 -0.0502
  613POPI   C2B 9796  10.725  18.139   8.695  0.4545 -0.2617 -0.1757
  613POPI   C3B 9797  10.779  18.082   8.199 -0.0958 -0.0279  0.0618
  613POPI   C4B 9798  10.756  18.024   7.688  0.0307 -0.0068 -0.3164
  614POPI    C1 9799   9.272   9.744   9.684 -0.3260 -0.0338 -0.0854
  614POPI    C2 9800   8.913   9.782   9.856 -0.2846 -0.0226 -0.0012
  614POPI    C3 9801   9.157  10.098   9.831 -0.2681 -0.0377 -0.0304
  614POPI   PO4 9802   9.269   9.658   9.366  0.3373 -0.1771 -0.0473
  614POPI   GL1 9803   9.315   9.939   8.983  0.0725  0.1697 -0.1211
  614POPI   GL2 9804   9.443  10.183   9.132  0.3868 -0.0287  0.1354
  614POPI   C1A 9805   9.447  10.038   8.580 -0.0629 -0.0406 -0.0294
  614POPI   D2A 9806   9.236  10.123   8.240 -0.1340 -0.0342  0.1222
  614POPI   C3A 9807   9.332  10.489   7.968 -0.1633 -0.1921  0.3946
  614POPI   C4A 9808   9.293  10.821   7.699  0.0177  0.2760 -0.0307
  614POPI   C1B 9809   9.167  10.380   8.786 -0.1155 -0.3583  0.0719
  614POPI   C2B 9810   9.239  10.671   8.444  0.0501  0.0652  0.0508
  614POPI   C3B 9811   9.535  10.909   8.263  0.0937  0.0136 -0.0610
  614POPI   C4B 9812   9.807  10.802   7.864 -0.2651 -0.1935  0.0447
  615POPI    C1 9813   7.820  15.986   9.464  0.1499 -0.0645 -0.0985
  615POPI    C2 9814   7.983  15.850   9.804 -0.0904  0.2382  0.1438
  615POPI    C3 9815   7.643  16.060   9.815 -0.0928  0.2660 -0.2858
  615POPI   PO4 9816   8.046  15.827   9.311  0.2013  0.0746 -0.0768
  615POPI   GL1 9817   8.369  16.076   9.024 -0.0357  0.0436 -0.1683
  615POPI   GL2 9818   8.680  16.124   8.783 -0.0789  0.0933 -0.0869
  615POPI   C1A 9819   8.058  16.162   8.714 -0.0375 -0.3991  0.1998
  615POPI   D2A 9820   7.969  16.055   8.249  0.3242  0.2717 -0.0886
  615POPI   C3A 9821   7.533  16.138   7.947  0.0206 -0.2582  0.2012
  615POPI   C4A 9822   7.107  16.292   8.110 -0.2762 -0.1178 -0.3825
  615POPI   C1B 9823   8.628  16.206   8.373 -0.4988  0.1290 -0.0238
  615POPI   C2B 9824   8.428  16.305   7.940  0.1555  0.4568  0.2150
  615POPI   C3B 9825   8.241  16.460   7.540 -0.2037 -0.3596  0.1203
  615POPI   C4B 9826   8.013  16.601   7.145 -0.4112 -0.0822  0.0950
  616POPI    C1 9827   8.015   1.967   9.189  0.1498  0.1474  0.2396
  616POPI    C2 9828   7.750   1.814   9.447  0.0258  0.0707  0.0696
  616POPI    C3 9829   7.866   2.196   9.481  0.0185  0.0583  0.2435
  616POPI   PO4 9830   7.832   1.861   8.944 -0.0942 -0.2666  0.0287
  616POPI   GL1 9831   7.754   1.617   8.530  0.0060 -0.0218 -0.1161
  616POPI   GL2 9832   7.704   1.924   8.400 -0.4319  0.0487 -0.0096
  616POPI   C1A 9833   7.937   1.500   8.137 -0.2289 -0.0200  0.0975
  616POPI   D2A 9834   8.039   1.545   7.629  0.0033 -0.1636  0.2843
  616POPI   C3A 9835   8.028   1.264   7.255 -0.0438 -0.2373  0.0513
  616POPI   C4A 9836   8.284   1.258   6.887 -0.1451  0.5220 -0.0062
  616POPI   C1B 9837   7.711   1.894   7.891  0.0586 -0.3022 -0.0258
  616POPI   C2B 9838   7.632   1.865   7.423 -0.3063 -0.1332 -0.3646
  616POPI   C3B 9839   7.500   2.075   7.054  0.1218  0.1058  0.3909
  616POPI   C4B 9840   7.752   2.118   6.648  0.1294  0.1066  0.0739
  617POPI    C1 9841   4.083   7.196   9.203  0.0278  0.0850 -0.0271
  617POPI    C2 9842   4.362   7.230   9.487 -0.0187  0.4049 -0.0161
  617POPI    C3 9843   3.976   7.208   9.588  0.0029 -0.1646 -0.0244
  617POPI   PO4 9844   4.188   7.403   9.045  0.3934  0.2126 -0.3272
  617POPI   GL1 9845   4.199   7.539   8.678  0.2931  0.1329 -0.1984
  617POPI   GL2 9846   4.212   7.262   8.576 -0.0407 -0.0958  0.1839
  617POPI   C1A 9847   3.946   7.590   8.348 -0.0909 -0.0232  0.0699
  617POPI   D2A 9848   3.912   7.634   7.983  0.0842  0.4012 -0.1134
  617POPI   C3A 9849   3.900   7.530   7.550  0.0192 -0.0791  0.3729
  617POPI   C4A 9850   3.601   7.360   7.460 -0.0592 -0.2483  0.0041
  617POPI   C1B 9851   4.384   7.423   8.202  0.1213 -0.2585  0.3149
  617POPI   C2B 9852   4.345   7.743   7.816  0.2035  0.2048  0.0909
  617POPI   C3B 9853   4.272   7.843   7.334  0.3345  0.1914  0.0415
  617POPI   C4B 9854   4.036   7.948   6.955 -0.2416  0.2524 -0.1049
  618POPI    C1 9855   4.684  18.934   9.140  0.1156  0.0065  0.0621
  618POPI    C2 9856   4.648  19.326   9.071 -0.0975 -0.0156  0.0403
  618POPI    C3 9857   4.990  19.179   9.216  0.0701  0.1440 -0.1869
  618POPI   PO4 9858   4.603  18.844   8.948 -0.1505 -0.3621 -0.0627
  618POPI   GL1 9859   4.603  18.771   8.671  0.1486  0.2441  0.1691
  618POPI   GL2 9860   4.218  18.771   8.632  0.1809  0.0129 -0.1003
  618POPI   C1A 9861   4.453  18.888   8.180 -0.2200  0.2055 -0.0261
  618POPI   D2A 9862   4.316  18.909   7.708  0.4090  0.4303  0.2709
  618POPI   C3A 9863   4.239  18.550   7.593 -0.0006  0.3538  0.2123
  618POPI   C4A 9864   4.169  18.032   7.640  0.2566  0.0499 -0.3739
  618POPI   C1B 9865   4.007  18.686   8.177 -0.0776 -0.0398 -0.1568
  618POPI   C2B 9866   3.792  18.767   7.834 -0.0419  0.1001 -0.0315
  618POPI   C3B 9867   3.619  18.776   7.521  0.0551  0.1682 -0.1430
  618POPI   C4B 9868   3.353  18.515   7.378 -0.2157 -0.0065  0.3423
  619POPI    C1 9869  13.050   9.216   9.936  0.2953  0.1321  0.0351
  619POPI    C2 9870  13.209   8.970  10.208  0.0491 -0.0067  0.0568
  619POPI    C3 9871  13.021   9.303  10.326  0.0514 -0.0028  0.0493
  619POPI   PO4 9872  13.255   9.135   9.726 -0.0200  0.1552  0.1258
  619POPI   GL1 9873  13.145   8.797   9.380  0.2440 -0.0530 -0.0131
  619POPI   GL2 9874  13.319   8.975   9.216  0.0031  0.0319  0.0450
  619POPI   C1A 9875  12.800   8.564   8.822  0.0635 -0.2900 -0.1238
  619POPI   D2A 9876  12.711   8.637   8.342  0.0566 -0.0352  0.0573
  619POPI   C3A 9877  12.607   9.018   8.162  0.2542 -0.0020  0.2645
  619POPI   C4A 9878  12.566   9.162   7.661 -0.0770  0.2924 -0.3528
  619POPI   C1B 9879  13.073   9.037   8.911 -0.0902 -0.0602 -0.1299
  619POPI   C2B 9880  13.078   8.991   8.528  0.0223  0.3108  0.1337
  619POPI   C3B 9881  13.126   9.098   8.162 -0.1960  0.2184  0.3821
  619POPI   C4B 9882  13.269   9.008   7.808  0.1556 -0.2080 -0.1093
  620POPI    C1 9883  11.024  10.979   9.868  0.0472 -0.0785 -0.0869
  620POPI    C2 9884  10.981  10.779  10.212 -0.0234 -0.1934 -0.1618
  620POPI    C3 9885  11.311  10.997  10.147 -0.0668 -0.0674  0.0308
  620POPI   PO4 9886  10.777  10.854   9.638  0.2522 -0.2404  0.2554
  620POPI   GL1 9887  10.689  10.737   9.200  0.1839 -0.0363 -0.1003
  620POPI   GL2 9888  10.939  10.567   9.016 -0.2076  0.0060 -0.2950
  620POPI   C1A 9889  10.717  10.965   8.822 -0.1572  0.2411 -0.1956
  620POPI   D2A 9890  10.939  11.150   8.544 -0.2124 -0.0011  0.1976
  620POPI   C3A 9891  10.785  11.252   8.083  0.1602 -0.1324  0.0487
  620POPI   C4A 9892  10.846  11.172   7.611  0.0754 -0.3677 -0.2483
  620POPI   C1B 9893  11.324  10.701   8.667  0.0703  0.1705  0.0551
  620POPI   C2B 9894  11.302  10.890   8.334  0.0521  0.0164 -0.4068
  620POPI   C3B 9895  11.203  10.994   7.905  0.4546 -0.0554  0.0238
  620POPI   C4B 9896  11.498  11.223   7.780  0.0074 -0.0415 -0.0699
  621POPI    C1 9897  17.009  18.637   9.559 -0.1529 -0.3555  0.2669
  621POPI    C2 9898  17.072  18.978   9.758  0.0320 -0.3023  0.1199
  621POPI    C3 9899  16.723  18.916   9.573  0.1073 -0.0592 -0.1098
  621POPI   PO4 9900  17.200  18.512   9.772 -0.1915  0.1818  0.0703
  621POPI   GL1 9901  17.495  18.205   9.610 -0.2147  0.0015  0.1788
  621POPI   GL2 9902  17.572  17.868   9.533 -0.1696  0.1093 -0.1241
  621POPI   C1A 9903  17.360  18.454   9.167 -0.2208 -0.0117  0.1177
  621POPI   D2A 9904  17.187  18.555   8.776  0.0441 -0.2189  0.1710
  621POPI   C3A 9905  17.283  18.300   8.298 -0.0486 -0.2581  0.0369
  621POPI   C4A 9906  17.473  18.328   7.869  0.1937 -0.1189  0.3794
  621POPI   C1B 9907  17.493  17.941   9.048 -0.0109 -0.1457  0.1367
  621POPI   C2B 9908  17.460  18.030   8.620  0.1928 -0.0731 -0.1271
  621POPI   C3B 9909  17.318  17.799   8.238 -0.1659  0.1100  0.2207
  621POPI   C4B 9910  17.037  17.515   7.995  0.0802  0.0982 -0.3010
  622POPI    C1 9911  15.537  15.373  10.369 -0.0375  0.0625 -0.0068
  622POPI    C2 9912  15.380  15.719  10.494 -0.2038 -0.0545  0.1136
  622POPI    C3 9913  15.777  15.679  10.461 -0.1892  0.1893 -0.0290
  622POPI   PO4 9914  15.393  15.186  10.041  0.1821  0.1208  0.1902
  622POPI   GL1 9915  15.172  15.350   9.665  0.0812 -0.0326 -0.1251
  622POPI   GL2 9916  15.106  15.065   9.647  0.0753  0.4398  0.3096
  622POPI   C1A 9917  15.090  15.645   9.286 -0.0367 -0.3493  0.1496
  622POPI   D2A 9918  15.097  16.097   8.988  0.2058  0.1331 -0.2137
  622POPI   C3A 9919  15.253  16.103   8.532 -0.0112  0.0703 -0.0651
  622POPI   C4A 9920  15.179  16.141   8.065 -0.0120 -0.0130 -0.2055
  622POPI   C1B 9921  15.210  15.206   9.202 -0.0669 -0.2191 -0.1431
  622POPI   C2B 9922  15.117  15.199   8.784 -0.4730  0.2614 -0.1355
  622POPI   C3B 9923  15.110  15.205   8.326 -0.0334 -0.2184  0.1848
  622POPI   C4B 9924  15.156  15.234   7.925  0.0422  0.2559 -0.1103
  623POPI    C1 9925  13.517   3.253   9.917  0.0380 -0.0478  0.2775
  623POPI    C2 9926  13.446   3.643   9.869  0.2044 -0.0202  0.2515
  623POPI    C3 9927  13.176   3.374   9.747  0.2104  0.0778  0.0168
  623POPI   PO4 9928  13.697   3.096   9.769 -0.0785 -0.0514 -0.0933
  623POPI   GL1 9929  13.769   3.026   9.355 -0.0586  0.1188 -0.2391
  623POPI   GL2 9930  14.040   3.236   9.334  0.0279 -0.1245 -0.1378
  623POPI   C1A 9931  13.443   3.061   8.992  0.3250  0.1924 -0.0893
  623POPI   D2A 9932  13.370   3.202   8.680 -0.0954 -0.0628  0.0027
  623POPI   C3A 9933  13.032   3.522   8.703  0.2891  0.0159  0.1428
  623POPI   C4A 9934  12.931   3.862   8.967  0.2477  0.0329  0.1334
  623POPI   C1B 9935  13.971   3.254   8.872 -0.1099  0.3911 -0.1814
  623POPI   C2B 9936  13.806   3.410   8.511  0.0039  0.0848  0.0305
  623POPI   C3B 9937  13.489   3.491   8.133 -0.2613 -0.0580 -0.0943
  623POPI   C4B 9938  13.039   3.620   8.182  0.0528 -0.0069 -0.0162
  624POPI    C1 9939  12.265  13.201  10.659  0.2048  0.2245 -0.1985
  624POPI    C2 9940  12.638  13.216  10.516  0.3179 -0.0322  0.0606
  624POPI    C3 9941  12.527  13.463  10.810  0.3007  0.0026  0.0250
  624POPI   PO4 9942  12.133  13.182  10.398  0.0145  0.0120 -0.0249
  624POPI   GL1 9943  12.321  13.040  10.096  0.1836  0.2170 -0.0433
  624POPI   GL2 9944  12.491  13.243   9.913 -0.3558  0.1114 -0.0947
  624POPI   C1A 9945  12.099  12.844   9.908  0.0989 -0.0024  0.1043
  624POPI   D2A 9946  11.781  12.812   9.540  0.0507  0.0518 -0.0383
  624POPI   C3A 9947  11.641  12.485   9.286  0.1344  0.2415 -0.0218
  624POPI   C4A 9948  11.657  12.019   9.089 -0.0879  0.2297 -0.2593
  624POPI   C1B 9949  12.126  13.335   9.650 -0.1591 -0.0498  0.3431
  624POPI   C2B 9950  11.799  13.280   9.395 -0.1501  0.2696 -0.1627
  624POPI   C3B 9951  11.785  13.049   9.104  0.0836 -0.0983  0.2401
  624POPI   C4B 9952  11.615  12.705   8.834  0.0053  0.2078  0.3544
  625DPPI    C1 9953  15.231  16.415  10.247 -0.1102 -0.0597  0.2038
  625DPPI    C2 9954  15.238  16.782  10.408 -0.1165 -0.0658  0.2179
  625DPPI    C3 9955  14.997  16.501  10.561 -0.0730 -0.0911  0.2400
  625DPPI   PO4 9956  15.244  16.535   9.976 -0.0983  0.1116 -0.0096
  625DPPI   GL1 9957  14.906  16.721   9.686 -0.4078 -0.0678 -0.3474
  625DPPI   GL2 9958  14.790  16.904   9.863  0.1704 -0.0759  0.3403
  625DPPI   C1A 9959  15.044  16.585   9.274  0.2756  0.1439 -0.3344
  625DPPI   C2A 9960  15.281  16.632   8.815  0.2670 -0.0171 -0.1743
  625DPPI   C3A 9961  15.512  16.555   8.381  0.3278  0.1219  0.0337
  625DPPI   C4A 9962  15.456  16.532   7.890  0.1549 -0.2701 -0.1322
  625DPPI   C1B 9963  14.909  17.112   9.410 -0.1392  0.0716 -0.2269
  625DPPI   C2B 9964  15.241  17.188   8.997 -0.2845  0.0363  0.0598
  625DPPI   C3B 9965  15.296  17.072   8.590  0.0909 -0.1399  0.1156
  625DPPI   C4B 9966  15.355  17.121   8.182 -0.0596 -0.1379 -0.3453
  626DPPI    C1 9967   3.629  14.442   9.840 -0.0919  0.0333 -0.0691
  626DPPI    C2 9968   3.644  14.298  10.213 -0.1465  0.1094 -0.0373
  626DPPI    C3 9969   3.834  14.107   9.917 -0.0162  0.1060  0.0480
  626DPPI   PO4 9970   3.391  14.478   9.769 -0.0326 -0.2547  0.1333
  626DPPI   GL1 9971   3.329  14.512   9.349  0.0669 -0.0972 -0.0751
  626DPPI   GL2 9972   3.713  14.635   9.382 -0.0379  0.2723 -0.1879
  626DPPI   C1A 9973   3.306  14.250   8.999 -0.1256 -0.0533 -0.1293
  626DPPI   C2A 9974   3.446  14.156   8.479  0.0016  0.0632 -0.0338
  626DPPI   C3A 9975   3.455  14.148   8.023 -0.0659  0.2373 -0.0475
  626DPPI   C4A 9976   3.632  14.174   7.642  0.0888  0.0047  0.0840
  626DPPI   C1B 9977   3.702  14.548   9.033 -0.1970 -0.3772  0.1849
  626DPPI   C2B 9978   3.790  14.474   8.649  0.0468  0.0952  0.1815
  626DPPI   C3B 9979   3.912  14.343   8.240  0.0822  0.1029 -0.0447
  626DPPI   C4B 9980   4.062  14.305   7.774  0.2433 -0.1146  0.0598
  627DPPI    C1 9981   5.248  15.837   9.908  0.1707 -0.1784 -0.1090
  627DPPI    C2 9982   5.597  16.027   9.953 -0.0802  0.3258 -0.2146
  627DPPI    C3 9983   5.342  16.003  10.260  0.0597 -0.0805 -0.1246
  627DPPI   PO4 9984   5.190  15.838   9.638  0.1575  0.0247 -0.1982
  627DPPI   GL1 9985   5.094  15.997   9.368 -0.0542  0.1219  0.0492
  627DPPI   GL2 9986   4.639  16.196   9.241  0.2281 -0.0267 -0.1579
  627DPPI   C1A 9987   4.975  15.982   8.959 -0.1690 -0.1924 -0.2359
  627DPPI   C2A 9988   4.663  16.000   8.651  0.0406  0.1929  0.3050
  627DPPI   C3A 9989   4.319  16.060   8.391 -0.0478  0.4815  0.2545
  627DPPI   C4A 9990   3.957  16.330   8.351  0.0796  0.3207 -0.0935
  627DPPI   C1B 9991   4.804  16.519   8.939  0.0242 -0.0346  0.2880
  627DPPI   C2B 9992   5.000  16.699   8.611  0.2502  0.3999  0.0562
  627DPPI   C3B 9993   5.171  16.708   8.136  0.1645 -0.5072  0.2609
  627DPPI   C4B 9994   5.201  16.537   7.761  0.1343  0.1095  0.0734
  628DPPI    C1 9995   3.301   7.353   9.706 -0.1221 -0.0030  0.1984
  628DPPI    C2 9996   3.189   7.358  10.090 -0.2110  0.1903  0.1711
  628DPPI    C3 9997   3.077   7.654   9.845 -0.0289  0.1453  0.0315
  628DPPI   PO4 9998   3.201   7.199   9.577  0.0047  0.1741  0.1262
  628DPPI   GL1 9999   3.066   7.198   9.095 -0.1798 -0.1008 -0.2197
  628DPPI   GL210000   3.288   6.997   8.954 -0.1823  0.4352 -0.0822
  628DPPI   C1A10001   3.035   7.495   8.829  0.0354 -0.2385  0.3763
  628DPPI   C2A10002   3.082   7.586   8.389 -0.0186  0.1231 -0.1985
  628DPPI   C3A10003   2.837   7.807   8.073  0.3521  0.0246 -0.0532
  628DPPI   C4A10004   3.115   8.169   7.921 -0.0035 -0.0180  0.3301
  628DPPI   C1B10005   2.919   7.027   8.609 -0.4539  0.2695 -0.1009
  628DPPI   C2B10006   2.721   7.131   8.256  0.1949 -0.0841  0.2235
  628DPPI   C3B10007   2.690   7.238   7.837  0.0133 -0.0368  0.1983
  628DPPI   C4B10008   2.572   7.634   7.587 -0.1952 -0.0770  0.1120
  629DPPI    C110009   7.779   6.242   8.704  0.0906 -0.0459  0.0894
  629DPPI    C210010   7.560   6.176   9.033  0.0833  0.0950  0.1133
  629DPPI    C310011   7.782   6.508   9.003  0.0500  0.1045 -0.0423
  629DPPI   PO410012   7.907   5.948   8.706 -0.0779 -0.1150 -0.1033
  629DPPI   GL110013   8.111   5.668   8.525  0.0319 -0.0575 -0.1841
  629DPPI   GL210014   8.449   5.728   8.471  0.1169  0.1026  0.0956
  629DPPI   C1A10015   8.040   5.519   8.094 -0.1108 -0.1061 -0.2951
  629DPPI   C2A10016   8.280   5.384   7.676 -0.1266 -0.3564 -0.0141
  629DPPI   C3A10017   8.349   5.295   7.267 -0.1108 -0.2160 -0.0186
  629DPPI   C4A10018   8.639   5.283   6.853  0.5312  0.1687  0.3120
  629DPPI   C1B10019   8.589   5.594   8.015  0.0622 -0.0474  0.0487
  629DPPI   C2B10020   8.717   5.616   7.547  0.3228 -0.3006  0.2216
  629DPPI   C3B10021   8.933   5.544   7.206 -0.0665  0.2542  0.0739
  629DPPI   C4B10022   9.038   5.549   6.729  0.0324 -0.1936 -0.1691
  630DPPI    C110023  18.394   6.094   9.505  0.1516 -0.1976  0.1631
  630DPPI    C210024  18.559   6.172   9.861  0.0228 -0.0943  0.2008
  630DPPI    C310025  18.216   5.968   9.840  0.0790 -0.1822  0.1306
  630DPPI   PO410026  18.661   6.074   9.321 -0.1015 -0.2590  0.0158
  630DPPI   GL110027  18.774   6.020   8.910 -0.1796 -0.4396  0.2517
  630DPPI   GL210028  18.562   5.795   8.850  0.1709 -0.2879  0.0837
  630DPPI   C1A10029  18.918   5.777   8.573 -0.0074  0.4555 -0.2084
  630DPPI   C2A10030  18.939   5.734   8.088 -0.2843 -0.1007  0.0160
  630DPPI   C3A10031  19.144   6.056   7.701  0.4685 -0.1720  0.1403
  630DPPI   C4A10032  19.464   6.163   7.355 -0.0755  0.0015  0.0921
  630DPPI   C1B10033  18.488   5.909   8.401  0.1236  0.0001  0.2074
  630DPPI   C2B10034  18.501   5.899   7.875 -0.2793 -0.1995  0.1326
  630DPPI   C3B10035  18.847   5.720   7.550  0.0591 -0.1770 -0.3050
  630DPPI   C4B10036  19.068   5.965   7.154 -0.3809 -0.0342 -0.0648
  631DPPI    C110037  11.296   1.079   9.874  0.1067  0.1427  0.2431
  631DPPI    C210038  11.006   1.069  10.149 -0.0181  0.0823  0.1107
  631DPPI    C310039  11.315   1.319  10.193 -0.1678  0.2575  0.1756
  631DPPI   PO410040  11.106   1.139   9.650 -0.0837 -0.0966 -0.0231
  631DPPI   GL110041  10.857   1.346   9.306 -0.1413 -0.0679  0.0788
  631DPPI   GL210042  10.969   1.621   9.221  0.2708 -0.1068 -0.1777
  631DPPI   C1A10043  10.526   1.106   9.017  0.0503  0.0572  0.0756
  631DPPI   C2A10044  10.082   0.998   8.763  0.0815 -0.0217 -0.0695
  631DPPI   C3A10045   9.764   0.736   8.749 -0.2745 -0.0110 -0.1736
  631DPPI   C4A10046   9.436   0.423   8.763  0.4588  0.1412 -0.2953
  631DPPI   C1B10047  11.096   1.541   8.723  0.2050 -0.2782 -0.0156
  631DPPI   C2B10048  10.981   1.802   8.292 -0.3071 -0.1116 -0.5184
  631DPPI   C3B10049  11.026   2.186   8.053 -0.1688 -0.0915 -0.2366
  631DPPI   C4B10050  11.090   2.493   7.697  0.0469 -0.2561  0.4133
  632DPPI    C110051  11.285  14.394  10.163 -0.0519  0.1109  0.2184
  632DPPI    C210052  11.614  14.412  10.390  0.0655  0.1403  0.0479
  632DPPI    C310053  11.343  14.705  10.408  0.0837  0.1523  0.1351
  632DPPI   PO410054  11.328  14.430   9.931 -0.1198  0.3391  0.3174
  632DPPI   GL110055  11.093  14.625   9.514  0.0639  0.0391 -0.1370
  632DPPI   GL210056  10.943  14.879   9.579 -0.0516  0.2655  0.2544
  632DPPI   C1A10057  11.113  14.516   9.067  0.2349  0.1445 -0.0205
  632DPPI   C2A10058  11.047  14.417   8.600  0.1808 -0.0571 -0.0481
  632DPPI   C3A10059  11.114  14.424   8.106  0.0145  0.0102  0.1257
  632DPPI   C4A10060  11.160  14.289   7.693  0.1801  0.0530  0.1554
  632DPPI   C1B10061  10.946  14.981   9.125 -0.4004 -0.0663  0.2146
  632DPPI   C2B10062  10.840  15.092   8.716 -0.3099 -0.1277  0.4013
  632DPPI   C3B10063  11.008  15.037   8.300 -0.2618  0.4954  0.1204
  632DPPI   C4B10064  10.733  15.114   7.940 -0.1749  0.5058  0.2789
  633DPPI    C110065  10.047  17.472   9.979 -0.0110 -0.0073 -0.1283
  633DPPI    C210066   9.742  17.315  10.185  0.0155 -0.1850 -0.2219
  633DPPI    C310067  10.118  17.224  10.285  0.0535  0.2927  0.1048
  633DPPI   PO410068   9.928  17.607   9.731  0.3442 -0.2928  0.2269
  633DPPI   GL110069   9.856  17.768   9.383  0.1047 -0.2619 -0.3363
  633DPPI   GL210070   9.755  17.676   9.224  0.0456 -0.2982  0.0451
  633DPPI   C1A10071  10.209  17.875   9.222 -0.1480  0.0223  0.1152
  633DPPI   C2A10072  10.325  17.762   8.769  0.4056 -0.0339 -0.0914
  633DPPI   C3A10073  10.439  17.713   8.393 -0.2521  0.3212  0.0702
  633DPPI   C4A10074  10.630  17.573   7.915 -0.3729  0.3749 -0.0268
  633DPPI   C1B10075   9.641  17.761   8.868  0.1459 -0.2110  0.0526
  633DPPI   C2B10076   9.595  17.706   8.517 -0.1454  0.1083 -0.1479
  633DPPI   C3B10077   9.896  17.667   8.234  0.3165  0.0277  0.3343
  633DPPI   C4B10078  10.115  17.738   7.994  0.1964  0.0698  0.1114
  634DPPI    C110079   3.812   8.361   9.440 -0.0236  0.3546  0.2461
  634DPPI    C210080   3.745   8.633   9.154 -0.1058  0.1681  0.0857
  634DPPI    C310081   3.449   8.524   9.400 -0.0670  0.2395  0.1644
  634DPPI   PO410082   4.054   8.209   9.372  0.1322  0.2147 -0.0476
  634DPPI   GL110083   4.002   8.202   8.937 -0.2526  0.0987 -0.1015
  634DPPI   GL210084   3.827   7.847   8.941 -0.2524  0.0931  0.0762
  634DPPI   C1A10085   4.029   8.030   8.497  0.1011  0.0886  0.1749
  634DPPI   C2A10086   3.909   8.156   8.034 -0.2140  0.3387  0.2234
  634DPPI   C3A10087   3.982   8.075   7.650  0.2203  0.0763 -0.1548
  634DPPI   C4A10088   3.912   8.265   7.330  0.0564  0.1664 -0.1811
  634DPPI   C1B10089   3.629   7.726   8.680  0.0427  0.1616  0.3753
  634DPPI   C2B10090   3.475   7.835   8.195  0.1698 -0.1060 -0.3673
  634DPPI   C3B10091   3.499   7.850   7.757 -0.1150 -0.1282 -0.0808
  634DPPI   C4B10092   3.617   7.901   7.350  0.0197  0.2239  0.0066
  635PYPI    C110093  14.752   5.856   9.445 -0.3233 -0.0885  0.0455
  635PYPI    C210094  14.756   5.573   9.727 -0.0026 -0.0258  0.1068
  635PYPI    C310095  14.904   5.495   9.364  0.0570  0.0519  0.1141
  635PYPI   PO410096  14.482   5.860   9.356  0.1261 -0.2439  0.3290
  635PYPI   GL110097  14.338   5.752   9.007  0.1011 -0.1217  0.1561
  635PYPI   GL210098  14.135   5.489   8.902  0.0223  0.0743  0.3992
  635PYPI   C1A10099  14.312   5.920   8.643 -0.0378 -0.0245  0.2453
  635PYPI   C2A10100  14.272   6.267   8.313  0.1835  0.1429  0.0208
  635PYPI   D3A10101  13.934   6.447   7.951  0.1178  0.0447 -0.1471
  635PYPI   C4A10102  13.588   6.234   7.720  0.1056  0.2566  0.0239
  635PYPI   C1B10103  14.421   5.467   8.531  0.1220  0.0625 -0.1067
  635PYPI   C2B10104  14.678   5.108   8.412  0.3547  0.2398 -0.0073
  635PYPI   C3B10105  14.723   4.971   8.024  0.1698  0.2288  0.1264
  635PYPI   C4B10106  14.475   4.933   7.688 -0.0245  0.2346  0.3267
  636PYPI    C110107   6.240  17.950   9.438  0.1579  0.1243  0.5685
  636PYPI    C210108   5.918  17.731   9.346  0.2640  0.1726  0.0548
  636PYPI    C310109   5.981  17.846   9.724  0.0263 -0.3879  0.2745
  636PYPI   PO410110   6.269  18.123   9.268 -0.3056  0.2297 -0.2446
  636PYPI   GL110111   6.571  18.168   9.035 -0.0407  0.2173 -0.4267
  636PYPI   GL210112   6.890  18.094   8.882  0.4178 -0.0196  0.3668
  636PYPI   C1A10113   6.348  18.017   8.625  0.1824 -0.2374 -0.3118
  636PYPI   C2A10114   6.343  18.008   8.184 -0.0566 -0.0293 -0.4011
  636PYPI   D3A10115   6.262  17.790   7.870 -0.0979  0.3000 -0.0112
  636PYPI   C4A10116   6.639  17.906   7.511 -0.0512  0.1081  0.2640
  636PYPI   C1B10117   7.120  18.201   8.503 -0.0960 -0.0236 -0.0159
  636PYPI   C2B10118   6.886  18.292   8.095  0.2152  0.2560 -0.0154
  636PYPI   C3B10119   7.083  18.160   7.724  0.0914  0.1477 -0.5096
  636PYPI   C4B10120   7.021  17.992   7.256 -0.0514  0.3737  0.3847
  637PYPI    C110121  12.118   1.845   9.611  0.1258  0.0867  0.0793
  637PYPI    C210122  11.914   2.071   9.871  0.1677  0.0357  0.1573
  637PYPI    C310123  12.066   2.234   9.538 -0.1294  0.0433  0.0222
  637PYPI   PO410124  11.885   1.595   9.776 -0.0281  0.0046 -0.1251
  637PYPI   GL110125  11.602   1.318   9.581 -0.1092 -0.1316  0.2901
  637PYPI   GL210126  11.428   1.432   9.324 -0.0909 -0.0113  0.1530
  637PYPI   C1A10127  11.729   1.012   9.148 -0.0196 -0.1179  0.0548
  637PYPI   C2A10128  11.593   1.246   8.754 -0.0991  0.1434 -0.0427
  637PYPI   D3A10129  11.474   1.294   8.463 -0.1691  0.4163  0.1964
  637PYPI   C4A10130  11.045   1.165   8.376  0.2676  0.1507 -0.0420
  637PYPI   C1B10131  11.588   1.690   8.897  0.3587 -0.0527  0.0670
  637PYPI   C2B10132  11.488   1.799   8.397  0.1122  0.4862  0.1065
  637PYPI   C3B10133  11.498   1.941   8.012  0.1416  0.1318  0.1089
  637PYPI   C4B10134  11.637   2.100   7.578 -0.1510  0.0593  0.1167
  638PYPI    C110135   7.588  18.091   9.504 -0.1097 -0.0570  0.1879
  638PYPI    C210136   7.533  18.222   9.878 -0.2725 -0.1853  0.2097
  638PYPI    C310137   7.683  17.856   9.813 -0.0379 -0.0799  0.1487
  638PYPI   PO410138   7.632  18.308   9.396  0.1181  0.1163 -0.2760
  638PYPI   GL110139   7.713  18.273   8.982  0.0559  0.1205  0.2359
  638PYPI   GL210140   7.325  18.366   8.988  0.0219  0.3623  0.1438
  638PYPI   C1A10141   7.594  18.055   8.647 -0.2153  0.1562 -0.2450
  638PYPI   C2A10142   7.764  17.951   8.213 -0.2855 -0.4283 -0.0645
  638PYPI   D3A10143   7.693  17.912   7.864  0.1434  0.0524  0.0861
  638PYPI   C4A10144   7.431  17.900   7.492  0.1174 -0.2419  0.0873
  638PYPI   C1B10145   7.537  18.587   8.637 -0.0099  0.0050  0.1873
  638PYPI   C2B10146   7.863  18.448   8.408 -0.1425 -0.0701  0.1913
  638PYPI   C3B10147   8.177  18.620   8.020  0.7388 -0.1074 -0.1952
  638PYPI   C4B10148   8.275  18.653   7.573 -0.0982 -0.2167  0.1400
  639PYPI    C110149  11.203   2.814   9.563  0.0322  0.1468  0.2476
  639PYPI    C210150  11.209   2.970   9.931  0.2397  0.0080  0.3047
  639PYPI    C310151  11.355   2.604   9.867  0.0122 -0.0527  0.1211
  639PYPI   PO410152  11.145   2.946   9.463 -0.1743  0.0118  0.0570
  639PYPI   GL110153  11.192   3.183   9.066 -0.1577  0.0883 -0.2094
  639PYPI   GL210154  10.996   3.122   8.944 -0.0503 -0.0857 -0.0021
  639PYPI   C1A10155  11.351   2.999   8.585 -0.1498  0.0858 -0.2747
  639PYPI   C2A10156  11.542   2.888   8.211  0.0944  0.1756 -0.1627
  639PYPI   D3A10157  11.200   2.802   8.073  0.0137 -0.2231 -0.1351
  639PYPI   C4A10158  10.821   2.929   7.916 -0.2887  0.2565  0.0066
  639PYPI   C1B10159  10.873   3.210   8.635  0.4198 -0.0382  0.0663
  639PYPI   C2B10160  10.982   3.263   8.348  0.2462 -0.4839 -0.0552
  639PYPI   C3B10161  11.120   3.344   7.986 -0.1717  0.3677 -0.5786
  639PYPI   C4B10162  11.034   3.256   7.589  0.0206 -0.1053  0.1487
  640PYPI    C110163  15.370   9.922   9.876  0.0645 -0.0160 -0.0612
  640PYPI    C210164  15.232   9.888  10.250 -0.0074  0.0040 -0.0857
  640PYPI    C310165  15.623   9.940  10.185  0.0004  0.0409 -0.0114
  640PYPI   PO410166  15.217  10.016   9.716 -0.2103  0.3245 -0.1802
  640PYPI   GL110167  15.372  10.122   9.270  0.0229  0.1775  0.0469
  640PYPI   GL210168  15.117  10.086   9.104 -0.0817 -0.1542 -0.1874
  640PYPI   C1A10169  15.520  10.104   8.822  0.1049  0.2522  0.0309
  640PYPI   C2A10170  15.524  10.054   8.315 -0.0548  0.0981 -0.0902
  640PYPI   D3A10171  15.399  10.157   7.954 -0.2723 -0.0969 -0.0006
  640PYPI   C4A10172  15.199   9.907   7.771  0.0569  0.2163  0.1481
  640PYPI   C1B10173  14.776  10.311   8.949 -0.2226 -0.0414 -0.0942
  640PYPI   C2B10174  14.635  10.214   8.463  0.3855  0.5052 -0.0807
  640PYPI   C3B10175  14.297  10.194   8.009  0.1037  0.4814  0.2318
  640PYPI   C4B10176  13.913   9.879   7.868 -0.2272 -0.2605  0.0603
  641ERGO   ROH10177   2.014   9.633   6.266 -0.1359  0.1065  0.1769
  641ERGO    R110178   1.813   9.484   6.399 -0.0277  0.0063  0.2308
  641ERGO    R210179   1.800   9.465   6.675 -0.1544  0.2972  0.2513
  641ERGO    R310180   1.546   9.553   6.636 -0.2438 -0.0523  0.0060
  641ERGO    R410181   1.529   9.381   6.872 -0.1523  0.2540  0.2347
  641ERGO    R510182   1.408   9.365   6.691 -0.0509 -0.1373  0.1971
  641ERGO    C110183   1.132   9.415   6.950 -0.2351 -0.0991 -0.0052
  641ERGO    C210184   0.962   9.444   7.255 -0.0207  0.0751 -0.2301
  642ERGO   ROH10185  13.312   6.235   9.077  0.0481  0.0873  0.0164
  642ERGO    R110186  13.334   6.243   8.795  0.0433  0.0034  0.0134
  642ERGO    R210187  13.553   6.351   8.666  0.0085  0.0315 -0.0232
  642ERGO    R310188  13.559   6.108   8.544  0.0842 -0.0065  0.0552
  642ERGO    R410189  13.719   6.281   8.371 -0.0205  0.0021 -0.0325
  642ERGO    R510190  13.551   6.158   8.310  0.0182 -0.0869  0.0404
  642ERGO    C110191  13.822   6.013   8.085  0.0336 -0.0505  0.0356
  642ERGO    C210192  14.060   5.934   7.740 -0.0946 -0.2128 -0.1792
  643ERGO   ROH10193   0.696  15.665   9.510 -0.2648  0.2840 -0.1082
  643ERGO    R110194   0.686  15.808   9.266 -0.0069  0.3232 -0.0986
  643ERGO    R210195   0.914  15.888   9.131  0.1457 -0.1116 -0.1148
  643ERGO    R310196   0.797  15.755   8.924 -0.1377  0.1226 -0.1115
  643ERGO    R410197   0.943  15.976   8.798  0.3310 -0.1798 -0.1179
  643ERGO    R510198   0.732  15.928   8.772  0.2224  0.2612 -0.1170
  643ERGO    C110199   0.850  15.902   8.410  0.1728  0.0002 -0.1167
  643ERGO    C210200   1.049  15.799   8.269  0.0209 -0.1032 -0.0572
  644ERGO   ROH10201  13.949  11.139   9.588 -0.0139  0.0695 -0.2073
  644ERGO    R110202  13.972  11.299   9.356 -0.1307  0.1083 -0.1956
  644ERGO    R210203  14.185  11.277   9.181 -0.0522  0.3518 -0.1484
  644ERGO    R310204  13.988  11.243   8.997  0.0262  0.1348 -0.1918
  644ERGO    R410205  14.173  11.432   8.872 -0.1660  0.3490 -0.1434
  644ERGO    R510206  13.959  11.459   8.899 -0.2009  0.1032 -0.1898
  644ERGO    C110207  13.981  11.490   8.520 -0.1586  0.1436 -0.1812
  644ERGO    C210208  14.019  11.293   8.224  0.3533 -0.0385 -0.0318
  645ERGO   ROH10209   2.162  16.696   9.205 -0.1269  0.0705 -0.0817
  645ERGO    R110210   2.061  16.492   9.037 -0.1570  0.0640 -0.0561
  645ERGO    R210211   1.942  16.546   8.793 -0.1194  0.0494 -0.0799
  645ERGO    R310212   2.127  16.370   8.700 -0.1487 -0.0100 -0.0267
  645ERGO    R410213   1.946  16.415   8.474 -0.1534 -0.0799 -0.0282
  645ERGO    R510214   2.003  16.222   8.559 -0.1721 -0.0506  0.0406
  645ERGO    C110215   2.123  16.173   8.200 -0.2007 -0.2109  0.0518
  645ERGO    C210216   2.136  15.995   8.002 -0.0981  0.1637 -0.3383
  646ERGO   ROH10217  12.666  16.246   9.453 -0.1350  0.0048  0.0572
  646ERGO    R110218  12.647  16.064   9.238 -0.1479 -0.0340  0.0915
  646ERGO    R210219  12.508  16.120   9.006 -0.1097 -0.0514  0.0651
  646ERGO    R310220  12.744  16.057   8.887 -0.1094 -0.1240  0.1034
  646ERGO    R410221  12.558  16.099   8.665 -0.0382  0.0267  0.0700
  646ERGO    R510222  12.682  15.923   8.699 -0.1261 -0.0408  0.0486
  646ERGO    C110223  12.808  16.027   8.354  0.0038  0.0042  0.1089
  646ERGO    C210224  12.987  16.029   8.152 -0.3145  0.1672  0.1065
  647ERGO   ROH10225  14.187   9.147   6.460  0.0140 -0.0709 -0.0801
  647ERGO    R110226  14.359   9.311   6.613  0.0403  0.0314 -0.2169
  647ERGO    R210227  14.494   9.527   6.506 -0.1302  0.0793 -0.3377
  647ERGO    R310228  14.374   9.662   6.710 -0.0587  0.0527 -0.2775
  647ERGO    R410229  14.593   9.837   6.624 -0.0897  0.0647 -0.3328
  647ERGO    R510230  14.555   9.766   6.827 -0.0175  0.0384 -0.3280
  647ERGO    C110231  14.539  10.143   6.884  0.0009  0.0311 -0.2735
  647ERGO    C210232  14.740  10.380   6.989  0.0853  0.2073  0.1737
  648ERGO   ROH10233  18.819  13.414   6.177 -0.1252  0.1678  0.0138
  648ERGO    R110234  18.693  13.391   6.429 -0.1405  0.1099  0.0008
  648ERGO    R210235  18.826  13.441   6.666 -0.1620  0.0782  0.0174
  648ERGO    R310236  18.620  13.613   6.709 -0.1809  0.0513  0.0376
  648ERGO    R410237  18.711  13.539   6.977  0.1744  0.4359  0.0365
  648ERGO    R510238  18.507  13.525   6.901  0.0828  0.2516  0.2943
  648ERGO    C110239  18.450  13.758   7.197  0.3527  0.6190  0.0667
  648ERGO    C210240  18.308  14.008   7.551 -0.0719 -0.0109 -0.0296
  649ERGO   ROH10241   3.785  11.531   5.447  0.4005 -0.1451  0.0740
  649ERGO    R110242   3.786  11.514   5.730  0.1913 -0.0023  0.0860
  649ERGO    R210243   3.685  11.715   5.891  0.0501  0.0728 -0.0872
  649ERGO    R310244   3.537  11.512   5.995 -0.0087  0.1104 -0.0987
  649ERGO    R410245   3.602  11.681   6.225  0.0181  0.0847 -0.0944
  649ERGO    R510246   3.638  11.467   6.207 -0.0372  0.0790 -0.0947
  649ERGO    C110247   3.415  11.471   6.517 -0.0557  0.1269 -0.1094
  649ERGO    C210248   3.140  11.507   6.687 -0.1321  0.2243 -0.3267
  650ERGO   ROH10249  10.646  11.195   9.303 -0.2034 -0.1647 -0.0608
  650ERGO    R110250  10.646  11.433   9.150 -0.1288 -0.1119  0.0196
  650ERGO    R210251  10.851  11.499   8.977 -0.0097 -0.0178  0.1916
  650ERGO    R310252  10.649  11.521   8.797  0.1188  0.0086  0.0496
  650ERGO    R410253  10.876  11.657   8.671  0.1364  0.2595  0.3426
  650ERGO    R510254  10.676  11.739   8.702  0.0596  0.1077  0.2573
  650ERGO    C110255  10.701  11.769   8.323  0.3421  0.4457  0.2974
  650ERGO    C210256  10.714  11.737   7.969 -0.0292  0.0732  0.0175
  651ERGO   ROH10257   4.957   5.530   4.713 -0.0257  0.0976 -0.1284
  651ERGO    R110258   5.016   5.508   4.989  0.0112  0.0890 -0.1374
  651ERGO    R210259   5.044   5.729   5.153  0.0056  0.0803 -0.1309
  651ERGO    R310260   4.855   5.602   5.302  0.0408  0.0515 -0.1095
  651ERGO    R410261   4.991   5.781   5.491 -0.0497  0.1810 -0.1542
  651ERGO    R510262   4.961   5.566   5.514  0.0375  0.1711 -0.0830
  651ERGO    C110263   4.783   5.691   5.827 -0.0489  0.2126 -0.1477
  651ERGO    C210264   4.648   5.785   6.132  0.4997 -0.0222  0.1440
  652ERGO   ROH10265   9.572   5.757   4.955 -0.2716  0.1767  0.0087
  652ERGO    R110266   9.506   5.629   5.198 -0.3318  0.2291  0.0187
  652ERGO    R210267   9.687   5.599   5.404 -0.1962 -0.2644 -0.1668
  652ERGO    R310268   9.493   5.721   5.550  0.2128  0.1252  0.0754
  652ERGO    R410269   9.561   5.479   5.703 -0.6165 -0.4814 -0.4203
  652ERGO    R510270   9.362   5.541   5.637 -0.4324  0.3657 -0.3193
  652ERGO    C110271   9.306   5.525   6.014 -0.4771 -0.2420 -0.3406
  652ERGO    C210272   9.308   5.682   6.306 -0.0729  0.1049  0.0931
  653ERGO   ROH10273   1.770  14.148   5.930 -0.0443  0.0961 -0.0840
  653ERGO    R110274   1.687  13.978   6.140 -0.2752  0.1774 -0.1077
  653ERGO    R210275   1.812  13.974   6.387  0.0310 -0.3475 -0.2632
  653ERGO    R310276   1.560  14.018   6.479  0.2493  0.3106  0.0847
  653ERGO    R410277   1.700  13.886   6.702  0.1337 -0.4904 -0.2646
  653ERGO    R510278   1.511  13.824   6.612 -0.1956  0.2316 -0.1646
  653ERGO    C110279   1.399  13.877   6.972  0.3985  0.0443  0.0611
  653ERGO    C210280   1.553  13.899   7.240  0.0726 -0.0139 -0.1523
  654ERGO   ROH10281  18.801   2.702   5.784 -0.0663  0.0150  0.0924
  654ERGO    R110282  18.801   2.631   6.058  0.0178 -0.0277  0.0822
  654ERGO    R210283  19.007   2.489   6.174  0.0677 -0.0241  0.0043
  654ERGO    R310284  19.010   2.698   6.348  0.0922 -0.0493  0.0334
  654ERGO    R410285  19.172   2.490   6.478 -0.0902 -0.1533  0.0923
  654ERGO    R510286  19.001   2.594   6.565 -0.0772 -0.0718  0.0158
  654ERGO    C110287  19.271   2.687   6.818 -0.1594 -0.2520  0.1709
  654ERGO    C210288  19.572   2.634   7.024  0.1692  0.1519  0.0613
  655ERGO   ROH10289  15.637   0.624   9.674  0.0955  0.0365  0.0866
  655ERGO    R110290  15.610   0.483   9.430  0.0587  0.0583  0.0777
  655ERGO    R210291  15.464   0.582   9.217  0.1625  0.1551  0.0488
  655ERGO    R310292  15.696   0.542   9.081  0.1673  0.0146  0.0971
  655ERGO    R410293  15.492   0.570   8.873  0.2542  0.3058  0.0505
  655ERGO    R510294  15.633   0.406   8.894  0.0989  0.1664  0.0089
  655ERGO    C110295  15.726   0.526   8.544  0.3122  0.2617  0.0969
  655ERGO    C210296  15.860   0.549   8.196 -0.1367  0.0926  0.0736
  656ERGO   ROH10297  17.787   8.608   9.426 -0.4350  0.0770  0.1413
  656ERGO    R110298  17.668   8.810   9.269 -0.0950  0.1568 -0.0227
  656ERGO    R210299  17.781   8.900   9.033  0.1216 -0.1364 -0.0378
  656ERGO    R310300  17.537   8.839   8.930  0.0689  0.1451 -0.0885
  656ERGO    R410301  17.688   8.944   8.703  0.3023 -0.1852 -0.0953
  656ERGO    R510302  17.493   9.013   8.771  0.3673  0.1241 -0.2001
  656ERGO    C110303  17.406   8.911   8.414  0.3579  0.0507 -0.1765
  656ERGO    C210304  17.276   8.890   8.033 -0.0015  0.4401  0.4055
  657ERGO   ROH10305   0.137   0.923   8.980  0.4192  0.1055  0.0375
  657ERGO    R110306   0.034   0.917   8.716  0.2434  0.1365  0.1028
  657ERGO    R210307   0.121   1.090   8.519  0.1476  0.1311  0.0500
  657ERGO    R310308   0.167   0.860   8.382  0.0155  0.1262  0.0132
  657ERGO    R410309   0.203   1.073   8.184  0.1907  0.1344  0.0611
  657ERGO    R510310   0.073   0.899   8.166  0.0792  0.2276  0.0063
  657ERGO    C110311   0.295   0.846   7.860  0.0919  0.1318  0.0329
  657ERGO    C210312   0.417   0.767   7.530 -0.1913  0.0760  0.0230
  658ERGO   ROH10313  14.933  16.188   6.174 -0.1473 -0.1677  0.0877
  658ERGO    R110314  14.918  16.038   6.414 -0.0332 -0.1078  0.1335
  658ERGO    R210315  15.137  15.997   6.578  0.0185  0.0371  0.1044
  658ERGO    R310316  14.972  16.099   6.768  0.0079  0.0175  0.1056
  658ERGO    R410317  15.200  15.989   6.917  0.0389  0.0852  0.1018
  658ERGO    R510318  14.989  15.944   6.950  0.0532  0.0408  0.1194
  658ERGO    C110319  15.081  16.081   7.294  0.0408  0.0947  0.1013
  658ERGO    C210320  15.029  16.240   7.565  0.0110  0.3325 -0.1645
  659ERGO   ROH10321   3.372  10.508   5.927 -0.0473 -0.0874  0.1456
  659ERGO    R110322   3.187  10.613   6.113 -0.0507 -0.0649  0.1293
  659ERGO    R210323   2.943  10.494   6.164 -0.0839 -0.0154  0.0820
  659ERGO    R310324   3.030  10.501   6.422 -0.1208 -0.0603  0.0960
  659ERGO    R410325   2.737  10.492   6.442 -0.1348  0.1534  0.0463
  659ERGO    R510326   2.869  10.639   6.534 -0.0420  0.0656  0.0583
  659ERGO    C110327   2.698  10.499   6.845 -0.1990  0.2095  0.0387
  659ERGO    C210328   2.384  10.620   7.019  0.2187 -0.3054  0.0753
  660ERGO   ROH10329  16.588   9.018   8.999  0.2897 -0.0663 -0.0988
  660ERGO    R110330  16.603   9.236   8.818  0.0331  0.1175  0.0939
  660ERGO    R210331  16.573   9.204   8.545  0.1886  0.3063  0.0535
  660ERGO    R310332  16.381   9.393   8.576 -0.1151 -0.0071  0.1466
  660ERGO    R410333  16.426   9.380   8.286  0.0731  0.3560  0.1524
  660ERGO    R510334  16.433   9.559   8.411 -0.2636  0.2455  0.3450
  660ERGO    C110335  16.159   9.660   8.166 -0.2795  0.0906  0.2974
  660ERGO    C210336  16.073   9.964   7.891 -0.0774  0.0155  0.2737
  661ERGO   ROH10337  16.859  13.050   5.883 -0.0513  0.1916  0.0201
  661ERGO    R110338  16.978  13.297   5.953  0.1289  0.1158 -0.0126
  661ERGO    R210339  16.985  13.390   6.213  0.0116  0.2350 -0.0499
  661ERGO    R310340  17.252  13.408   6.165  0.0736 -0.0435  0.1454
  661ERGO    R410341  17.199  13.608   6.374  0.1157  0.0704  0.0390
  661ERGO    R510342  17.300  13.643   6.183  0.2969 -0.0851  0.1044
  661ERGO    C110343  17.575  13.752   6.423  0.2345 -0.2869  0.2741
  661ERGO    C210344  17.666  14.052   6.723  0.0187 -0.0818 -0.1759
  662ERGO   ROH10345  18.196   9.821   9.124 -0.1775  0.0667  0.0346
  662ERGO    R110346  18.242   9.797   8.845 -0.0013 -0.0072  0.0679
  662ERGO    R210347  18.056   9.877   8.657  0.0697 -0.1589 -0.0719
  662ERGO    R310348  18.264  10.023   8.561  0.0580 -0.0925  0.0047
  662ERGO    R410349  18.158   9.882   8.327  0.0863  0.0061 -0.0644
  662ERGO    R510350  18.365   9.883   8.396  0.0813 -0.0036 -0.0556
  662ERGO    C110351  18.413  10.023   8.045  0.0850  0.1645  0.0119
  662ERGO    C210352  18.505  10.214   7.740  0.3080 -0.0116 -0.1430
  663ERGO   ROH10353  15.080  18.438   6.367 -0.0015  0.0110  0.1181
  663ERGO    R110354  14.916  18.516   6.583  0.0128  0.0454  0.1166
  663ERGO    R210355  15.018  18.617   6.819  0.0213  0.2084  0.0433
  663ERGO    R310356  14.849  18.823   6.768 -0.0830  0.1082 -0.0195
  663ERGO    R410357  14.884  18.827   7.059 -0.1179  0.1816 -0.0103
  663ERGO    R510358  14.695  18.821   6.951 -0.1044  0.0588 -0.0351
  663ERGO    C110359  14.647  19.143   7.150 -0.2967  0.0718 -0.1005
  663ERGO    C210360  14.520  19.258   7.409 -0.1280 -0.0471  0.1722
  664ERGO   ROH10361  14.631   4.808   5.774  0.0948 -0.2127 -0.2827
  664ERGO    R110362  14.522   5.034   5.907  0.1693 -0.1312 -0.3579
  664ERGO    R210363  14.394   5.015   6.151 -0.1820 -0.0684 -0.5291
  664ERGO    R310364  14.575   5.204   6.224 -0.0573 -0.2942 -0.2300
  664ERGO    R410365  14.371   5.213   6.433 -0.3843 -0.0586 -0.5513
  664ERGO    R510366  14.442   5.381   6.315  0.0131 -0.1362 -0.4308
  664ERGO    C110367  14.527   5.507   6.666 -0.3850 -0.2649 -0.2836
  664ERGO    C210368  14.986   5.667   6.855  0.0241 -0.1622  0.3229
  665ERGO   ROH10369  17.885   4.708   5.493  0.0292 -0.0868 -0.1109
  665ERGO    R110370  17.887   4.655   5.771  0.0896  0.0068 -0.0943
  665ERGO    R210371  18.021   4.814   5.952  0.0163  0.1407 -0.1663
  665ERGO    R310372  17.778   4.825   6.074  0.0254  0.0432 -0.1355
  665ERGO    R410373  17.973   4.837   6.293  0.0581 -0.0425 -0.1463
  665ERGO    R510374  17.807   4.696   6.274  0.0712 -0.0609 -0.2024
  665ERGO    C110375  17.717   4.860   6.607  0.0911 -0.2407 -0.1058
  665ERGO    C210376  17.637   4.809   7.036 -0.2659  0.2304  0.0743
  666ERGO   ROH10377   4.751  15.719   6.243 -0.0869 -0.1805 -0.0730
  666ERGO    R110378   4.555  15.907   6.322 -0.0951 -0.2826  0.1594
  666ERGO    R210379   4.372  16.014   6.145  0.1178  0.1829  0.2056
  666ERGO    R310380   4.192  15.924   6.328 -0.0987 -0.1723 -0.1656
  666ERGO    R410381   4.054  16.143   6.189  0.1040  0.1685  0.1464
  666ERGO    R510382   4.081  16.122   6.404 -0.1257 -0.3001  0.1444
  666ERGO    C110383   3.700  16.134   6.386 -0.1072 -0.1731 -0.2366
  666ERGO    C210384   3.381  16.242   6.473  0.2723 -0.1828 -0.4393
  667ERGO   ROH10385   7.108   6.888   8.183 -0.1802 -0.1576  0.0437
  667ERGO    R110386   7.106   6.696   7.976 -0.1892 -0.0722 -0.0373
  667ERGO    R210387   7.049   6.760   7.713 -0.0874  0.0585 -0.0326
  667ERGO    R310388   7.288   6.640   7.666 -0.1158 -0.0075 -0.0047
  667ERGO    R410389   7.154   6.642   7.406 -0.1119 -0.0522  0.0018
  667ERGO    R510390   7.239   6.468   7.507 -0.1505 -0.0394  0.0456
  667ERGO    C110391   7.440   6.460   7.183 -0.1527 -0.1789  0.0481
  667ERGO    C210392   7.518   6.560   6.939 -0.1575  0.0442  0.1227
  668ERGO   ROH10393  13.409   1.320   6.166 -0.0926  0.0950 -0.1667
  668ERGO    R110394  13.509   1.536   6.319  0.1126 -0.0606 -0.0747
  668ERGO    R210395  13.349   1.744   6.405  0.3513  0.1830 -0.1943
  668ERGO    R310396  13.447   1.677   6.649  0.0539  0.0112 -0.1173
  668ERGO    R410397  13.397   1.966   6.665  0.3994  0.0673 -0.1046
  668ERGO    R510398  13.585   1.864   6.711  0.2327 -0.1728  0.0430
  668ERGO    C110399  13.518   2.032   7.046  0.1483 -0.1613  0.0199
  668ERGO    C210400  13.523   2.156   7.351  0.0656  0.1603 -0.1430
  669ERGO   ROH10401   1.146   3.311   5.692 -0.0892 -0.1415  0.0616
  669ERGO    R110402   0.906   3.438   5.772 -0.0122  0.0536 -0.0112
  669ERGO    R210403   0.793   3.398   6.022 -0.2434 -0.0441 -0.1311
  669ERGO    R310404   0.804   3.669   6.034  0.0470 -0.0613  0.1159
  669ERGO    R410405   0.606   3.595   6.236 -0.1992 -0.0299 -0.1046
  669ERGO    R510406   0.578   3.737   6.073  0.0845  0.1494 -0.0062
  669ERGO    C110407   0.508   3.964   6.371  0.0992 -0.0379  0.1427
  669ERGO    C210408   0.423   4.151   6.628 -0.0720 -0.1323 -0.1917
  670ERGO   ROH10409   7.829   9.565   8.442 -0.2443  0.2867  0.0735
  670ERGO    R110410   7.797   9.451   8.185 -0.1361  0.0531  0.1609
  670ERGO    R210411   7.592   9.523   8.015 -0.1078 -0.1540  0.0370
  670ERGO    R310412   7.796   9.571   7.841 -0.0715 -0.2455  0.0535
  670ERGO    R410413   7.554   9.581   7.676 -0.0749  0.0724  0.0703
  670ERGO    R510414   7.731   9.458   7.640 -0.1888 -0.0736 -0.0074
  670ERGO    C110415   7.723   9.659   7.316 -0.0216  0.1183  0.1050
  670ERGO    C210416   7.749   9.796   6.982 -0.1290  0.1314  0.0268
  671ERGO   ROH10417  11.312  10.390   5.657  0.0516  0.1577  0.0038
  671ERGO    R110418  11.363  10.233   5.887  0.0487  0.2496  0.0696
  671ERGO    R210419  11.371  10.342   6.142 -0.1060  0.3308  0.0524
  671ERGO    R310420  11.186  10.150   6.194 -0.0278  0.2486  0.0218
  671ERGO    R410421  11.266  10.250   6.458 -0.1185  0.2572  0.0257
  671ERGO    R510422  11.266  10.042   6.392 -0.0197  0.2712  0.0203
  671ERGO    C110423  11.030  10.016   6.691 -0.0523  0.1372 -0.0187
  671ERGO    C210424  10.759  10.075   7.054 -0.1614 -0.1499 -0.0489
  672ERGO   ROH10425   6.554  11.819   5.725 -0.2480 -0.0256 -0.0692
  672ERGO    R110426   6.709  11.826   5.961 -0.1381  0.0379 -0.1409
  672ERGO    R210427   6.619  11.725   6.202 -0.0794  0.2119 -0.0355
  672ERGO    R310428   6.851  11.583   6.192 -0.1498  0.1009 -0.0706
  672ERGO    R410429   6.787  11.602   6.478  0.0017  0.2709 -0.0595
  672ERGO    R510430   6.975  11.659   6.382 -0.0225  0.1338 -0.1728
  672ERGO    C110431   7.102  11.398   6.630 -0.0171  0.2011 -0.1065
  672ERGO    C210432   6.927  11.228   6.862 -0.0859  0.0778  0.0640
  673ERGO   ROH10433   4.250   8.612   9.145  0.2133 -0.0590  0.0000
  673ERGO    R110434   4.252   8.825   8.959  0.3281  0.0034  0.0728
  673ERGO    R210435   4.434   8.840   8.751  0.1002 -0.2238 -0.1434
  673ERGO    R310436   4.209   8.863   8.599 -0.0562  0.1942  0.1323
  673ERGO    R410437   4.419   8.996   8.443  0.0613 -0.3352 -0.1993
  673ERGO    R510438   4.226   9.080   8.501  0.3049  0.1225  0.0129
  673ERGO    C110439   4.199   9.109   8.122 -0.1083 -0.0078  0.0268
  673ERGO    C210440   4.026   9.125   7.869  0.0909 -0.1095 -0.0960
  674PSPI    C110441  10.503   5.565   4.475 -0.2254  0.0521 -0.0822
  674PSPI    C210442  10.844   5.762   4.404 -0.1884 -0.0717 -0.2558
  674PSPI    C310443  10.497   5.961   4.416 -0.1103  0.0561 -0.0697
  674PSPI   PO410444  10.492   5.468   4.713  0.1073  0.0854 -0.4475
  674PSPI   GL110445  10.354   5.475   5.121  0.1522 -0.4698 -0.2263
  674PSPI   GL210446  10.117   5.739   5.208  0.2180  0.2355 -0.0174
  674PSPI   C1A10447  10.072   5.319   5.419 -0.0434  0.1511  0.0717
  674PSPI   C2A10448  10.031   5.523   5.803 -0.1441  0.1900  0.0410
  674PSPI   C3A10449   9.774   5.613   6.143  0.0446 -0.1043 -0.1376
  674PSPI   C4A10450   9.850   5.908   6.479 -0.0054 -0.0034 -0.0644
  674PSPI   C1B10451  10.451   5.810   5.471 -0.2692  0.2748  0.0644
  674PSPI   C2B10452  10.763   5.781   5.745 -0.2573 -0.1928 -0.1172
  674PSPI   C3B10453  10.829   5.497   6.054  0.0526 -0.1181  0.0727
  674PSPI   C4B10454  11.017   5.172   5.930 -0.2147 -0.2511  0.0340
  675PSPI    C110455   0.282  11.253   5.618 -0.0756 -0.0071 -0.1242
  675PSPI    C210456   0.269  11.104   5.247  0.1270  0.1350 -0.1904
  675PSPI    C310457   0.603  11.279   5.380  0.0643  0.0608  0.0696
  675PSPI   PO410458   0.159  11.010   5.772  0.0204 -0.2575  0.1573
  675PSPI   GL110459   0.047  11.014   6.175 -0.1820 -0.2231 -0.0475
  675PSPI   GL210460   0.214  11.309   6.215 -0.0843 -0.0194  0.0706
  675PSPI   C1A10461  -0.251  11.201   6.540 -0.0130  0.4380 -0.2743
  675PSPI   C2A10462  -0.210  11.126   7.015  0.1446  0.2887 -0.0159
  675PSPI   C3A10463   0.084  10.892   7.407 -0.0594 -0.2048  0.3592
  675PSPI   C4A10464   0.327  10.660   7.586  0.0442  0.0226 -0.2611
  675PSPI   C1B10465   0.540  11.390   6.567 -0.1810 -0.3048 -0.1635
  675PSPI   C2B10466   0.879  11.145   6.639 -0.4969 -0.2143  0.1956
  675PSPI   C3B10467   0.941  10.885   6.887 -0.4617 -0.0590 -0.0539
  675PSPI   C4B10468   1.120  10.520   6.995 -0.0109  0.0612  0.0734
  676PSPI    C110469  16.608   1.485   5.197 -0.0695 -0.0235 -0.1017
  676PSPI    C210470  16.399   1.211   4.996 -0.1234 -0.0466 -0.0151
  676PSPI    C310471  16.468   1.569   4.832  0.0509 -0.1532 -0.1785
  676PSPI   PO410472  16.569   1.443   5.516 -0.2020 -0.2761  0.4984
  676PSPI   GL110473  16.567   1.744   5.955  0.0673  0.4388  0.0964
  676PSPI   GL210474  16.560   2.068   5.916 -0.2181  0.4638  0.0562
  676PSPI   C1A10475  16.827   1.593   6.280  0.3024 -0.2598  0.0573
  676PSPI   C2A10476  16.776   1.784   6.647 -0.0511  0.1848 -0.0834
  676PSPI   C3A10477  16.588   1.650   7.085 -0.0941 -0.2500  0.3536
  676PSPI   C4A10478  16.933   1.418   7.286 -0.2270 -0.0213 -0.0716
  676PSPI   C1B10479  16.599   2.123   6.369 -0.0618 -0.1299 -0.0875
  676PSPI   C2B10480  16.543   2.159   6.886  0.2392 -0.1658  0.2959
  676PSPI   C3B10481  16.741   2.333   7.292 -0.1919 -0.0549  0.0776
  676PSPI   C4B10482  16.568   2.536   7.585 -0.4304  0.0501 -0.0015
  677PSPI    C110483  13.220  10.088   5.168  0.1085 -0.0945  0.0841
  677PSPI    C210484  13.571  10.221   5.031 -0.0297  0.2311  0.0370
  677PSPI    C310485  13.341   9.990   4.799  0.0182  0.2654 -0.0454
  677PSPI   PO410486  13.337  10.088   5.511 -0.2268 -0.1057 -0.2859
  677PSPI   GL110487  13.157   9.992   5.811 -0.3565 -0.3494 -0.2401
  677PSPI   GL210488  12.890  10.079   5.924  0.0806 -0.1826 -0.3502
  677PSPI   C1A10489  13.217   9.845   6.231  0.0364 -0.0076 -0.1518
  677PSPI   C2A10490  13.241   9.953   6.615 -0.4283 -0.0280 -0.0952
  677PSPI   C3A10491  13.595  10.025   6.836 -0.1098  0.2191 -0.1994
  677PSPI   C4A10492  14.028  10.024   6.880 -0.1323  0.2493  0.0469
  677PSPI   C1B10493  13.030  10.290   6.244  0.3753  0.0348 -0.0011
  677PSPI   C2B10494  13.239  10.428   6.571 -0.0740  0.2494 -0.2475
  677PSPI   C3B10495  13.237  10.746   6.874  0.2784  0.0029 -0.0204
  677PSPI   C4B10496  12.959  10.851   7.156 -0.0527 -0.2752 -0.0301
  678PSPI    C110497  17.377  10.923   5.194  0.0364  0.1142 -0.0018
  678PSPI    C210498  17.472  10.542   5.119 -0.3331  0.0058  0.0606
  678PSPI    C310499  17.343  10.778   4.823  0.2606  0.1994 -0.0573
  678PSPI   PO410500  17.618  11.044   5.391 -0.0492  0.0746  0.1399
  678PSPI   GL110501  17.868  11.013   5.728  0.0497 -0.0770 -0.3161
  678PSPI   GL210502  17.791  11.313   5.887  0.1331  0.0666  0.2487
  678PSPI   C1A10503  17.718  10.784   6.007  0.1551  0.1843 -0.0312
  678PSPI   C2A10504  17.527  10.966   6.464 -0.1762  0.1229 -0.2994
  678PSPI   C3A10505  17.436  11.318   6.743  0.3176 -0.1045 -0.4845
  678PSPI   C4A10506  17.227  11.620   6.838 -0.0501 -0.1459  0.1950
  678PSPI   C1B10507  17.418  11.382   5.909  0.2216  0.2308  0.0056
  678PSPI   C2B10508  17.115  11.208   6.227  0.0745 -0.0854  0.1558
  678PSPI   C3B10509  16.862  11.219   6.597 -0.0106  0.0968 -0.5538
  678PSPI   C4B10510  16.976  11.219   6.999  0.1769  0.1747 -0.1427
  679PSPI    C110511  15.970   4.436   5.511  0.3318  0.0555  0.0129
  679PSPI    C210512  16.018   4.217   5.180  0.3624  0.0783  0.0022
  679PSPI    C310513  16.088   4.055   5.539 -0.2894 -0.1463  0.0426
  679PSPI   PO410514  15.690   4.552   5.508 -0.1329 -0.1744 -0.0020
  679PSPI   GL110515  15.718   4.946   5.764  0.0843  0.0909  0.6090
  679PSPI   GL210516  15.441   5.105   5.718 -0.2164  0.0652 -0.1532
  679PSPI   C1A10517  15.826   5.107   6.218  0.0696  0.2876  0.0243
  679PSPI   C2A10518  15.929   4.994   6.574 -0.2055  0.0481 -0.0845
  679PSPI   C3A10519  15.716   5.240   7.009 -0.1835  0.1180 -0.1189
  679PSPI   C4A10520  15.685   5.659   7.106 -0.3995  0.1549  0.0011
  679PSPI   C1B10521  15.291   5.127   6.069  0.0352 -0.1309  0.2203
  679PSPI   C2B10522  14.954   4.942   6.196  0.2206  0.0999 -0.3227
  679PSPI   C3B10523  14.777   4.658   6.394  0.1478 -0.2431 -0.3562
  679PSPI   C4B10524  14.422   4.775   6.647 -0.3483  0.1380 -0.0876
  680PSPI    C110525  18.800   5.476   4.705  0.3011  0.0791 -0.0166
  680PSPI    C210526  18.920   5.220   4.422  0.0832 -0.0123 -0.0284
  680PSPI    C310527  18.631   5.485   4.343  0.1920  0.1269  0.0351
  680PSPI   PO410528  19.035   5.481   4.876 -0.2900  0.3327 -0.1782
  680PSPI   GL110529  19.079   5.554   5.398 -0.2151 -0.0968  0.3048
  680PSPI   GL210530  18.741   5.451   5.505  0.2790 -0.0570 -0.0722
  680PSPI   C1A10531  19.139   5.817   5.730  0.1678  0.0647  0.0199
  680PSPI   C2A10532  18.921   5.902   6.064  0.3481 -0.1104  0.1116
  680PSPI   C3A10533  18.806   6.319   6.267  0.0662 -0.1992  0.0141
  680PSPI   C4A10534  18.950   6.596   6.449 -0.1356  0.2123 -0.5019
  680PSPI   C1B10535  18.837   5.421   5.908 -0.2179  0.1221  0.2126
  680PSPI   C2B10536  19.200   5.367   6.142 -0.0885  0.2367  0.1231
  680PSPI   C3B10537  19.661   5.349   6.138  0.0135 -0.0197 -0.2669
  680PSPI   C4B10538  20.054   5.494   5.835 -0.1415 -0.1039 -0.0733
  681PSPI    C110539  15.247   8.317   4.846  0.0033  0.0765  0.1810
  681PSPI    C210540  15.465   8.174   5.150  0.1853 -0.0236  0.0063
  681PSPI    C310541  15.545   8.060   4.775 -0.1078  0.0139 -0.0706
  681PSPI   PO410542  15.115   8.560   4.977  0.2290  0.1773  0.1427
  681PSPI   GL110543  15.106   8.666   5.394  0.2974 -0.1270 -0.2875
  681PSPI   GL210544  15.028   8.530   5.661 -0.1881 -0.1092 -0.1757
  681PSPI   C1A10545  15.563   8.536   5.606 -0.0771 -0.0405  0.1127
  681PSPI   C2A10546  15.709   8.484   5.894 -0.1949  0.1946 -0.0528
  681PSPI   C3A10547  15.942   8.272   6.118  0.1871  0.2234  0.2186
  681PSPI   C4A10548  16.242   7.968   6.123  0.0411 -0.3414 -0.0343
  681PSPI   C1B10549  14.854   8.136   5.806  0.1583  0.0209  0.2113
  681PSPI   C2B10550  14.747   7.744   5.660  0.1286  0.5215  0.0273
  681PSPI   C3B10551  14.816   7.378   5.517  0.3850 -0.0216  0.1077
  681PSPI   C4B10552  14.606   7.082   5.583 -0.2274  0.2709  0.2170
  682PSPI    C110553  11.757   1.418   5.129  0.1798  0.2390 -0.0718
  682PSPI    C210554  11.506   1.723   5.070  0.0160  0.1228  0.0158
  682PSPI    C310555  11.367   1.348   5.076  0.1628  0.0696  0.2462
  682PSPI   PO410556  12.019   1.541   5.293 -0.3454  0.2027  0.0360
  682PSPI   GL110557  12.098   1.509   5.609  0.1546  0.0114 -0.3049
  682PSPI   GL210558  11.947   1.274   5.837 -0.4889 -0.1526 -0.0733
  682PSPI   C1A10559  12.096   1.881   6.000 -0.1688  0.0665 -0.2114
  682PSPI   C2A10560  12.043   2.055   6.475 -0.0497  0.3830  0.0616
  682PSPI   C3A10561  12.123   2.097   6.819 -0.1343 -0.0747 -0.2413
  682PSPI   C4A10562  12.290   2.126   7.211  0.3759 -0.0502  0.2069
  682PSPI   C1B10563  11.904   1.485   6.272  0.0559  0.0374  0.2429
  682PSPI   C2B10564  11.854   1.651   6.661  0.0394 -0.2852  0.1552
  682PSPI   C3B10565  11.844   1.826   7.095  0.1144  0.1117 -0.0188
  682PSPI   C4B10566  11.738   2.236   7.130  0.1976 -0.2086  0.4579
  683PSPI    C110567   6.108  14.701   5.550  0.0800  0.1241  0.0295
  683PSPI    C210568   6.256  14.936   5.262  0.2071  0.0729  0.0523
  683PSPI    C310569   5.861  14.874   5.287  0.1768  0.2478  0.0191
  683PSPI   PO410570   6.251  14.519   5.546  0.1002  0.3317 -0.3157
  683PSPI   GL110571   6.556  14.329   5.758  0.1915  0.1083 -0.2689
  683PSPI   GL210572   6.435  14.710   6.043 -0.3776 -0.1235  0.0625
  683PSPI   C1A10573   6.291  14.295   6.204  0.0036 -0.5021  0.0617
  683PSPI   C2A10574   6.331  14.483   6.580 -0.0466 -0.3197  0.3256
  683PSPI   C3A10575   6.344  14.276   6.955 -0.1179 -0.1079  0.3304
  683PSPI   C4A10576   6.603  14.401   7.298  0.1089  0.1378  0.2042
  683PSPI   C1B10577   6.531  14.885   6.455 -0.0703 -0.0911 -0.3746
  683PSPI   C2B10578   6.493  14.768   6.943 -0.1544 -0.0652 -0.0785
  683PSPI   C3B10579   6.351  14.821   7.333  0.2407  0.0782  0.1305
  683PSPI   C4B10580   5.807  14.762   7.455  0.1471 -0.1519 -0.2251
  684PSPI    C110581  17.851  17.166   5.652  0.1242 -0.1166  0.0712
  684PSPI    C210582  17.462  17.249   5.690  0.1441 -0.0998  0.2436
  684PSPI    C310583  17.702  17.502   5.494  0.0413 -0.1834  0.0055
  684PSPI   PO410584  17.880  16.881   5.688  0.0141  0.0100 -0.0177
  684PSPI   GL110585  18.172  16.690   5.916 -0.0813  0.2578 -0.2948
  684PSPI   GL210586  18.534  16.805   6.063 -0.1657  0.0299 -0.0299
  684PSPI   C1A10587  18.162  16.838   6.336  0.2691 -0.0745 -0.0052
  684PSPI   C2A10588  18.097  17.155   6.516  0.0531  0.2763 -0.0668
  684PSPI   C3A10589  17.948  17.525   6.315 -0.2934  0.0804  0.1124
  684PSPI   C4A10590  17.810  17.725   5.933  0.0958  0.1343 -0.2755
  684PSPI   C1B10591  18.626  17.066   6.358 -0.1662  0.0256  0.2119
  684PSPI   C2B10592  18.809  17.066   6.773  0.0447 -0.0339 -0.2950
  684PSPI   C3B10593  18.900  17.049   7.214 -0.1126 -0.0557  0.0692
  684PSPI   C4B10594  19.209  16.979   7.568  0.1576 -0.1521  0.1441
  685PSPI    C110595  15.983  18.859   5.638  0.2264 -0.1524 -0.1825
  685PSPI    C210596  15.653  18.900   5.415  0.2048  0.1703 -0.0965
  685PSPI    C310597  16.004  19.037   5.280  0.2917 -0.1020 -0.1539
  685PSPI   PO410598  15.891  18.949   5.871 -0.1824  0.0624 -0.1984
  685PSPI   GL110599  16.245  19.071   6.150  0.5792  0.1878  0.0185
  685PSPI   GL210600  16.453  19.073   5.966  0.1812 -0.0366  0.0106
  685PSPI   C1A10601  16.160  19.395   6.527 -0.3678  0.1722 -0.1009
  685PSPI   C2A10602  16.130  19.697   6.803 -0.0364 -0.0270 -0.0323
  685PSPI   C3A10603  16.346  19.769   7.119 -0.1762 -0.2129  0.1572
  685PSPI   C4A10604  16.747  19.963   7.262 -0.2330  0.0816  0.2190
  685PSPI   C1B10605  16.653  19.222   6.383 -0.0248 -0.3494 -0.0664
  685PSPI   C2B10606  16.566  19.731   6.564  0.2060  0.1627  0.0955
  685PSPI   C3B10607  16.811  20.080   6.763 -0.0832 -0.1022 -0.0936
  685PSPI   C4B10608  16.884  20.383   6.985  0.0244  0.2240 -0.0956
  686PSPI    C110609  15.077   4.228   4.599  0.1885 -0.0569  0.0291
  686PSPI    C210610  15.353   3.964   4.480  0.4513  0.1905  0.0768
  686PSPI    C310611  15.186   4.213   4.215 -0.0292 -0.2265 -0.0277
  686PSPI   PO410612  15.195   4.212   4.865  0.2116 -0.2043 -0.1750
  686PSPI   GL110613  14.955   4.093   5.349 -0.2943  0.0494 -0.1081
  686PSPI   GL210614  14.972   4.186   5.645 -0.0279  0.1510 -0.0285
  686PSPI   C1A10615  14.697   3.745   5.602  0.0876 -0.3253 -0.3181
  686PSPI   C2A10616  14.611   3.553   6.011 -0.2438 -0.4206  0.2780
  686PSPI   C3A10617  14.512   3.594   6.437  0.3657  0.1442 -0.1838
  686PSPI   C4A10618  14.317   3.552   6.945 -0.1591  0.0128 -0.0033
  686PSPI   C1B10619  15.363   4.024   5.871  0.0536 -0.0649 -0.0866
  686PSPI   C2B10620  15.844   4.031   5.969  0.3409 -0.1262 -0.0445
  686PSPI   C3B10621  16.376   4.008   6.136  0.4444  0.0513  0.4396
  686PSPI   C4B10622  16.623   3.932   6.374 -0.1924 -0.1812  0.0855
  687PSPI    C110623  15.424  16.496   5.528 -0.0822 -0.1378 -0.1904
  687PSPI    C210624  15.394  16.182   5.281  0.2847 -0.1255 -0.2564
  687PSPI    C310625  15.617  16.497   5.178  0.2165 -0.0001 -0.0287
  687PSPI   PO410626  15.263  16.383   5.824 -0.0783  0.0836  0.3628
  687PSPI   GL110627  15.426  16.281   6.260 -0.1043 -0.2890 -0.4040
  687PSPI   GL210628  15.799  16.312   6.264 -0.4701  0.0853 -0.0149
  687PSPI   C1A10629  15.463  16.444   6.630  0.1179 -0.0391  0.0469
  687PSPI   C2A10630  15.374  16.422   7.094 -0.1207 -0.2065 -0.0071
  687PSPI   C3A10631  15.617  16.324   7.439  0.1677 -0.1639 -0.2460
  687PSPI   C4A10632  16.073  16.237   7.502  0.0529 -0.4334  0.2474
  687PSPI   C1B10633  16.051  16.163   6.646  0.2072 -0.2827 -0.1122
  687PSPI   C2B10634  16.324  16.168   7.037  0.0238 -0.1741  0.2303
  687PSPI   C3B10635  16.677  16.175   7.202 -0.0426  0.1767  0.1203
  687PSPI   C4B10636  16.737  16.053   7.606  0.0300 -0.1916  0.0472
  688PSPI    C110637  14.079   3.694   4.804  0.2842  0.0681  0.0147
  688PSPI    C210638  14.080   3.842   4.432  0.0251  0.1085  0.0281
  688PSPI    C310639  13.940   4.063   4.736 -0.1241 -0.0665  0.0883
  688PSPI   PO410640  13.930   3.477   4.863 -0.0383 -0.3035  0.3038
  688PSPI   GL110641  13.821   3.338   5.275 -0.1137  0.2287 -0.0092
  688PSPI   GL210642  13.569   3.052   5.205 -0.0707  0.1158  0.0122
  688PSPI   C1A10643  13.871   3.687   5.612 -0.2330  0.0633 -0.1353
  688PSPI   C2A10644  13.951   3.591   6.036 -0.0603  0.0422 -0.1598
  688PSPI   C3A10645  13.848   3.579   6.441 -0.0921  0.1990 -0.0490
  688PSPI   C4A10646  13.673   3.392   6.859  0.1616 -0.2690 -0.0533
  688PSPI   C1B10647  13.353   2.967   5.671  0.0791  0.0719 -0.2343
  688PSPI   C2B10648  13.095   3.168   6.011  0.2488  0.1463  0.2624
  688PSPI   C3B10649  12.883   3.435   6.331  0.2045  0.2447  0.0397
  688PSPI   C4B10650  12.689   3.615   6.702 -0.0822 -0.2686  0.0004
  689PSPI    C110651   9.421   6.780   4.643 -0.1049  0.0232 -0.1869
  689PSPI    C210652   9.744   6.980   4.517 -0.1300  0.0251 -0.2483
  689PSPI    C310653   9.381   7.141   4.474 -0.1260  0.0956 -0.0291
  689PSPI   PO410654   9.526   6.779   4.911  0.1602  0.2532 -0.0741
  689PSPI   GL110655   9.311   6.739   5.212  0.1400 -0.3140 -0.2031
  689PSPI   GL210656   9.294   6.770   5.521 -0.2047  0.3062 -0.0398
  689PSPI   C1A10657   8.841   6.607   5.400 -0.3298  0.0114 -0.1480
  689PSPI   C2A10658   8.451   6.557   5.487  0.1253  0.3280  0.1780
  689PSPI   C3A10659   8.126   6.767   5.211  0.1983  0.2965  0.1664
  689PSPI   C4A10660   8.020   7.228   5.067  0.0640  0.1103 -0.0606
  689PSPI   C1B10661   9.280   7.018   5.894 -0.0783 -0.0886 -0.0439
  689PSPI   C2B10662   9.107   6.897   6.298 -0.1111  0.0495  0.1976
  689PSPI   C3B10663   9.030   6.861   6.760  0.1500 -0.3632 -0.2649
  689PSPI   C4B10664   8.800   6.986   7.055 -0.1111  0.0754 -0.2461
  690PSPI    C110665   2.117  19.209   4.832  0.2895  0.1050  0.1355
  690PSPI    C210666   2.034  19.271   4.446 -0.1824 -0.0990  0.1966
  690PSPI    C310667   2.103  19.582   4.688 -0.1941  0.0470  0.0147
  690PSPI   PO410668   2.334  19.062   4.829  0.1137 -0.0820  0.2192
  690PSPI   GL110669   2.524  19.119   5.228 -0.1593 -0.0055  0.2450
  690PSPI   GL210670   2.239  18.912   5.274  0.1194  0.0236 -0.2160
  690PSPI   C1A10671   2.543  19.323   5.642  0.3480  0.2824 -0.1241
  690PSPI   C2A10672   2.584  19.208   5.976  0.1689 -0.2196 -0.0745
  690PSPI   C3A10673   2.554  19.005   6.359  0.0111  0.1580 -0.0627
  690PSPI   C4A10674   2.770  18.785   6.628 -0.0543 -0.0635  0.0678
  690PSPI   C1B10675   1.920  18.779   5.518 -0.2553  0.1209 -0.0501
  690PSPI   C2B10676   1.622  18.789   5.839  0.2680  0.0325 -0.0744
  690PSPI   C3B10677   1.587  18.764   6.250 -0.0599 -0.0187  0.1264
  690PSPI   C4B10678   1.797  18.675   6.703  0.1108 -0.0568 -0.0378
  691PSPI    C110679   6.645   6.492   4.318 -0.1418 -0.2394 -0.2077
  691PSPI    C210680   6.767   6.553   3.942 -0.1346 -0.1521 -0.1916
  691PSPI    C310681   6.433   6.344   4.013 -0.3409  0.1474 -0.2632
  691PSPI   PO410682   6.804   6.430   4.489 -0.1601 -0.3360  0.0349
  691PSPI   GL110683   6.808   6.388   4.907 -0.1513  0.4001 -0.0789
  691PSPI   GL210684   6.651   6.094   4.805  0.2945 -0.1609  0.1445
  691PSPI   C1A10685   6.576   6.466   5.195 -0.3139 -0.0723 -0.0347
  691PSPI   C2A10686   6.415   6.103   5.382  0.0954  0.1351  0.4743
  691PSPI   C3A10687   6.369   5.780   5.753 -0.1274 -0.1915 -0.0797
  691PSPI   C4A10688   6.580   5.746   6.243  0.1721 -0.0362 -0.1538
  691PSPI   C1B10689   6.284   5.872   4.883  0.0944  0.3394  0.0729
  691PSPI   C2B10690   5.923   5.579   5.117 -0.0959  0.0207 -0.1805
  691PSPI   C3B10691   5.491   5.493   5.047  0.1116  0.3058  0.0539
  691PSPI   C4B10692   5.359   5.094   4.874  0.0350 -0.0037 -0.1044
  692PSPI    C110693  10.089  18.432   5.538  0.2480 -0.3369  0.1016
  692PSPI    C210694  10.204  18.443   5.156  0.1217 -0.1756  0.0672
  692PSPI    C310695  10.331  18.148   5.394  0.3539 -0.1722 -0.0492
  692PSPI   PO410696   9.811  18.460   5.531  0.1153 -0.0410  0.0561
  692PSPI   GL110697   9.626  18.328   5.852  0.1342  0.1338  0.3957
  692PSPI   GL210698   9.902  18.077   6.037 -0.1426  0.1944  0.3260
  692PSPI   C1A10699   9.489  18.142   6.266  0.2939 -0.0558  0.1578
  692PSPI   C2A10700   9.457  17.811   6.661 -0.2432 -0.1516  0.0401
  692PSPI   C3A10701   9.642  17.597   6.971  0.1000 -0.1986  0.1397
  692PSPI   C4A10702   9.542  17.814   7.267 -0.0142  0.0265 -0.1007
  692PSPI   C1B10703   9.899  17.713   6.373  0.5606  0.2741  0.3905
  692PSPI   C2B10704  10.123  17.631   6.785 -0.1561  0.0694 -0.0652
  692PSPI   C3B10705  10.405  17.336   7.018  0.0316  0.2564  0.1022
  692PSPI   C4B10706  10.841  17.173   7.250  0.0708  0.3331  0.2225
  693POPI    C110707   9.127  11.952   4.972  0.1343  0.1517  0.0726
  693POPI    C210708   8.990  12.227   4.716  0.2167  0.0189 -0.1167
  693POPI    C310709   9.240  11.941   4.588 -0.0775 -0.3044  0.0158
  693POPI   PO410710   8.928  11.972   5.176 -0.0575 -0.1228  0.0478
  693POPI   GL110711   8.936  11.864   5.627 -0.2832 -0.1294 -0.0303
  693POPI   GL210712   8.718  12.092   5.590 -0.1129  0.3783  0.1174
  693POPI   C1A10713   9.211  11.693   6.013  0.1456 -0.2507  0.1259
  693POPI   D2A10714   9.567  11.743   6.312  0.1779 -0.1233  0.1237
  693POPI   C3A10715   9.501  11.810   6.708 -0.0531  0.0606  0.2181
  693POPI   C4A10716   9.454  11.800   7.153 -0.3201 -0.0620  0.0571
  693POPI   C1B10717   8.711  11.975   6.039 -0.0408 -0.1677 -0.0182
  693POPI   C2B10718   8.573  11.908   6.399 -0.0309 -0.2914 -0.0487
  693POPI   C3B10719   8.402  11.423   6.507 -0.1024  0.1861 -0.0755
  693POPI   C4B10720   8.178  11.623   6.815 -0.0938 -0.1753 -0.0425
  694POPI    C110721   8.070  19.393   4.872  0.0212 -0.2187  0.0868
  694POPI    C210722   8.390  19.155   4.900  0.0336 -0.1977  0.1238
  694POPI    C310723   8.239  19.246   4.540  0.2682  0.0578  0.0862
  694POPI   PO410724   8.194  19.622   5.017  0.2260 -0.0072 -0.0576
  694POPI   GL110725   8.235  20.046   5.304  0.0451  0.0435  0.0707
  694POPI   GL210726   8.279  19.891   5.511  0.0048 -0.1336  0.0362
  694POPI   C1A10727   7.983  20.407   5.563 -0.1832 -0.0693  0.1308
  694POPI   D2A10728   7.910  20.551   5.969  0.0938 -0.1653 -0.0468
  694POPI   C3A10729   8.382  20.640   6.184  0.0702 -0.2959 -0.0187
  694POPI   C4A10730   8.698  20.745   6.554  0.1853  0.2336  0.0831
  694POPI   C1B10731   7.946  19.941   5.808 -0.0563 -0.1631  0.0310
  694POPI   C2B10732   7.796  20.096   6.111 -0.0327  0.0895 -0.1576
  694POPI   C3B10733   7.483  20.073   6.584 -0.2234 -0.0937 -0.0020
  694POPI   C4B10734   7.215  19.978   6.948  0.1933  0.0365  0.2670
  695POPI    C110735  12.472  12.295   5.394 -0.0673  0.0583 -0.1277
  695POPI    C210736  12.513  12.095   5.050 -0.1129  0.2008 -0.2165
  695POPI    C310737  12.827  12.285   5.211 -0.0809  0.0972 -0.1559
  695POPI   PO410738  12.304  12.177   5.583  0.0240 -0.4637  0.1570
  695POPI   GL110739  12.048  12.252   5.997 -0.1764 -0.1480 -0.1900
  695POPI   GL210740  12.236  12.309   6.315  0.0888  0.0157 -0.1787
  695POPI   C1A10741  11.738  12.299   6.255 -0.0859  0.0655 -0.1408
  695POPI   D2A10742  11.597  12.072   6.616 -0.1898 -0.1391  0.0806
  695POPI   C3A10743  11.195  12.172   6.805 -0.1220 -0.2681  0.4164
  695POPI   C4A10744  11.138  12.081   7.234 -0.1957  0.3049  0.0336
  695POPI   C1B10745  12.092  12.122   6.659  0.0948  0.0941 -0.0215
  695POPI   C2B10746  11.958  11.848   6.916  0.3605 -0.1227 -0.5457
  695POPI   C3B10747  11.561  11.740   7.060  0.2431  0.2362  0.2946
  695POPI   C4B10748  11.092  11.575   7.007  0.1783  0.2846 -0.1688
  696POPI    C110749  12.186  18.673   6.009 -0.1456 -0.0753  0.1094
  696POPI    C210750  12.180  19.034   5.837  0.0866  0.0093  0.2742
  696POPI    C310751  11.924  18.950   6.131  0.0590  0.0539  0.2630
  696POPI   PO410752  12.180  18.485   5.824  0.0113 -0.2645 -0.2555
  696POPI   GL110753  12.094  17.943   5.929 -0.2853  0.0570  0.1013
  696POPI   GL210754  11.882  18.167   6.162 -0.1382  0.0230 -0.1450
  696POPI   C1A10755  12.213  17.563   6.270  0.1128  0.2742 -0.1516
  696POPI   D2A10756  12.204  17.069   6.388  0.0333 -0.0955 -0.1972
  696POPI   C3A10757  11.967  17.173   6.792  0.1116 -0.1137 -0.0113
  696POPI   C4A10758  11.542  16.993   6.831  0.2166  0.0361  0.2222
  696POPI   C1B10759  11.814  18.147   6.659  0.0965  0.0004 -0.0392
  696POPI   C2B10760  11.903  18.093   7.048  0.2278  0.1184  0.2034
  696POPI   C3B10761  12.244  17.932   7.345  0.0481 -0.2993  0.0800
  696POPI   C4B10762  12.116  17.564   7.605 -0.3193  0.0563 -0.2256
  697POPI    C110763   2.987   3.389   4.417  0.0257 -0.0832  0.0231
  697POPI    C210764   2.652   3.550   4.269 -0.0786 -0.2480  0.0774
  697POPI    C310765   2.946   3.786   4.402 -0.1119 -0.1014 -0.1064
  697POPI   PO410766   2.862   3.202   4.617 -0.2906 -0.0686  0.1105
  697POPI   GL110767   2.704   3.263   5.071 -0.0568 -0.2761  0.1020
  697POPI   GL210768   2.509   3.038   5.221  0.0165  0.1997 -0.0390
  697POPI   C1A10769   2.681   3.438   5.478 -0.2857  0.0693  0.1332
  697POPI   D2A10770   2.648   3.521   5.887  0.1434  0.0300  0.0426
  697POPI   C3A10771   2.338   3.675   6.185  0.1497 -0.2556  0.0627
  697POPI   C4A10772   1.912   3.505   6.335 -0.0891 -0.0481  0.4833
  697POPI   C1B10773   2.895   2.990   5.506 -0.1057  0.2213 -0.0846
  697POPI   C2B10774   3.292   3.051   5.883 -0.1302  0.3446  0.1815
  697POPI   C3B10775   3.712   3.185   6.098  0.3280 -0.2013 -0.0343
  697POPI   C4B10776   4.080   3.561   6.175 -0.0215  0.2710 -0.1760
  698POPI    C110777  16.222  16.210   5.579 -0.1373 -0.1278  0.0867
  698POPI    C210778  16.117  16.522   5.351  0.1095  0.0164  0.1657
  698POPI    C310779  15.953  16.163   5.287  0.1458  0.0628 -0.2138
  698POPI   PO410780  16.160  16.324   5.892 -0.0879  0.0908 -0.0316
  698POPI   GL110781  16.346  16.399   6.245  0.0026  0.3252 -0.2731
  698POPI   GL210782  16.166  16.631   6.286  0.2501  0.0994 -0.0988
  698POPI   C1A10783  16.565  16.018   6.408 -0.0185 -0.1125 -0.0284
  698POPI   D2A10784  16.731  15.871   6.806  0.0093 -0.0872 -0.1514
  698POPI   C3A10785  16.402  15.632   6.947 -0.2934 -0.0586 -0.3784
  698POPI   C4A10786  16.418  15.289   7.109 -0.1658 -0.2087  0.1225
  698POPI   C1B10787  16.204  16.962   6.719  0.0386  0.0737 -0.0956
  698POPI   C2B10788  16.125  17.162   7.124 -0.1456 -0.0407 -0.1113
  698POPI   C3B10789  16.488  17.092   7.400  0.0202  0.2781  0.2399
  698POPI   C4B10790  16.651  17.250   7.795  0.1268  0.1072 -0.2184
  699POPI    C110791   3.425   3.543   4.552  0.0463 -0.1159 -0.2349
  699POPI    C210792   3.616   3.744   4.264  0.1628  0.1358  0.0129
  699POPI    C310793   3.488   3.936   4.590  0.1377 -0.1668  0.1849
  699POPI   PO410794   3.609   3.358   4.624 -0.2157  0.0981 -0.2126
  699POPI   GL110795   3.791   3.295   5.072  0.2379 -0.0399 -0.1044
  699POPI   GL210796   4.130   3.305   5.047 -0.0548 -0.1245 -0.2088
  699POPI   C1A10797   3.702   3.556   5.454  0.1049 -0.2051  0.2730
  699POPI   D2A10798   3.875   3.725   5.788 -0.1636  0.1927  0.0245
  699POPI   C3A10799   3.545   3.750   6.100 -0.3890  0.4359 -0.2047
  699POPI   C4A10800   3.280   3.329   6.394  0.0437  0.1826 -0.0062
  699POPI   C1B10801   4.411   2.917   5.376  0.1295 -0.1548 -0.2785
  699POPI   C2B10802   4.811   2.983   5.680  0.0837  0.0289 -0.0208
  699POPI   C3B10803   4.851   3.221   6.039  0.0344 -0.0977 -0.0240
  699POPI   C4B10804   4.683   3.194   6.407 -0.1390  0.0715  0.2055
  700POPI    C110805  15.147  18.774   5.887  0.0065 -0.0504  0.0325
  700POPI    C210806  15.078  18.850   5.500  0.0877  0.1988  0.0655
  700POPI    C310807  14.803  18.945   5.774 -0.0561 -0.1617  0.0524
  700POPI   PO410808  15.370  18.773   5.929 -0.1166 -0.0650 -0.3146
  700POPI   GL110809  15.565  18.960   6.222  0.2953  0.2301 -0.0507
  700POPI   GL210810  15.333  18.856   6.474 -0.1064  0.0815  0.0883
  700POPI   C1A10811  15.832  19.005   6.595  0.0162  0.0363 -0.1924
  700POPI   D2A10812  15.838  18.852   7.091 -0.0243 -0.0239  0.3331
  700POPI   C3A10813  15.957  18.468   7.139 -0.2186  0.4458  0.0055
  700POPI   C4A10814  15.848  18.103   7.321  0.1877  0.0286 -0.1426
  700POPI   C1B10815  15.410  18.965   6.835 -0.1820 -0.0408  0.1332
  700POPI   C2B10816  15.614  19.274   7.037  0.1263 -0.0174  0.1007
  700POPI   C3B10817  15.987  19.434   7.301  0.2685  0.1011  0.1569
  700POPI   C4B10818  16.405  19.495   7.520 -0.5313  0.0513 -0.1397
  701POPI    C110819   1.088   3.620   4.881 -0.2260 -0.1447 -0.0043
  701POPI    C210820   1.174   3.346   5.160 -0.1032 -0.3161 -0.2075
  701POPI    C310821   0.961   3.671   5.257 -0.0780 -0.3831  0.0800
  701POPI   PO410822   1.300   3.716   4.838  0.0855 -0.0373  0.2459
  701POPI   GL110823   1.576   3.921   5.102 -0.0726 -0.0683 -0.2822
  701POPI   GL210824   1.449   3.715   5.395 -0.3322 -0.0648  0.1931
  701POPI   C1A10825   1.829   4.028   5.423  0.0958 -0.2699  0.0624
  701POPI   D2A10826   1.865   4.137   5.864 -0.4158  0.3833 -0.0417
  701POPI   C3A10827   1.587   4.155   6.203  0.1762  0.2400 -0.2008
  701POPI   C4A10828   1.333   4.461   6.399 -0.1140  0.3538  0.1692
  701POPI   C1B10829   1.653   3.671   5.866 -0.2188  0.3967 -0.2816
  701POPI   C2B10830   1.265   3.730   6.216 -0.1207 -0.1068 -0.2195
  701POPI   C3B10831   1.005   3.679   6.517 -0.0374 -0.0703 -0.1916
  701POPI   C4B10832   0.741   3.783   6.830  0.1317 -0.0500 -0.0722
  702POPI    C110833  10.402  16.124   5.577  0.0531 -0.1904  0.0770
  702POPI    C210834  10.335  16.362   5.263  0.0698 -0.0992  0.1421
  702POPI    C310835  10.035  16.149   5.420  0.0286 -0.0309  0.1569
  702POPI   PO410836  10.598  16.276   5.776  0.0620 -0.0361 -0.0051
  702POPI   GL110837  10.656  16.339   6.219  0.1155 -0.2508  0.0239
  702POPI   GL210838  10.454  16.199   6.498  0.1664 -0.1662 -0.4756
  702POPI   C1A10839  11.096  16.305   6.374 -0.0701 -0.0315  0.2137
  702POPI   D2A10840  11.217  16.560   6.765  0.3152  0.0351 -0.0664
  702POPI   C3A10841  11.446  16.397   7.133 -0.3729 -0.1323  0.3214
  702POPI   C4A10842  11.462  16.098   7.410 -0.0530 -0.0552  0.0108
  702POPI   C1B10843  10.770  16.493   6.690 -0.0016 -0.0480  0.5401
  702POPI   C2B10844  10.736  16.774   7.026  0.2519 -0.0068  0.0083
  702POPI   C3B10845  10.275  16.903   7.169 -0.1633  0.0036 -0.0776
  702POPI   C4B10846   9.836  16.978   7.426 -0.0703  0.0421  0.0782
  703POPI    C110847  13.652  11.592   5.421 -0.0277 -0.2025 -0.0367
  703POPI    C210848  13.961  11.719   5.202 -0.2473  0.1588 -0.1458
  703POPI    C310849  13.830  11.343   5.164  0.2871 -0.0559  0.0347
  703POPI   PO410850  13.759  11.551   5.671 -0.0606 -0.1489  0.1327
  703POPI   GL110851  13.913  11.611   5.960  0.1870  0.1369 -0.2089
  703POPI   GL210852  13.934  11.892   5.959 -0.1610 -0.1819  0.2199
  703POPI   C1A10853  14.295  11.525   6.202 -0.2447  0.1780 -0.0277
  703POPI   D2A10854  14.364  11.371   6.623 -0.0659 -0.2220  0.1296
  703POPI   C3A10855  14.077  11.463   6.931  0.0357  0.3781  0.0507
  703POPI   C4A10856  13.705  11.460   6.999  0.3234  0.2016  0.3165
  703POPI   C1B10857  13.845  12.157   6.219  0.4419  0.1417 -0.0460
  703POPI   C2B10858  13.635  12.251   6.644 -0.3118 -0.1429 -0.0946
  703POPI   C3B10859  13.464  11.991   6.936  0.1388 -0.2501 -0.1396
  703POPI   C4B10860  13.246  11.690   7.000 -0.0295  0.2625 -0.0052
  704POPI    C110861   4.303  15.646   5.808 -0.1209 -0.0778 -0.1801
  704POPI    C210862   3.970  15.637   6.029 -0.1234 -0.0540 -0.1829
  704POPI    C310863   4.041  15.947   5.787 -0.0307  0.0089 -0.0762
  704POPI   PO410864   4.363  15.321   5.886 -0.0497 -0.0005 -0.0460
  704POPI   GL110865   4.212  15.139   6.252  0.1514 -0.1349 -0.3803
  704POPI   GL210866   4.380  15.484   6.390 -0.3682  0.0417 -0.1748
  704POPI   C1A10867   4.285  14.679   6.503  0.5079 -0.0278 -0.0480
  704POPI   D2A10868   4.135  14.319   6.526  0.0463 -0.2014 -0.0148
  704POPI   C3A10869   3.769  14.224   6.473  0.0242  0.4514  0.2711
  704POPI   C4A10870   3.698  13.740   6.473 -0.0423 -0.0555  0.2680
  704POPI   C1B10871   3.974  15.725   6.723 -0.3142  0.1904 -0.0121
  704POPI   C2B10872   3.969  15.940   7.117  0.1741 -0.2589 -0.4267
  704POPI   C3B10873   3.725  15.873   7.617  0.2118  0.1500 -0.0528
  704POPI   C4B10874   3.673  16.103   8.029  0.0251  0.3276  0.2283
  705POPI    C110875  19.007  17.967   5.418  0.3034  0.0078  0.1011
  705POPI    C210876  19.223  18.023   5.086  0.1267  0.0095 -0.0149
  705POPI    C310877  18.825  17.996   5.064  0.1010  0.1655  0.2162
  705POPI   PO410878  19.109  17.806   5.527  0.0503 -0.3723  0.0623
  705POPI   GL110879  19.096  17.769   5.974 -0.0460 -0.4530  0.2070
  705POPI   GL210880  19.258  18.079   5.959  0.0951 -0.1952  0.3541
  705POPI   C1A10881  18.872  17.564   6.274 -0.2538  0.0749  0.0869
  705POPI   D2A10882  18.479  17.496   6.462  0.0907 -0.6478  0.1566
  705POPI   C3A10883  18.405  17.721   6.858  0.3964  0.2580 -0.3710
  705POPI   C4A10884  18.242  17.913   7.230 -0.3862 -0.0921 -0.1902
  705POPI   C1B10885  19.034  18.263   6.306 -0.0724 -0.0718  0.1391
  705POPI   C2B10886  18.804  18.094   6.669 -0.1078 -0.0498 -0.0524
  705POPI   C3B10887  18.442  18.238   6.883  0.1541  0.1722 -0.0067
  705POPI   C4B10888  18.478  18.644   6.950 -0.3624 -0.1862 -0.2290
  706POPI    C110889   8.783  15.326   4.593 -0.0176 -0.1135 -0.0408
  706POPI    C210890   8.453  15.297   4.369 -0.1224 -0.0413  0.1030
  706POPI    C310891   8.763  15.054   4.300 -0.1180  0.0410 -0.1796
  706POPI   PO410892   8.666  15.235   4.903 -0.0905  0.2010 -0.0561
  706POPI   GL110893   8.688  15.132   5.294  0.0466 -0.1465  0.2165
  706POPI   GL210894   8.525  15.348   5.621  0.1145 -0.1342  0.3200
  706POPI   C1A10895   8.619  14.739   5.436  0.2004 -0.2087 -0.1657
  706POPI   D2A10896   8.694  14.361   5.628 -0.3373  0.0011  0.2661
  706POPI   C3A10897   8.953  14.295   5.975  0.1598  0.2803 -0.2353
  706POPI   C4A10898   8.982  14.451   6.307  0.0841 -0.0192  0.3233
  706POPI   C1B10899   8.755  15.341   6.049  0.1503 -0.3257 -0.1348
  706POPI   C2B10900   9.076  15.508   6.443  0.3032 -0.1875 -0.2063
  706POPI   C3B10901   9.417  15.434   6.765 -0.3811  0.1336 -0.0069
  706POPI   C4B10902   9.791  15.529   6.979  0.1106 -0.0578  0.3095
  707POPI    C110903   0.434   5.169   4.873 -0.0313  0.0430 -0.1008
  707POPI    C210904   0.756   4.937   4.821 -0.1211 -0.0790 -0.1168
  707POPI    C310905   0.518   5.022   4.511 -0.2003 -0.1313 -0.0709
  707POPI   PO410906   0.316   4.962   5.137  0.0816 -0.0694  0.1458
  707POPI   GL110907   0.203   4.915   5.515 -0.0192 -0.2252  0.0282
  707POPI   GL210908   0.318   4.564   5.541  0.0556 -0.1411  0.1586
  707POPI   C1A10909   0.477   4.933   5.930  0.0035  0.1531  0.2422
  707POPI   D2A10910   0.776   5.087   6.261 -0.0065  0.2060 -0.1923
  707POPI   C3A10911   1.011   4.804   6.496 -0.5283  0.1884  0.1271
  707POPI   C4A10912   1.255   4.744   6.805 -0.4831  0.3641  0.2173
  707POPI   C1B10913   0.082   4.607   5.971 -0.0442  0.3648 -0.1926
  707POPI   C2B10914  -0.068   4.928   6.272 -0.1131  0.0687 -0.0950
  707POPI   C3B10915  -0.314   5.064   6.568  0.1096 -0.3273 -0.0398
  707POPI   C4B10916  -0.587   4.955   6.903 -0.0270 -0.3693 -0.0660
  708POPI    C110917  11.768  14.157   5.246  0.0381  0.0775 -0.0491
  708POPI    C210918  11.516  13.861   5.152 -0.1088  0.1750  0.0331
  708POPI    C310919  11.574  14.164   4.897  0.1899 -0.0196 -0.1364
  708POPI   PO410920  11.719  14.273   5.491 -0.0522  0.1051  0.1052
  708POPI   GL110921  11.870  14.344   5.848 -0.1005  0.0210  0.0829
  708POPI   GL210922  12.216  14.384   5.992  0.3198  0.0739 -0.3119
  708POPI   C1A10923  11.787  13.956   6.058  0.1839  0.2589 -0.2520
  708POPI   D2A10924  11.679  13.761   6.377 -0.0696  0.2289 -0.0588
  708POPI   C3A10925  11.925  13.916   6.701  0.1589 -0.1487 -0.0966
  708POPI   C4A10926  12.344  14.190   6.823 -0.0644 -0.3599 -0.0188
  708POPI   C1B10927  12.028  14.337   6.434  0.4669 -0.3559  0.1230
  708POPI   C2B10928  11.913  14.408   6.847 -0.0504  0.0460 -0.1954
  708POPI   C3B10929  11.933  14.282   7.254 -0.2990  0.0880 -0.2293
  708POPI   C4B10930  12.015  13.861   7.258 -0.1921 -0.0554 -0.0034
  709POPI    C110931  16.390  16.832   5.681 -0.0308  0.0235  0.1763
  709POPI    C210932  16.635  16.650   5.939  0.1355  0.0551  0.0423
  709POPI    C310933  16.661  16.569   5.548 -0.2974 -0.1970  0.0597
  709POPI   PO410934  16.448  17.122   5.741  0.2049 -0.2970 -0.0693
  709POPI   GL110935  16.431  17.362   6.131 -0.3310  0.2933  0.0107
  709POPI   GL210936  16.475  17.095   6.215 -0.2442 -0.3597  0.0329
  709POPI   C1A10937  16.409  17.557   6.538  0.5885  0.0696  0.0739
  709POPI   D2A10938  16.495  17.566   7.006  0.1925  0.0072  0.0384
  709POPI   C3A10939  16.337  18.007   7.171 -0.0409 -0.2859  0.1404
  709POPI   C4A10940  16.276  18.305   7.510 -0.0280 -0.2738 -0.3345
  709POPI   C1B10941  16.653  16.974   6.446 -0.2388  0.1339 -0.1193
  709POPI   C2B10942  16.638  17.081   6.923 -0.1012 -0.0004 -0.2537
  709POPI   C3B10943  16.876  17.341   7.252 -0.0402 -0.1948 -0.3705
  709POPI   C4B10944  17.297  17.375   7.557 -0.0863  0.2137  0.1168
  710POPI    C110945  13.101   0.419   5.571 -0.0433  0.0504  0.2491
  710POPI    C210946  13.301   0.712   5.387 -0.0456 -0.0406  0.0997
  710POPI    C310947  13.400   0.331   5.320 -0.1706 -0.0807  0.1417
  710POPI   PO410948  13.095   0.439   5.827  0.0220 -0.7501 -0.2274
  710POPI   GL110949  13.169   0.634   6.333 -0.4484 -0.3945 -0.2032
  710POPI   GL210950  12.796   0.802   6.322 -0.0163 -0.1542 -0.2700
  710POPI   C1A10951  12.934   0.321   6.659 -0.0756  0.1296 -0.3895
  710POPI   D2A10952  12.769   0.002   6.814  0.0513  0.1837 -0.0039
  710POPI   C3A10953  12.303  -0.102   6.904 -0.0654  0.0619  0.1741
  710POPI   C4A10954  12.007  -0.328   7.160 -0.0386 -0.3266  0.0079
  710POPI   C1B10955  12.563   0.822   6.686 -0.2930  0.0549 -0.3181
  710POPI   C2B10956  12.139   0.704   7.020  0.2048  0.0088  0.0345
  710POPI   C3B10957  11.729   0.775   7.108  0.0618 -0.2387 -0.0951
  710POPI   C4B10958  11.398   1.050   7.226  0.2648 -0.2149 -0.0482
  711POPI    C110959  12.795  16.913   5.492  0.1808  0.0643  0.1008
  711POPI    C210960  12.868  17.106   5.149 -0.1327  0.1727  0.0920
  711POPI    C310961  12.700  16.743   5.143  0.2476 -0.0092  0.1180
  711POPI   PO410962  13.025  16.956   5.669  0.1382  0.3106 -0.1073
  711POPI   GL110963  12.973  17.103   6.080  0.2887  0.3441 -0.1598
  711POPI   GL210964  12.694  16.915   6.064  0.0365  0.0664 -0.0739
  711POPI   C1A10965  13.321  17.021   6.383 -0.1606 -0.1474  0.2063
  711POPI   D2A10966  13.675  16.915   6.730  0.0090  0.1286 -0.1084
  711POPI   C3A10967  13.825  17.143   7.205  0.0086 -0.0577 -0.0441
  711POPI   C4A10968  13.883  16.931   7.431  0.0683 -0.2126 -0.1907
  711POPI   C1B10969  12.753  16.922   6.527 -0.3053 -0.2079 -0.0734
  711POPI   C2B10970  13.069  16.714   6.801  0.1150  0.1001  0.0474
  711POPI   C3B10971  13.083  16.482   7.091 -0.3363 -0.4372  0.0826
  711POPI   C4B10972  13.002  16.510   7.630 -0.0255 -0.0556 -0.0825
  712POPI    C110973  15.333   3.469   5.201  0.0451 -0.1393  0.0292
  712POPI    C210974  15.323   3.514   4.804 -0.1161  0.1295  0.0612
  712POPI    C310975  15.650   3.365   4.980 -0.1038 -0.1432 -0.1851
  712POPI   PO410976  15.311   3.697   5.328 -0.2166 -0.1459 -0.2408
  712POPI   GL110977  15.446   3.458   5.781 -0.1644 -0.1301 -0.0110
  712POPI   GL210978  15.108   3.516   5.802  0.0823 -0.1950 -0.1410
  712POPI   C1A10979  15.573   3.680   6.116 -0.3444  0.2655 -0.1453
  712POPI   D2A10980  15.840   3.560   6.343  0.1316  0.2278  0.1406
  712POPI   C3A10981  16.067   3.903   6.534  0.1686  0.2333 -0.2762
  712POPI   C4A10982  16.354   4.262   6.562 -0.1261 -0.2824  0.0526
  712POPI   C1B10983  15.116   3.730   6.186  0.2454  0.2769  0.3369
  712POPI   C2B10984  15.004   3.711   6.542  0.1291  0.0259 -0.0859
  712POPI   C3B10985  14.685   3.861   6.783  0.1356  0.4970  0.0215
  712POPI   C4B10986  14.591   3.958   7.208  0.0997  0.0105 -0.1111
  713POPI    C110987   2.652   7.771   5.157  0.1200  0.1460  0.1933
  713POPI    C210988   2.319   7.797   4.937  0.0130 -0.3146  0.2907
  713POPI    C310989   2.615   7.555   4.822  0.3521  0.1455  0.1665
  713POPI   PO410990   2.599   7.969   5.323  0.2034 -0.0042 -0.0054
  713POPI   GL110991   2.654   7.981   5.811  0.0055  0.3344  0.2602
  713POPI   GL210992   2.366   8.115   5.751 -0.2100  0.1750 -0.4214
  713POPI   C1A10993   2.790   8.083   6.231 -0.1667 -0.0508  0.0627
  713POPI   D2A10994   2.715   8.117   6.690 -0.1132  0.1535  0.1052
  713POPI   C3A10995   2.724   7.702   6.783  0.0024 -0.1837 -0.0572
  713POPI   C4A10996   2.748   7.396   7.128 -0.0888 -0.1934 -0.0648
  713POPI   C1B10997   2.250   8.067   6.137 -0.0683 -0.1498 -0.1857
  713POPI   C2B10998   2.075   7.836   6.470  0.0958 -0.1183 -0.1354
  713POPI   C3B10999   2.177   7.581   6.812 -0.1224  0.0412 -0.0524
  713POPI   C4B11000   2.286   7.444   7.206  0.3402 -0.3842 -0.0047
  714POPI    C111001  18.432   4.769   4.870 -0.0976  0.2901 -0.0510
  714POPI    C211002  18.470   5.067   4.606 -0.1406  0.3501  0.0098
  714POPI    C311003  18.347   4.706   4.484  0.1785  0.2785 -0.1118
  714POPI   PO411004  18.285   4.868   5.138 -0.0432 -0.0371  0.0599
  714POPI   GL111005  18.343   4.995   5.540  0.0516  0.0344 -0.1501
  714POPI   GL211006  18.762   4.986   5.661 -0.1887  0.2163 -0.0695
  714POPI   C1A11007  18.373   5.132   5.975 -0.2347 -0.1116  0.1920
  714POPI   D2A11008  18.757   5.193   6.347  0.3091  0.3002  0.1274
  714POPI   C3A11009  18.651   5.410   6.689  0.3746  0.0813 -0.2043
  714POPI   C4A11010  18.642   5.504   7.113  0.1558 -0.1584 -0.1141
  714POPI   C1B11011  18.493   4.644   5.956  0.0582  0.1127 -0.4757
  714POPI   C2B11012  18.566   4.735   6.390 -0.1190 -0.0953 -0.0035
  714POPI   C3B11013  18.556   4.609   6.868 -0.0127  0.3679 -0.3301
  714POPI   C4B11014  18.336   4.368   7.251 -0.2774  0.0345 -0.0260
  715POPI    C111015   3.760  18.181   4.726 -0.0601  0.0181  0.0152
  715POPI    C211016   3.896  17.804   4.725 -0.1626 -0.0206  0.2158
  715POPI    C311017   3.516  17.880   4.623 -0.1961  0.0064  0.3572
  715POPI   PO411018   3.919  18.296   4.896 -0.1489  0.0896 -0.0423
  715POPI   GL111019   4.062  18.529   5.272  0.3487 -0.0917 -0.2967
  715POPI   GL211020   3.705  18.493   5.319  0.1266 -0.0745  0.1564
  715POPI   C1A11021   3.989  18.469   5.738 -0.0710  0.0226  0.1113
  715POPI   D2A11022   4.324  18.261   6.044 -0.2695 -0.3117  0.1327
  715POPI   C3A11023   3.960  18.153   6.380 -0.3453  0.0075  0.2253
  715POPI   C4A11024   3.599  18.192   6.688 -0.0616  0.0268  0.3048
  715POPI   C1B11025   3.546  18.733   5.679  0.2643  0.0898  0.0286
  715POPI   C2B11026   3.554  18.815   6.109  0.1176  0.1163  0.0694
  715POPI   C3B11027   3.673  18.626   6.537 -0.0510 -0.2921  0.1315
  715POPI   C4B11028   3.728  18.604   6.944  0.1666 -0.2619 -0.1240
  716POPI    C111029   1.166  11.640   5.311  0.4171  0.0628 -0.1624
  716POPI    C211030   0.905  11.517   5.034  0.2666 -0.0295  0.0185
  716POPI    C311031   1.297  11.485   4.967  0.2306 -0.1671 -0.1326
  716POPI   PO411032   1.035  11.919   5.486  0.3565  0.0226  0.2297
  716POPI   GL111033   1.065  12.000   5.989  0.0934  0.1101 -0.0222
  716POPI   GL211034   1.163  12.276   5.848  0.0686  0.4178 -0.0415
  716POPI   C1A11035   1.195  12.098   6.383  0.2714 -0.0230  0.0310
  716POPI   D2A11036   1.520  12.185   6.695 -0.1590  0.4713 -0.2347
  716POPI   C3A11037   1.832  11.934   6.948 -0.1151 -0.2024  0.1024
  716POPI   C4A11038   1.816  11.891   7.439 -0.0112  0.2947 -0.3132
  716POPI   C1B11039   1.091  12.589   6.103  0.0023 -0.2780 -0.0108
  716POPI   C2B11040   1.315  12.852   6.447 -0.4279 -0.3881  0.1607
  716POPI   C3B11041   1.461  12.857   6.894  0.1144  0.1636  0.2180
  716POPI   C4B11042   1.711  12.518   7.104  0.1747 -0.3037  0.1616
  717POPI    C111043  18.223   5.360   4.919 -0.0976 -0.0845  0.1105
  717POPI    C211044  18.367   5.699   4.764 -0.0391 -0.1340  0.0558
  717POPI    C311045  18.144   5.455   4.539 -0.1127 -0.1138  0.1063
  717POPI   PO411046  18.320   5.400   5.165  0.1956 -0.0104  0.2489
  717POPI   GL111047  18.237   5.518   5.588  0.0273  0.2930  0.0593
  717POPI   GL211048  17.937   5.706   5.574  0.1321  0.4852  0.1275
  717POPI   C1A11049  18.423   5.676   5.952 -0.0955  0.0014 -0.0187
  717POPI   D2A11050  18.366   5.684   6.400  0.1865 -0.2027 -0.1952
  717POPI   C3A11051  18.395   5.820   6.827  0.0416  0.1632 -0.0296
  717POPI   C4A11052  18.528   5.915   7.299  0.0337 -0.1210  0.2343
  717POPI   C1B11053  17.810   5.692   5.992 -0.2338 -0.0095  0.0938
  717POPI   C2B11054  17.785   5.793   6.483  0.1034  0.2697  0.1652
  717POPI   C3B11055  17.319   5.989   6.615 -0.0965  0.1737  0.0092
  717POPI   C4B11056  17.256   6.380   6.813 -0.2875 -0.2543 -0.2768
  718POPI    C111057  18.720   6.404   5.020 -0.3314 -0.0606 -0.0916
  718POPI    C211058  18.639   6.144   4.727  0.2176 -0.0870 -0.2324
  718POPI    C311059  19.009   6.290   4.767  0.0630  0.1991  0.2288
  718POPI   PO411060  18.634   6.278   5.262  0.1170 -0.2946 -0.5601
  718POPI   GL111061  18.741   6.134   5.609  0.1865  0.1930  0.3223
  718POPI   GL211062  18.946   6.272   5.758 -0.0844  0.3689 -0.2058
  718POPI   C1A11063  18.394   6.190   5.896 -0.4801 -0.0595 -0.1167
  718POPI   D2A11064  18.138   6.208   6.323  0.0065 -0.5085  0.0603
  718POPI   C3A11065  18.438   6.281   6.643  0.1767  0.0363 -0.1613
  718POPI   C4A11066  18.889   6.100   6.718  0.3912 -0.2757 -0.0795
  718POPI   C1B11067  18.933   6.687   5.905 -0.0926  0.1721  0.2645
  718POPI   C2B11068  18.859   7.167   5.817 -0.0520  0.2724  0.0137
  718POPI   C3B11069  18.993   7.453   6.048 -0.0742 -0.2881  0.1347
  718POPI   C4B11070  18.732   7.648   6.385  0.1720  0.0936 -0.0462
  719POPI    C111071   3.662  11.030   5.160 -0.0494  0.0736 -0.0114
  719POPI    C211072   3.797  11.116   4.794  0.2205  0.2921  0.1364
  719POPI    C311073   3.617  11.399   5.013 -0.0055  0.1429  0.1462
  719POPI   PO411074   3.870  10.943   5.262  0.1222  0.0079  0.1706
  719POPI   GL111075   4.099  10.768   5.619 -0.0182 -0.2802  0.4212
  719POPI   GL211076   3.826  10.726   5.720 -0.1228 -0.0384  0.0908
  719POPI   C1A11077   4.103  11.124   5.886  0.1584 -0.3957  0.2488
  719POPI   D2A11078   4.133  11.474   6.084  0.0315 -0.1344 -0.4230
  719POPI   C3A11079   4.051  11.424   6.498 -0.2315  0.0230  0.0785
  719POPI   C4A11080   4.282  11.260   6.721  0.0661  0.2961  0.0284
  719POPI   C1B11081   3.721  10.490   6.213  0.0716  0.3664 -0.3546
  719POPI   C2B11082   3.825  10.060   6.443  0.1165 -0.1871 -0.2066
  719POPI   C3B11083   3.883   9.934   6.853  0.1017  0.0605  0.1828
  719POPI   C4B11084   3.571  10.029   7.123  0.1608 -0.1741  0.0532
  720POPI    C111085  16.162   6.716   5.079 -0.2327 -0.0830  0.0508
  720POPI    C211086  16.234   6.358   4.915  0.2315  0.0626 -0.0756
  720POPI    C311087  16.027   6.633   4.712 -0.2922 -0.1908  0.0962
  720POPI   PO411088  16.024   6.746   5.239 -0.2724  0.1026  0.3109
  720POPI   GL111089  15.823   6.789   5.620 -0.1819  0.1247  0.2458
  720POPI   GL211090  15.955   7.105   5.707  0.1493  0.1225 -0.0094
  720POPI   C1A11091  15.925   6.650   6.010 -0.0671  0.0666 -0.2094
  720POPI   D2A11092  15.799   6.635   6.418 -0.1020  0.1922  0.2610
  720POPI   C3A11093  15.643   6.454   6.791  0.0896  0.0448  0.0676
  720POPI   C4A11094  15.490   6.506   7.277  0.1917  0.1479 -0.2992
  720POPI   C1B11095  16.030   7.262   6.072  0.2492  0.0179 -0.2174
  720POPI   C2B11096  15.943   7.152   6.503 -0.5511 -0.3130  0.0517
  720POPI   C3B11097  15.746   6.956   6.901  0.1346  0.3036  0.3778
  720POPI   C4B11098  15.472   6.965   7.224  0.4863  0.0574 -0.0281
  721POPI    C111099  11.674   9.785   5.248  0.0616  0.3260 -0.0394
  721POPI    C211100  11.670  10.063   5.535  0.0941  0.3352 -0.0480
  721POPI    C311101  11.996  10.013   5.309  0.1828  0.1136  0.1265
  721POPI   PO411102  11.621   9.549   5.421  0.0874 -0.1369 -0.3689
  721POPI   GL111103  11.410   9.409   5.812 -0.0789  0.0441  0.0582
  721POPI   GL211104  11.346   9.717   5.971 -0.2601  0.3584  0.1419
  721POPI   C1A11105  11.281   9.128   6.182 -0.1517 -0.0212  0.1910
  721POPI   D2A11106  11.471   9.082   6.621 -0.5569  0.0029  0.1040
  721POPI   C3A11107  11.648   8.700   6.625  0.0165 -0.4424 -0.0652
  721POPI   C4A11108  12.145   8.532   6.639 -0.2933  0.6615  0.1910
  721POPI   C1B11109  11.110   9.558   6.319  0.2565 -0.0113 -0.0033
  721POPI   C2B11110  10.911   9.528   6.728 -0.2549 -0.0069  0.2580
  721POPI   C3B11111  10.605   9.489   6.974  0.4292 -0.0371 -0.0218
  721POPI   C4B11112  10.357   9.712   7.242  0.0135 -0.1471 -0.1235
  722POPI    C111113   2.413   9.695   5.217  0.0180  0.0615 -0.0437
  722POPI    C211114   2.606   9.855   4.905  0.2223  0.0462  0.0729
  722POPI    C311115   2.690   9.482   5.022 -0.1341 -0.0917 -0.0953
  722POPI   PO411116   2.436   9.910   5.428 -0.0231  0.1880  0.1445
  722POPI   GL111117   2.691  10.023   5.723 -0.1944 -0.0936  0.3071
  722POPI   GL211118   2.346   9.839   5.881  0.2018 -0.1272 -0.1746
  722POPI   C1A11119   2.804   9.968   6.179 -0.2822 -0.2849  0.4372
  722POPI   D2A11120   2.996   9.694   6.539  0.1641 -0.1169  0.1043
  722POPI   C3A11121   2.785   9.471   6.912  0.1972  0.3947 -0.0628
  722POPI   C4A11122   2.453   9.438   7.167  0.2587  0.1921  0.0499
  722POPI   C1B11123   2.311  10.055   6.229 -0.0429 -0.0593  0.2109
  722POPI   C2B11124   2.574   9.961   6.625  0.2676 -0.2419  0.0862
  722POPI   C3B11125   2.487   9.953   7.091  0.1242 -0.1890  0.1314
  722POPI   C4B11126   2.547   9.818   7.462  0.0346 -0.2679 -0.1779
  723POPI    C111127  17.048   1.336   5.414 -0.0305 -0.0910  0.0825
  723POPI    C211128  16.915   1.096   5.124 -0.0135  0.1252 -0.1073
  723POPI    C311129  17.084   1.446   5.031 -0.0370  0.2110  0.1658
  723POPI   PO411130  17.236   1.183   5.539 -0.2136 -0.1308  0.0900
  723POPI   GL111131  17.413   1.237   5.917  0.0727 -0.1721 -0.2872
  723POPI   GL211132  17.164   0.987   5.973 -0.1770 -0.0845 -0.2162
  723POPI   C1A11133  17.620   1.567   5.920 -0.3178  0.1370  0.0766
  723POPI   D2A11134  17.425   1.960   6.013 -0.2991  0.0828  0.2163
  723POPI   C3A11135  17.645   2.376   6.170  0.0119  0.1779  0.1173
  723POPI   C4A11136  17.791   2.672   6.554 -0.1322  0.0321  0.3955
  723POPI   C1B11137  17.148   1.150   6.351 -0.0908  0.1948  0.0759
  723POPI   C2B11138  17.317   1.532   6.355 -0.2183  0.2554  0.2487
  723POPI   C3B11139  17.199   1.934   6.398 -0.1568 -0.0087  0.3255
  723POPI   C4B11140  17.512   2.206   6.618  0.2481 -0.3538 -0.0196
  724POPI    C111141   2.245  16.492   5.522 -0.1149  0.0938  0.0929
  724POPI    C211142   2.297  16.887   5.556  0.1241  0.0678  0.0452
  724POPI    C311143   2.405  16.700   5.220  0.0901 -0.0512  0.0999
  724POPI   PO411144   1.905  16.554   5.638  0.5535 -0.0650  0.1809
  724POPI   GL111145   1.604  16.550   5.974  0.2788  0.1282 -0.2403
  724POPI   GL211146   1.340  16.460   6.058 -0.0806 -0.0065  0.3062
  724POPI   C1A11147   1.913  16.319   6.275 -0.1135 -0.0630  0.4975
  724POPI   D2A11148   2.082  16.266   6.699  0.0991  0.3478 -0.0337
  724POPI   C3A11149   2.207  16.501   7.057  0.0758 -0.0006  0.1223
  724POPI   C4A11150   2.512  16.439   7.354  0.2118 -0.2180  0.1063
  724POPI   C1B11151   1.077  16.627   6.347 -0.0667 -0.1037  0.0854
  724POPI   C2B11152   0.987  16.779   6.839  0.1497  0.4284  0.2840
  724POPI   C3B11153   1.179  16.833   7.231  0.1169 -0.1093 -0.2258
  724POPI   C4B11154   1.029  16.544   7.634 -0.2566  0.2583  0.0585
  725POPI    C111155  17.446   9.931   5.182  0.2172  0.1344 -0.1716
  725POPI    C211156  17.655  10.076   4.873  0.0539  0.1686 -0.2673
  725POPI    C311157  17.359   9.815   4.809  0.1015  0.0793 -0.1278
  725POPI   PO411158  17.389  10.125   5.451  0.1241  0.2752  0.0348
  725POPI   GL111159  17.461  10.217   5.943 -0.1472  0.0672  0.0678
  725POPI   GL211160  17.691  10.443   5.635 -0.2501  0.0339  0.1207
  725POPI   C1A11161  17.415  10.522   6.258 -0.0389  0.0074  0.1984
  725POPI   D2A11162  17.514  10.514   6.608  0.3541 -0.1215  0.2333
  725POPI   C3A11163  17.276  10.718   6.905 -0.1805  0.0123  0.0575
  725POPI   C4A11164  17.414  10.913   7.271  0.3166 -0.1788  0.0093
  725POPI   C1B11165  17.944  10.353   6.001 -0.0860 -0.1357  0.2450
  725POPI   C2B11166  17.962  10.537   6.441 -0.3486 -0.0532 -0.0173
  725POPI   C3B11167  17.974  10.540   6.821  0.0559 -0.1057 -0.3570
  725POPI   C4B11168  17.686  10.487   7.117  0.0132 -0.3155  0.0914
  726POPI    C111169  14.782  12.705   5.835  0.2508 -0.1680 -0.1209
  726POPI    C211170  14.496  12.984   5.855 -0.0247 -0.4657  0.2282
  726POPI    C311171  14.553  12.781   5.515  0.0048 -0.1692  0.0524
  726POPI   PO411172  15.021  12.829   5.929  0.0620  0.0851  0.2912
  726POPI   GL111173  15.251  12.895   6.225 -0.1089  0.1597  0.2883
  726POPI   GL211174  15.404  12.600   6.119  0.0148  0.0682 -0.0008
  726POPI   C1A11175  15.319  13.007   6.618  0.2693 -0.1518 -0.1579
  726POPI   D2A11176  15.337  12.983   7.013  0.1440  0.0238  0.3861
  726POPI   C3A11177  15.229  13.357   7.229  0.1463  0.4091  0.1136
  726POPI   C4A11178  15.150  13.552   7.541  0.0334 -0.0360  0.1425
  726POPI   C1B11179  15.279  12.448   6.519 -0.0521 -0.1771  0.4084
  726POPI   C2B11180  15.076  12.555   6.919  0.1679 -0.2937  0.1086
  726POPI   C3B11181  14.648  12.521   7.055  0.0933 -0.0054 -0.1228
  726POPI   C4B11182  14.245  12.346   7.303  0.0896 -0.3356 -0.0901
  727POPI    C111183   7.149   4.858   4.325 -0.4574  0.2514  0.3367
  727POPI    C211184   6.962   4.823   3.973 -0.1055 -0.0575  0.1747
  727POPI    C311185   7.207   5.132   4.039  0.4264 -0.3923 -0.1501
  727POPI   PO411186   7.197   4.640   4.358 -0.0233 -0.0370  0.2610
  727POPI   GL111187   7.330   4.687   4.820  0.0598 -0.0232  0.0158
  727POPI   GL211188   7.279   5.176   4.823  0.0512  0.2205 -0.0894
  727POPI   C1A11189   7.233   4.446   5.137 -0.5093 -0.1511 -0.2570
  727POPI   D2A11190   7.336   3.991   4.996 -0.2066 -0.3964  0.1047
  727POPI   C3A11191   6.937   3.873   5.086  0.1089 -0.0153  0.1814
  727POPI   C4A11192   6.524   3.569   5.093  0.2635 -0.0815 -0.2301
  727POPI   C1B11193   7.397   5.096   5.169  0.1214 -0.0516 -0.2693
  727POPI   C2B11194   7.747   4.856   5.352  0.1311  0.2844 -0.0837
  727POPI   C3B11195   8.071   5.166   5.596  0.3601 -0.0508  0.1144
  727POPI   C4B11196   8.260   5.239   5.908  0.3463 -0.1109  0.2922
  728POPI    C111197  14.979  17.668   5.722 -0.2611 -0.0659 -0.2770
  728POPI    C211198  14.704  17.377   5.715 -0.0318 -0.3039  0.1650
  728POPI    C311199  15.030  17.350   5.486 -0.2138 -0.1810 -0.1139
  728POPI   PO411200  15.107  17.720   6.062  0.3199  0.1582  0.3169
  728POPI   GL111201  15.283  17.903   6.307 -0.0106  0.1522 -0.0182
  728POPI   GL211202  14.907  17.961   6.392 -0.2848 -0.0918 -0.1795
  728POPI   C1A11203  15.206  18.093   6.744 -0.1645  0.0626 -0.3348
  728POPI   D2A11204  15.372  18.400   7.098  0.1489 -0.1410 -0.1976
  728POPI   C3A11205  15.369  18.793   7.342  0.1115 -0.1574  0.1877
  728POPI   C4A11206  15.023  19.037   7.550 -0.2165 -0.3246  0.0219
  728POPI   C1B11207  14.942  17.676   6.778  0.3123  0.3058  0.1330
  728POPI   C2B11208  15.069  17.514   7.156 -0.0658  0.1270  0.1063
  728POPI   C3B11209  15.038  17.120   7.274 -0.1750 -0.1155 -0.1463
  728POPI   C4B11210  15.245  16.853   7.580 -0.0112 -0.3129  0.1338
  729POPI    C111211  16.298  18.085   5.554  0.0807  0.0976  0.1227
  729POPI    C211212  16.169  18.443   5.431  0.0710  0.0144 -0.1127
  729POPI    C311213  16.549  18.397   5.549  0.0239  0.1428  0.0943
  729POPI   PO411214  16.132  18.048   5.759 -0.0984 -0.0409 -0.0842
  729POPI   GL111215  16.105  18.236   6.105 -0.2282 -0.0346 -0.1308
  729POPI   GL211216  16.185  18.548   5.972  0.0260  0.1746 -0.1242
  729POPI   C1A11217  16.183  18.016   6.520  0.1237 -0.0058 -0.2571
  729POPI   D2A11218  16.634  18.097   6.709  0.2809 -0.1237 -0.3105
  729POPI   C3A11219  16.929  18.406   6.732 -0.1492  0.0275 -0.0847
  729POPI   C4A11220  17.204  18.490   6.508  0.0801  0.0071 -0.1931
  729POPI   C1B11221  16.197  18.621   6.437 -0.3807 -0.1103  0.3756
  729POPI   C2B11222  16.351  18.437   6.870 -0.1154 -0.0146  0.0527
  729POPI   C3B11223  16.529  18.678   7.201 -0.1458 -0.0326  0.0457
  729POPI   C4B11224  16.594  18.769   7.680  0.3466 -0.0236 -0.4296
  730POPI    C111225   0.271   0.132   5.190 -0.0772 -0.0944 -0.1027
  730POPI    C211226   0.598   0.184   5.415 -0.0514  0.0803 -0.1789
  730POPI    C311227   0.625   0.201   5.017 -0.1337 -0.0196 -0.1891
  730POPI   PO411228   0.111   0.186   5.411  0.2627  0.0957  0.1041
  730POPI   GL111229   0.312   0.454   5.813  0.1157  0.0348 -0.1511
  730POPI   GL211230   0.505   0.613   5.891 -0.1253  0.3354  0.0558
  730POPI   C1A11231  -0.069   0.665   6.122 -0.1368 -0.2272  0.1175
  730POPI   D2A11232  -0.339   0.355   6.302 -0.1761  0.0230 -0.2472
  730POPI   C3A11233  -0.595   0.492   6.563  0.1317  0.0001  0.0810
  730POPI   C4A11234  -0.680   0.696   6.933  0.0835 -0.0623  0.1697
  730POPI   C1B11235   0.359   0.716   6.310  0.0420  0.1077  0.2884
  730POPI   C2B11236   0.310   0.555   6.616 -0.1626  0.2623 -0.1155
  730POPI   C3B11237   0.181   0.851   6.842 -0.1029 -0.0534  0.3884
  730POPI   C4B11238  -0.173   1.080   7.112  0.4935  0.1833  0.1392
  731POPI    C111239   3.330   9.339   5.073  0.0503  0.0167  0.2668
  731POPI    C211240   3.730   9.317   5.073  0.0602  0.0813 -0.2251
  731POPI    C311241   3.511   8.989   5.003  0.0226  0.0424  0.0613
  731POPI   PO411242   3.123   9.394   5.307  0.3389  0.3282 -0.1047
  731POPI   GL111243   2.973   9.011   5.626 -0.0749  0.2082  0.1278
  731POPI   GL211244   2.670   9.044   5.796  0.1275  0.3110 -0.0298
  731POPI   C1A11245   3.190   8.977   6.037  0.0506  0.0680  0.0862
  731POPI   D2A11246   3.343   9.003   6.369 -0.0748 -0.1245  0.2001
  731POPI   C3A11247   3.233   9.010   6.891 -0.0131  0.1841  0.5835
  731POPI   C4A11248   2.905   9.132   7.263  0.1320 -0.0777 -0.2510
  731POPI   C1B11249   2.789   9.335   6.050  0.2945  0.0813  0.0578
  731POPI   C2B11250   2.525   9.527   6.383  0.0591 -0.0239 -0.0800
  731POPI   C3B11251   2.270   9.592   6.696 -0.4024  0.2772 -0.0902
  731POPI   C4B11252   1.995   9.673   7.088 -0.2557 -0.1435 -0.0720
  732POPI    C111253   9.540  13.799   5.443 -0.2217 -0.3535  0.2117
  732POPI    C211254   9.668  13.555   5.153 -0.2805 -0.0873 -0.0423
  732POPI    C311255   9.339  13.776   5.098 -0.0863  0.2402  0.0827
  732POPI   PO411256   9.773  13.990   5.454 -0.0575  0.0551  0.2005
  732POPI   GL111257   9.982  14.001   5.895  0.2961 -0.3154  0.1279
  732POPI   GL211258   9.700  13.778   5.960  0.0048  0.1351 -0.0929
  732POPI   C1A11259   9.877  14.128   6.326 -0.1691  0.0095 -0.1495
  732POPI   D2A11260   9.724  13.812   6.714  0.0780 -0.0763  0.3009
  732POPI   C3A11261   9.342  13.701   6.932  0.0413  0.0747 -0.0142
  732POPI   C4A11262   9.433  13.570   7.331  0.0501 -0.2630 -0.4121
  732POPI   C1B11263   9.393  13.970   6.246 -0.1780  0.1370  0.1781
  732POPI   C2B11264   9.211  14.055   6.593 -0.3358 -0.0930  0.0749
  732POPI   C3B11265   9.188  14.520   6.733  0.1536 -0.0186 -0.0761
  732POPI   C4B11266   9.300  14.949   7.022 -0.1204  0.6341  0.1897
  733POPI    C111267   9.175   8.600   4.774  0.2308  0.0563  0.1374
  733POPI    C211268   8.861   8.753   4.969  0.1349 -0.2414  0.2224
  733POPI    C311269   8.936   8.863   4.591 -0.0489 -0.1395  0.2145
  733POPI   PO411270   9.156   8.397   4.916 -0.2054 -0.3994  0.0261
  733POPI   GL111271   8.909   8.355   5.325 -0.5135  0.1286 -0.0712
  733POPI   GL211272   8.745   8.277   5.151  0.2167 -0.1589  0.0118
  733POPI   C1A11273   9.046   8.236   5.769  0.0627 -0.0786  0.1182
  733POPI   D2A11274   8.868   8.413   6.139  0.0656  0.2201 -0.1048
  733POPI   C3A11275   8.566   8.660   6.011  0.1315  0.3536  0.1359
  733POPI   C4A11276   8.228   8.786   5.884  0.1922 -0.0182 -0.1542
  733POPI   C1B11277   8.715   7.946   5.435 -0.0207  0.1484 -0.0993
  733POPI   C2B11278   8.619   7.995   5.863 -0.2333  0.2238  0.2166
  733POPI   C3B11279   8.963   7.863   6.193 -0.1916  0.0011  0.3480
  733POPI   C4B11280   9.284   8.161   6.395  0.1018 -0.1595  0.0597
  734POPI    C111281   2.796  12.249   5.429 -0.0252  0.1564 -0.0420
  734POPI    C211282   2.606  12.365   5.096 -0.0808 -0.0115 -0.0697
  734POPI    C311283   3.005  12.387   5.117 -0.0991  0.3232 -0.0189
  734POPI   PO411284   2.798  11.877   5.450 -0.0126 -0.2671  0.1622
  734POPI   GL111285   2.532  11.612   5.792 -0.0741 -0.4052 -0.1185
  734POPI   GL211286   2.865  11.391   5.704 -0.1610 -0.0938  0.0764
  734POPI   C1A11287   2.357  11.342   6.100  0.1165  0.1981 -0.3428
  734POPI   D2A11288   2.269  11.109   6.410 -0.1441 -0.1132 -0.3409
  734POPI   C3A11289   2.496  10.945   6.657 -0.1539  0.0928  0.2121
  734POPI   C4A11290   2.777  11.022   6.974 -0.1529  0.0992  0.0083
  734POPI   C1B11291   3.141  11.171   6.007  0.0933  0.2610  0.2965
  734POPI   C2B11292   3.633  10.988   6.146 -0.3943 -0.0682  0.0131
  734POPI   C3B11293   3.725  11.069   6.503  0.0960  0.3512  0.0300
  734POPI   C4B11294   3.930  10.936   6.917  0.0529  0.1729  0.0073
  735POPI    C111295   7.762  13.859   5.460  0.0629 -0.1100  0.0794
  735POPI    C211296   7.567  13.802   5.115  0.1874 -0.0961  0.0061
  735POPI    C311297   7.425  14.060   5.386 -0.0088 -0.2422  0.0443
  735POPI   PO411298   7.963  13.910   5.429 -0.0883 -0.0218 -0.0027
  735POPI   GL111299   8.275  13.976   5.697  0.1228 -0.0666  0.0531
  735POPI   GL211300   8.475  13.673   5.557 -0.0595 -0.0503 -0.2180
  735POPI   C1A11301   8.385  13.968   6.072 -0.2305  0.2751 -0.3390
  735POPI   D2A11302   8.161  13.907   6.430  0.3167  0.2664 -0.3315
  735POPI   C3A11303   8.261  13.543   6.509  0.0125 -0.0232  0.0884
  735POPI   C4A11304   7.906  13.380   6.404 -0.0337 -0.1175 -0.0158
  735POPI   C1B11305   8.710  13.383   5.814  0.1627 -0.1383 -0.1891
  735POPI   C2B11306   8.671  13.301   6.209 -0.1031 -0.0995 -0.1877
  735POPI   C3B11307   8.795  13.434   6.642  0.0468  0.1340  0.1475
  735POPI   C4B11308   8.734  13.253   7.024  0.0230 -0.0352  0.3520
  736POPI    C111309  13.380   9.220   5.103  0.1025  0.0319 -0.2143
  736POPI    C211310  12.997   9.280   5.002  0.0147  0.0492  0.1166
  736POPI    C311311  13.290   9.463   4.799 -0.1535  0.0713 -0.1094
  736POPI   PO411312  13.405   9.183   5.346  0.0944 -0.1705  0.0356
  736POPI   GL111313  13.505   9.054   5.821  0.0160  0.1522  0.1282
  736POPI   GL211314  13.741   8.893   6.049  0.1160  0.1898  0.0525
  736POPI   C1A11315  13.614   9.367   6.213 -0.1145  0.3069 -0.0382
  736POPI   D2A11316  13.541   9.545   6.608  0.0245 -0.0390 -0.0371
  736POPI   C3A11317  13.791   9.479   6.855 -0.2169 -0.0316  0.0144
  736POPI   C4A11318  14.179   9.482   7.116 -0.1981  0.1759  0.0399
  736POPI   C1B11319  13.445   8.968   6.367 -0.4893  0.0097  0.1001
  736POPI   C2B11320  13.369   9.104   6.767  0.1382  0.2206 -0.4513
  736POPI   C3B11321  13.461   9.305   7.147 -0.0769  0.0120  0.0074
  736POPI   C4B11322  13.541   9.765   7.241  0.1476  0.2315 -0.2122
  737POPI    C111323   6.576  17.360   5.479  0.0764  0.0831  0.0691
  737POPI    C211324   6.299  17.565   5.277  0.1841  0.0915 -0.0716
  737POPI    C311325   6.491  17.262   5.101  0.1897  0.0183  0.0599
  737POPI   PO411326   6.711  17.458   5.495 -0.2061  0.1479 -0.0140
  737POPI   GL111327   6.990  17.274   5.751  0.1323  0.1194 -0.0349
  737POPI   GL211328   7.304  17.215   5.726  0.1350  0.2472 -0.0684
  737POPI   C1A11329   6.913  17.452   6.158 -0.1425  0.2576 -0.1051
  737POPI   D2A11330   6.630  17.659   6.374  0.0144 -0.0658  0.0116
  737POPI   C3A11331   6.362  17.978   6.265 -0.1347 -0.0543 -0.1574
  737POPI   C4A11332   6.278  18.423   6.534  0.0509 -0.0644  0.1759
  737POPI   C1B11333   7.365  17.157   6.163 -0.0734 -0.0743  0.1342
  737POPI   C2B11334   7.663  17.025   6.423 -0.0755  0.0044  0.1894
  737POPI   C3B11335   7.833  16.713   6.655 -0.0553 -0.2897 -0.3474
  737POPI   C4B11336   7.586  16.530   6.796  0.2257 -0.1355 -0.0780
  738POPS   CNO11337  19.464   7.177   4.738  0.0214  0.0177 -0.2256
  738POPS   PO411338  19.252   7.402   4.974 -0.2323  0.2559 -0.2897
  738POPS   GL111339  19.360   7.208   5.342  0.0626  0.0664  0.4350
  738POPS   GL211340  19.506   7.514   5.535 -0.1236  0.0968 -0.0555
  738POPS   C1A11341  19.354   7.034   5.840 -0.2059 -0.3647 -0.0300
  738POPS   D2A11342  19.168   7.055   6.310  0.0590  0.0897  0.0573
  738POPS   C3A11343  18.780   7.096   6.329 -0.0761 -0.1952 -0.0458
  738POPS   C4A11344  18.442   7.195   6.609 -0.3805  0.2429 -0.3597
  738POPS   C1B11345  19.394   7.806   5.876 -0.2139  0.0536  0.1625
  738POPS   C2B11346  19.136   8.026   6.164 -0.0496  0.2800 -0.0890
  738POPS   C3B11347  19.049   8.008   6.648 -0.0374 -0.0153  0.4475
  738POPS   C4B11348  18.662   8.113   6.658 -0.1133  0.2225  0.1984
  739POPS   CNO11349  16.508   4.547   4.926 -0.0462  0.1166 -0.3058
  739POPS   PO411350  16.413   4.591   5.322  0.4682 -0.2152  0.1511
  739POPS   GL111351  16.418   4.423   5.748  0.0616 -0.0232 -0.1969
  739POPS   GL211352  16.527   4.693   5.783  0.0540  0.3611 -0.0593
  739POPS   C1A11353  16.131   4.478   6.106 -0.0792  0.2215 -0.1912
  739POPS   D2A11354  15.889   4.477   6.450 -0.0057  0.2280  0.2417
  739POPS   C3A11355  15.545   4.146   6.456  0.0257  0.2974 -0.2246
  739POPS   C4A11356  15.554   3.730   6.703 -0.4208  0.1213 -0.2142
  739POPS   C1B11357  16.992   4.927   5.798  0.2582 -0.0184 -0.0751
  739POPS   C2B11358  17.306   4.632   5.918 -0.0809 -0.1162 -0.0639
  739POPS   C3B11359  17.665   4.263   6.010  0.0535 -0.0579  0.0774
  739POPS   C4B11360  18.102   4.294   6.015  0.1253  0.1659 -0.0203
  740POPS   CNO11361  10.238   3.146   4.745  0.0394 -0.3388  0.2833
  740POPS   PO411362  10.634   3.396   4.663 -0.0214  0.5786 -0.2589
  740POPS   GL111363  10.542   3.322   5.050 -0.1978  0.0287  0.1259
  740POPS   GL211364  10.750   3.451   5.282 -0.0759 -0.0383  0.2315
  740POPS   C1A11365  10.322   3.276   5.444  0.3480  0.1199 -0.1151
  740POPS   D2A11366  10.215   3.373   5.922 -0.0489  0.2717 -0.2496
  740POPS   C3A11367  10.149   3.508   6.240 -0.2038 -0.3144 -0.0190
  740POPS   C4A11368  10.246   3.612   6.571  0.2568  0.0584 -0.1583
  740POPS   C1B11369  10.554   3.695   5.685 -0.2488  0.1403 -0.3369
  740POPS   C2B11370  10.218   4.035   5.782 -0.3426  0.3182  0.1449
  740POPS   C3B11371  10.018   3.965   6.303  0.0618 -0.2161  0.3124
  740POPS   C4B11372   9.733   4.044   6.638 -0.2031 -0.0471  0.1354
  741POPS   CNO11373  12.177   0.581   5.105  0.1784 -0.1728  0.0858
  741POPS   PO411374  12.216   0.611   5.565 -0.1671 -0.1884  0.2702
  741POPS   GL111375  12.108   0.662   5.971 -0.4660  0.2722  0.1451
  741POPS   GL211376  12.298   0.459   6.224  0.1077 -0.2961 -0.1718
  741POPS   C1A11377  12.137   1.008   6.230 -0.1251  0.0970  0.3339
  741POPS   D2A11378  11.876   1.145   6.619  0.3058 -0.0599 -0.0140
  741POPS   C3A11379  11.544   0.959   6.663 -0.1470  0.3254  0.0738
  741POPS   C4A11380  11.069   0.906   6.712  0.1233  0.2329  0.1670
  741POPS   C1B11381  12.395   0.335   6.578  0.1901  0.2754  0.2316
  741POPS   C2B11382  12.514   0.365   6.949 -0.0963 -0.0618  0.2627
  741POPS   C3B11383  12.440   0.350   7.326 -0.0383  0.0721 -0.0780
  741POPS   C4B11384  12.270   0.306   7.904 -0.0102  0.3806  0.0717
  742POPS   CNO11385  12.667   6.821   5.359  0.0244 -0.1636 -0.2644
  742POPS   PO411386  13.069   6.714   5.061 -0.0143  0.1196  0.0520
  742POPS   GL111387  13.136   7.043   5.329  0.1306  0.1279  0.2124
  742POPS   GL211388  13.398   6.877   5.421  0.2358 -0.0554 -0.3469
  742POPS   C1A11389  13.173   7.266   5.681 -0.2225  0.4322  0.2427
  742POPS   D2A11390  12.809   7.412   6.037 -0.1921 -0.1798  0.2740
  742POPS   C3A11391  12.862   7.828   6.297  0.0058 -0.0209 -0.0683
  742POPS   C4A11392  13.082   8.311   6.350  0.0335 -0.2198 -0.0162
  742POPS   C1B11393  13.562   6.938   5.827 -0.0013  0.3543  0.1159
  742POPS   C2B11394  13.734   7.106   6.134  0.4037  0.0813  0.0242
  742POPS   C3B11395  13.531   7.061   6.564 -0.1444 -0.0818  0.0297
  742POPS   C4B11396  13.682   6.797   6.838 -0.0331  0.1752 -0.1274
  743POPS   CNO11397  12.531  13.086   6.004  0.1695 -0.1808  0.0778
  743POPS   PO411398  12.605  13.464   5.843 -0.1103 -0.0671 -0.1844
  743POPS   GL111399  12.593  13.694   6.283  0.2433  0.1085 -0.2659
  743POPS   GL211400  12.215  13.798   6.287 -0.1325 -0.0160  0.0444
  743POPS   C1A11401  12.603  13.747   6.607  0.5006 -0.0960 -0.0806
  743POPS   D2A11402  12.324  13.649   6.938  0.1496 -0.0066 -0.0787
  743POPS   C3A11403  11.991  13.413   6.869  0.1464 -0.1095  0.0125
  743POPS   C4A11404  11.801  13.044   6.970  0.0893  0.3682 -0.1686
  743POPS   C1B11405  12.511  14.174   6.343 -0.1889  0.0628  0.1237
  743POPS   C2B11406  12.825  14.333   6.734  0.1337  0.0983 -0.0668
  743POPS   C3B11407  12.852  14.442   7.107 -0.3185  0.0690 -0.1847
  743POPS   C4B11408  12.884  14.263   7.500  0.0052  0.1050 -0.1486
  744POPS   CNO11409   2.086   4.377   4.638 -0.1131 -0.2900  0.0741
  744POPS   PO411410   2.149   4.821   4.845  0.1794 -0.2890  0.1158
  744POPS   GL111411   2.193   5.048   5.128  0.1568  0.1134 -0.4051
  744POPS   GL211412   2.498   5.153   5.166  0.1668  0.0587  0.2347
  744POPS   C1A11413   2.170   5.207   5.565  0.2820 -0.0983 -0.0706
  744POPS   D2A11414   2.258   5.249   6.010  0.1226  0.0432  0.2869
  744POPS   C3A11415   2.618   5.251   6.120  0.0656 -0.1515  0.0336
  744POPS   C4A11416   3.044   5.300   6.238 -0.0496  0.0072 -0.3094
  744POPS   C1B11417   2.428   4.765   5.441 -0.2419  0.2780 -0.4419
  744POPS   C2B11418   2.268   4.670   5.851  0.1298 -0.1435 -0.0383
  744POPS   C3B11419   2.077   4.464   6.216  0.1596 -0.0708  0.0433
  744POPS   C4B11420   1.762   4.631   6.548  0.0062  0.0201 -0.1805
  745POPS   CNO11421  18.716  14.523   5.622  0.1395 -0.2533  0.1336
  745POPS   PO411422  18.614  14.852   5.658  0.1111  0.1906  0.0527
  745POPS   GL111423  18.523  15.109   5.868 -0.2503 -0.0720 -0.1857
  745POPS   GL211424  18.262  15.218   5.912  0.0956 -0.1962 -0.0289
  745POPS   C1A11425  18.603  15.243   6.328  0.3657  0.1246  0.2777
  745POPS   D2A11426  18.458  15.274   6.723 -0.2860  0.1594 -0.0140
  745POPS   C3A11427  18.686  15.195   7.100  0.1963  0.0056 -0.0617
  745POPS   C4A11428  18.607  14.877   7.437  0.2703  0.0581 -0.0820
  745POPS   C1B11429  18.139  15.406   6.274  0.0585  0.2064  0.3435
  745POPS   C2B11430  17.967  15.446   6.576  0.2813  0.2686 -0.2804
  745POPS   C3B11431  17.998  15.146   6.976  0.1577  0.1299 -0.0338
  745POPS   C4B11432  18.222  14.879   7.071  0.1495  0.2218 -0.0396
  746POPS   CNO11433  10.203   4.654   4.797  0.1681  0.0091 -0.2134
  746POPS   PO411434  10.167   5.047   4.838 -0.1787  0.0513 -0.4353
  746POPS   GL111435   9.863   4.871   5.138 -0.0067  0.0956  0.3383
  746POPS   GL211436   9.668   5.047   5.340  0.1447 -0.4116  0.0044
  746POPS   C1A11437   9.761   4.610   5.455 -0.1620  0.1846  0.0094
  746POPS   D2A11438   9.743   4.380   5.904  0.2511 -0.1491 -0.1132
  746POPS   C3A11439   9.564   4.629   6.134  0.2488  0.0711 -0.1106
  746POPS   C4A11440   9.531   4.488   6.530 -0.0785 -0.0889 -0.2745
  746POPS   C1B11441   9.391   5.005   5.791 -0.0207  0.4626  0.4331
  746POPS   C2B11442   9.148   5.071   6.098 -0.2830  0.1115  0.0214
  746POPS   C3B11443   9.047   4.951   6.454 -0.3579  0.0708 -0.0091
  746POPS   C4B11444   9.102   5.108   6.951 -0.0968 -0.1832  0.1849
  747POPS   CNO11445  16.730  14.307   5.448 -0.2035 -0.2122  0.1519
  747POPS   PO411446  16.842  14.794   5.620 -0.4281 -0.0759 -0.1325
  747POPS   GL111447  17.122  14.781   5.892 -0.1249  0.3027  0.2308
  747POPS   GL211448  17.193  14.509   6.012  0.2075 -0.1264  0.1155
  747POPS   C1A11449  17.344  14.946   6.260  0.0614  0.1247  0.0521
  747POPS   D2A11450  17.551  15.194   6.606 -0.1761 -0.3404  0.2449
  747POPS   C3A11451  17.363  15.236   6.962 -0.2676  0.0960  0.1330
  747POPS   C4A11452  17.303  15.424   7.386  0.2837  0.0419 -0.4204
  747POPS   C1B11453  17.084  14.593   6.416 -0.0679 -0.0585 -0.0044
  747POPS   C2B11454  17.241  14.588   6.886 -0.2389 -0.1355  0.1388
  747POPS   C3B11455  17.545  14.362   7.202  0.0168 -0.2430  0.1615
  747POPS   C4B11456  17.669  13.994   7.518 -0.0945  0.1648  0.2925
  748POPS   CNO11457   5.940  11.706   4.811  0.1404  0.0593  0.2836
  748POPS   PO411458   6.084  11.598   5.072  0.1380  0.0922 -0.2923
  748POPS   GL111459   6.167  11.432   5.345  0.0460  0.1767 -0.2049
  748POPS   GL211460   6.112  11.634   5.610  0.2419  0.1148  0.0634
  748POPS   C1A11461   6.183  11.095   5.694 -0.0558 -0.0729 -0.0501
  748POPS   D2A11462   6.239  10.965   6.016  0.0545  0.2059  0.0960
  748POPS   C3A11463   6.519  10.569   6.223  0.1166  0.1974  0.0771
  748POPS   C4A11464   7.025  10.318   6.247 -0.0696  0.1204 -0.0130
  748POPS   C1B11465   5.987  12.032   5.821 -0.2135  0.0805 -0.2010
  748POPS   C2B11466   5.979  11.912   6.194 -0.0324 -0.3570 -0.0601
  748POPS   C3B11467   5.600  11.706   6.392  0.0014 -0.0255 -0.0177
  748POPS   C4B11468   5.362  11.319   6.395  0.0044  0.3581 -0.1153
  749POPS   CNO11469   0.328  17.233   5.739 -0.0722 -0.2562 -0.2126
  749POPS   PO411470   0.770  17.205   5.496  0.2919 -0.3718 -0.0306
  749POPS   GL111471   0.900  17.373   5.842  0.1913  0.1458  0.0731
  749POPS   GL211472   1.207  17.509   5.815 -0.0821 -0.2203  0.0356
  749POPS   C1A11473   0.688  17.647   6.082 -0.2734  0.2431 -0.3873
  749POPS   D2A11474   0.806  18.035   6.230  0.0847  0.3002 -0.2897
  749POPS   C3A11475   0.455  18.053   6.510 -0.0978 -0.1249  0.2301
  749POPS   C4A11476   0.169  17.987   6.817 -0.0248  0.1811 -0.0592
  749POPS   C1B11477   1.184  17.421   6.354  0.0602  0.0830 -0.0679
  749POPS   C2B11478   1.145  17.202   6.657 -0.0753  0.1199  0.0552
  749POPS   C3B11479   1.299  17.357   7.066 -0.2562  0.3798 -0.0498
  749POPS   C4B11480   1.322  17.561   7.433 -0.1267  0.1479 -0.3838
  750POPS   CNO11481   4.872  14.579   5.095 -0.0635  0.1574 -0.4046
  750POPS   PO411482   4.973  14.529   5.588  0.0061 -0.2887  0.1874
  750POPS   GL111483   4.843  14.531   5.896 -0.2161  0.0058 -0.2383
  750POPS   GL211484   4.958  14.177   6.052  0.1947  0.3566 -0.2912
  750POPS   C1A11485   4.925  14.691   6.306  0.0912 -0.2010  0.3248
  750POPS   D2A11486   4.806  14.727   6.810 -0.3579  0.1566  0.2954
  750POPS   C3A11487   4.503  15.143   6.914  0.1295  0.2137 -0.1030
  750POPS   C4A11488   4.129  15.151   6.784  0.1829 -0.4696  0.1032
  750POPS   C1B11489   5.321  14.378   6.244 -0.3979  0.1944  0.1453
  750POPS   C2B11490   5.350  14.676   6.603 -0.2844 -0.1318  0.0150
  750POPS   C3B11491   5.448  14.767   7.002  0.0935 -0.1941  0.0153
  750POPS   C4B11492   5.133  14.927   7.180 -0.0296  0.2873  0.0630
  751POPS   CNO11493  16.769   9.533   5.718  0.0988  0.1235  0.1502
  751POPS   PO411494  16.908   9.127   5.715  0.0829 -0.0300 -0.2089
  751POPS   GL111495  16.733   8.859   5.979  0.0831  0.1188  0.4679
  751POPS   GL211496  16.529   9.093   6.040 -0.2836  0.4334 -0.0331
  751POPS   C1A11497  16.896   8.751   6.252 -0.3011 -0.0953 -0.0149
  751POPS   D2A11498  17.175   8.420   6.420 -0.0892  0.0130  0.0258
  751POPS   C3A11499  17.491   8.238   6.151 -0.3567  0.0197  0.0952
  751POPS   C4A11500  17.821   8.059   6.162 -0.0942  0.1621  0.0731
  751POPS   C1B11501  16.636   9.148   6.509 -0.2657 -0.0803  0.4320
  751POPS   C2B11502  16.680   9.216   6.884 -0.2518 -0.2055 -0.0341
  751POPS   C3B11503  16.663   9.538   7.293 -0.0864 -0.1838  0.0733
  751POPS   C4B11504  16.552  10.018   7.535  0.2931 -0.1208 -0.0146
  752POPS   CNO11505  17.189   2.791   5.452  0.0478 -0.0421 -0.1996
  752POPS   PO411506  17.551   3.033   5.482 -0.0436  0.0001  0.1021
  752POPS   GL111507  17.660   2.843   5.790 -0.1641 -0.4073 -0.1992
  752POPS   GL211508  17.850   2.582   5.780 -0.1481 -0.0153 -0.2051
  752POPS   C1A11509  17.825   3.050   6.101 -0.1794  0.0237  0.0350
  752POPS   D2A11510  18.142   3.389   6.292 -0.0567  0.0085 -0.1267
  752POPS   C3A11511  18.331   3.275   6.696  0.2450 -0.1332 -0.0814
  752POPS   C4A11512  18.114   2.963   6.861  0.1036  0.0536  0.0101
  752POPS   C1B11513  18.081   2.655   6.106  0.1927 -0.2168  0.3779
  752POPS   C2B11514  18.074   2.264   6.387 -0.0668  0.3534  0.1035
  752POPS   C3B11515  18.019   2.019   6.751 -0.2407  0.1284 -0.4328
  752POPS   C4B11516  18.080   1.642   7.122 -0.0430 -0.1579  0.0396
  753POPS   CNO11517   0.976  16.362   5.704 -0.3540 -0.2456 -0.1333
  753POPS   PO411518   0.946  16.765   5.498  0.1215  0.1981 -0.0584
  753POPS   GL111519   0.933  16.816   5.920 -0.1542  0.1606  0.1907
  753POPS   GL211520   1.215  16.975   6.020 -0.0939  0.0390 -0.2756
  753POPS   C1A11521   0.792  17.065   6.270  0.2630 -0.3003 -0.0220
  753POPS   D2A11522   0.663  17.068   6.641  0.2555 -0.0122  0.0477
  753POPS   C3A11523   0.781  17.237   7.125 -0.2905  0.1636 -0.0978
  753POPS   C4A11524   0.869  17.586   7.384  0.1431 -0.3089 -0.0536
  753POPS   C1B11525   1.486  17.002   6.365  0.1214  0.0717  0.2089
  753POPS   C2B11526   1.660  17.244   6.740 -0.0517 -0.0763  0.2860
  753POPS   C3B11527   1.833  17.225   7.114  0.2786  0.1571 -0.2437
  753POPS   C4B11528   2.094  17.024   7.330 -0.2842  0.0090 -0.2921
  754POPS   CNO11529   6.615  18.860   5.194 -0.1186 -0.1627  0.2663
  754POPS   PO411530   6.941  19.024   4.989  0.3824  0.2529  0.0468
  754POPS   GL111531   6.883  19.265   5.405  0.4021 -0.6573 -0.0010
  754POPS   GL211532   7.046  18.906   5.510 -0.0242  0.0335 -0.1399
  754POPS   C1A11533   6.850  19.270   5.856 -0.1529  0.1001  0.1080
  754POPS   D2A11534   6.713  19.057   6.143 -0.0514 -0.3284 -0.1076
  754POPS   C3A11535   6.655  19.350   6.560 -0.1054 -0.1916  0.2546
  754POPS   C4A11536   6.833  19.373   6.958  0.1512 -0.2904 -0.0399
  754POPS   C1B11537   6.601  18.834   5.696  0.0226  0.1618  0.2877
  754POPS   C2B11538   6.283  18.909   5.891 -0.0283  0.0026  0.0111
  754POPS   C3B11539   5.994  19.270   5.868  0.0380 -0.0498  0.0807
  754POPS   C4B11540   5.886  19.610   6.168  0.0606  0.0652  0.1010
  755POPS   CNO11541  12.404  11.774   5.881  0.0895  0.4855 -0.0193
  755POPS   PO411542  12.218  11.361   5.662 -0.2438 -0.0681  0.4306
  755POPS   GL111543  12.016  11.314   6.051  0.4099  0.1418  0.0040
  755POPS   GL211544  12.152  11.048   6.082  0.2409 -0.1124  0.0444
  755POPS   C1A11545  11.720  11.342   6.256  0.2694 -0.0821  0.0682
  755POPS   D2A11546  11.420  11.161   6.367  0.3295  0.2844  0.3049
  755POPS   C3A11547  11.334  11.197   6.803 -0.2488 -0.0844  0.1535
  755POPS   C4A11548  11.229  11.013   7.185  0.1827 -0.1360  0.2200
  755POPS   C1B11549  12.076  11.130   6.504  0.0122  0.0878 -0.1825
  755POPS   C2B11550  11.747  11.487   6.676  0.2673 -0.0950  0.2458
  755POPS   C3B11551  11.321  11.642   6.595  0.1601  0.0023 -0.1165
  755POPS   C4B11552  10.950  11.812   6.570  0.0047 -0.1954 -0.1698
  756POPS   CNO11553   5.189   6.354   4.371  0.5645 -0.4217  0.1667
  756POPS   PO411554   4.954   6.081   4.568  0.0365 -0.0949 -0.1828
  756POPS   GL111555   5.044   6.315   4.851 -0.0301  0.0376  0.0104
  756POPS   GL211556   4.951   6.697   4.946  0.0889  0.1834  0.0831
  756POPS   C1A11557   5.194   6.221   5.254 -0.0557 -0.2918  0.0340
  756POPS   D2A11558   5.315   6.074   5.725  0.2659 -0.0505  0.2699
  756POPS   C3A11559   5.518   6.281   6.110 -0.3151 -0.1768 -0.1561
  756POPS   C4A11560   5.595   6.576   6.336 -0.1044  0.0166  0.3117
  756POPS   C1B11561   4.851   6.558   5.337 -0.0212  0.1254 -0.2308
  756POPS   C2B11562   4.807   6.243   5.532 -0.0786 -0.0600 -0.0365
  756POPS   C3B11563   4.836   6.216   6.005 -0.0883  0.1818 -0.0920
  756POPS   C4B11564   4.768   6.274   6.509  0.0517  0.0447 -0.3402
  757POPS   CNO11565  12.953   4.075   4.659  0.1361  0.1275  0.2669
  757POPS   PO411566  13.067   3.664   4.743 -0.0613 -0.2223 -0.1378
  757POPS   GL111567  13.127   3.486   5.110 -0.2139  0.0058 -0.0025
  757POPS   GL211568  13.428   3.722   5.095 -0.4570  0.0889 -0.1410
  757POPS   C1A11569  13.338   3.427   5.493  0.0322 -0.0209 -0.1119
  757POPS   D2A11570  13.425   3.517   5.891  0.3479  0.0228  0.0167
  757POPS   C3A11571  13.394   3.448   6.373  0.3567  0.2288  0.1418
  757POPS   C4A11572  13.220   3.609   6.700 -0.0121 -0.1384 -0.2072
  757POPS   C1B11573  13.553   4.004   5.451 -0.3848 -0.4221  0.1858
  757POPS   C2B11574  13.626   4.019   5.987 -0.2924  0.1214  0.2292
  757POPS   C3B11575  13.509   3.958   6.436  0.0697 -0.0729 -0.0038
  757POPS   C4B11576  13.353   4.147   6.758 -0.2333 -0.2439 -0.0574
  758POPS   CNO11577   1.815  12.042   5.474  0.1467  0.2395  0.0301
  758POPS   PO411578   2.302  11.934   5.457  0.0890 -0.0983  0.2115
  758POPS   GL111579   2.547  12.086   5.863 -0.2277 -0.0409  0.2172
  758POPS   GL211580   2.824  12.127   5.973  0.0755  0.0315  0.2260
  758POPS   C1A11581   2.417  12.329   6.185 -0.2333  0.1626  0.2915
  758POPS   D2A11582   2.490  12.481   6.559  0.2178  0.0458 -0.0347
  758POPS   C3A11583   2.341  12.972   6.683 -0.0136  0.1171  0.1012
  758POPS   C4A11584   2.689  13.308   6.840 -0.1862  0.3718  0.0702
  758POPS   C1B11585   2.711  12.063   6.444 -0.0549 -0.1978  0.0014
  758POPS   C2B11586   2.816  11.852   6.818 -0.1256 -0.0248  0.0735
  758POPS   C3B11587   3.127  11.850   7.070  0.0325  0.2096  0.4084
  758POPS   C4B11588   3.547  11.845   7.306 -0.0254  0.3470 -0.1119
  759POPS   CNO11589   3.732   4.773   4.063 -0.3158  0.1097 -0.0728
  759POPS   PO411590   3.924   4.790   4.455 -0.1309 -0.0373 -0.0191
  759POPS   GL111591   4.074   4.759   4.845 -0.0810 -0.2440 -0.0138
  759POPS   GL211592   4.267   5.146   4.937 -0.0701 -0.0596 -0.3923
  759POPS   C1A11593   4.016   4.887   5.379 -0.1482 -0.1398  0.0985
  759POPS   D2A11594   3.959   5.042   5.712 -0.2669  0.0338  0.0738
  759POPS   C3A11595   3.626   4.906   5.888 -0.3485 -0.0633 -0.0040
  759POPS   C4A11596   3.198   4.739   6.000 -0.1033 -0.0317  0.3070
  759POPS   C1B11597   4.259   5.492   5.302  0.4243  0.0467  0.1222
  759POPS   C2B11598   4.351   5.883   5.434  0.0922 -0.2024 -0.1610
  759POPS   C3B11599   4.311   6.029   5.829 -0.1508  0.0751  0.0429
  759POPS   C4B11600   4.103   5.813   6.234  0.1265 -0.1996 -0.0015
  760POPS   CNO11601  10.307   0.018   5.446  0.1458 -0.1010  0.1260
  760POPS   PO411602  10.701   0.259   5.618  0.0551  0.0033 -0.1165
  760POPS   GL111603  10.758   0.228   5.954  0.1734  0.2218 -0.0815
  760POPS   GL211604  10.952   0.020   6.123  0.2820 -0.2925  0.1626
  760POPS   C1A11605  10.506   0.296   6.396  0.2870  0.3450 -0.0613
  760POPS   D2A11606  10.285   0.289   6.764  0.0762  0.1559 -0.0032
  760POPS   C3A11607  10.009   0.648   6.708 -0.3093  0.1061 -0.1670
  760POPS   C4A11608  10.055   1.121   6.644 -0.1481  0.1905 -0.0470
  760POPS   C1B11609  10.802  -0.214   6.427 -0.0803  0.3640 -0.0573
  760POPS   C2B11610  10.693  -0.236   6.876  0.1293  0.2439 -0.1557
  760POPS   C3B11611  10.544  -0.111   7.215  0.0642  0.2775  0.0838
  760POPS   C4B11612  10.678  -0.055   7.668 -0.1357 -0.1264  0.0447
  761POPS   CNO11613   2.500  12.853   5.165  0.1802 -0.1019  0.2057
  761POPS   PO411614   2.585  12.663   5.589  0.1222 -0.0535  0.1925
  761POPS   GL111615   2.364  12.731   5.846  0.1700  0.0974  0.0335
  761POPS   GL211616   2.429  12.959   5.992  0.4776  0.1908 -0.2617
  761POPS   C1A11617   2.088  12.728   6.305 -0.0263  0.2746  0.1464
  761POPS   D2A11618   1.823  13.032   6.601 -0.3699  0.2308 -0.0708
  761POPS   C3A11619   2.002  13.024   7.013 -0.0409 -0.0965 -0.2087
  761POPS   C4A11620   1.844  12.947   7.388 -0.0248  0.0764 -0.0810
  761POPS   C1B11621   2.726  13.013   6.302  0.0176  0.2692 -0.3687
  761POPS   C2B11622   3.066  13.032   6.599 -0.1290 -0.0632  0.0349
  761POPS   C3B11623   3.347  12.872   6.916  0.1838  0.1028 -0.0566
  761POPS   C4B11624   3.635  13.112   7.282 -0.1029 -0.2062 -0.3651
  762POPS   CNO11625  12.453  19.255   5.402 -0.1552  0.0316 -0.0578
  762POPS   PO411626  12.669  19.223   5.774 -0.1433  0.1371 -0.0689
  762POPS   GL111627  12.774  19.275   6.210 -0.2257 -0.4022 -0.1816
  762POPS   GL211628  12.410  19.337   6.214 -0.4674  0.0593  0.0111
  762POPS   C1A11629  12.828  19.011   6.553  0.0764 -0.2704  0.1897
  762POPS   D2A11630  13.208  18.890   6.784  0.0152  0.3142 -0.0963
  762POPS   C3A11631  13.528  18.727   6.929 -0.2637 -0.3973 -0.1304
  762POPS   C4A11632  13.776  18.531   6.936 -0.1215  0.0730  0.1330
  762POPS   C1B11633  12.292  18.971   6.514 -0.2342  0.2315 -0.5196
  762POPS   C2B11634  12.381  18.901   6.889  0.1533 -0.1615  0.0216
  762POPS   C3B11635  12.389  18.820   7.343 -0.4666 -0.0687  0.2289
  762POPS   C4B11636  12.048  18.884   7.622 -0.4055 -0.1571 -0.2762
  763POPS   CNO11637   4.598   2.836   4.417 -0.1715  0.0212  0.0183
  763POPS   PO411638   4.327   3.022   4.727  0.0254  0.1555  0.2038
  763POPS   GL111639   4.597   2.698   4.938 -0.2464  0.0835  0.1146
  763POPS   GL211640   4.366   2.499   5.115  0.0180  0.0715  0.1052
  763POPS   C1A11641   4.851   2.569   5.311  0.0392 -0.2940 -0.0940
  763POPS   D2A11642   4.744   2.482   5.774 -0.1500 -0.0722  0.0170
  763POPS   C3A11643   4.404   2.765   5.925 -0.1260  0.1431 -0.2839
  763POPS   C4A11644   4.299   3.203   5.962  0.1762 -0.1374 -0.4165
  763POPS   C1B11645   4.365   2.422   5.522  0.2542 -0.0021 -0.0088
  763POPS   C2B11646   4.358   2.259   5.963 -0.4328  0.0220 -0.0212
  763POPS   C3B11647   4.167   2.283   6.382  0.2240  0.1687 -0.0167
  763POPS   C4B11648   4.319   2.339   6.790  0.0836  0.0403 -0.1370
  764POPS   CNO11649  16.671   6.303   4.609  0.1010 -0.0867 -0.0650
  764POPS   PO411650  16.680   6.245   5.096 -0.2712  0.0332 -0.2381
  764POPS   GL111651  16.365   6.144   5.407  0.0676  0.1811  0.1624
  764POPS   GL211652  16.656   6.156   5.569 -0.2419 -0.1041  0.1655
  764POPS   C1A11653  16.205   6.255   5.800 -0.1552 -0.0442 -0.2198
  764POPS   D2A11654  16.428   6.050   6.099  0.0667  0.2630  0.1554
  764POPS   C3A11655  16.349   5.877   6.458  0.4230  0.2684 -0.0028
  764POPS   C4A11656  16.534   5.586   6.723 -0.2349 -0.0656 -0.1138
  764POPS   C1B11657  16.912   5.770   5.743  0.1557  0.2269 -0.0774
  764POPS   C2B11658  16.808   5.423   5.924  0.0951  0.1682 -0.1348
  764POPS   C3B11659  16.580   5.483   6.235 -0.1053  0.0964 -0.1990
  764POPS   C4B11660  16.147   5.428   6.394  0.2127  0.1051 -0.2206
  765POPS   CNO11661   3.863  13.765   5.256  0.3652  0.0410 -0.0026
  765POPS   PO411662   3.716  14.042   5.481 -0.0647  0.0035 -0.2338
  765POPS   GL111663   3.448  14.382   5.766 -0.3422 -0.1638 -0.0005
  765POPS   GL211664   3.189  14.218   5.891  0.1263  0.1031 -0.0150
  765POPS   C1A11665   3.496  14.518   6.193  0.2973  0.0369 -0.1562
  765POPS   D2A11666   3.387  14.697   6.537  0.4370  0.1452  0.0333
  765POPS   C3A11667   3.104  14.520   6.744 -0.0834  0.0095  0.0900
  765POPS   C4A11668   2.879  14.204   6.843  0.0002  0.0161  0.0467
  765POPS   C1B11669   2.980  14.401   6.253  0.1873 -0.2810 -0.1170
  765POPS   C2B11670   2.558  14.440   6.515  0.1134  0.2069 -0.1051
  765POPS   C3B11671   2.306  14.463   6.879  0.1881  0.2345  0.2807
  765POPS   C4B11672   2.241  14.603   7.323  0.1135  0.1055  0.0304
  766POPS   CNO11673   6.215   1.501   4.000  0.0257  0.0139 -0.0901
  766POPS   PO411674   6.093   1.806   4.341 -0.1568 -0.0717 -0.0495
  766POPS   GL111675   5.935   1.994   4.688  0.1296 -0.0696  0.1224
  766POPS   GL211676   5.706   2.202   4.891 -0.0593 -0.1247  0.0610
  766POPS   C1A11677   6.149   2.111   5.119  0.1219  0.1142 -0.1306
  766POPS   D2A11678   6.274   2.143   5.528  0.1803 -0.0904  0.0586
  766POPS   C3A11679   6.278   2.258   5.900 -0.2885  0.0371  0.0300
  766POPS   C4A11680   6.268   2.420   6.440 -0.1793 -0.2954  0.4002
  766POPS   C1B11681   5.694   2.251   5.357 -0.0400  0.2914 -0.2541
  766POPS   C2B11682   5.605   2.566   5.545  0.0063 -0.1778 -0.5345
  766POPS   C3B11683   5.229   2.717   5.703 -0.2858  0.1466  0.3729
  766POPS   C4B11684   5.073   2.718   6.067  0.3688  0.1205  0.0460
  767POPS   CNO11685  18.440   1.159   5.112 -0.0324 -0.1879 -0.1028
  767POPS   PO411686  18.325   1.568   5.184 -0.0161  0.0584 -0.1352
  767POPS   GL111687  18.393   1.767   5.585  0.0299  0.3325  0.1060
  767POPS   GL211688  18.203   2.023   5.567 -0.0558  0.1484  0.3982
  767POPS   C1A11689  18.512   1.657   5.931  0.2859  0.3054  0.0767
  767POPS   D2A11690  18.349   1.805   6.361  0.1191  0.2650 -0.2075
  767POPS   C3A11691  18.473   1.943   6.828 -0.1187 -0.0620 -0.3009
  767POPS   C4A11692  18.620   2.371   6.937 -0.0641 -0.1491  0.2398
  767POPS   C1B11693  18.032   2.005   5.972  0.3940 -0.1149  0.2195
  767POPS   C2B11694  17.831   1.824   6.306  0.1817  0.4106 -0.0416
  767POPS   C3B11695  17.599   1.688   6.718  0.1996 -0.2279  0.2207
  767POPS   C4B11696  17.186   1.877   6.921 -0.0557 -0.2209  0.1502
  768POPS   CNO11697  10.667   6.461   5.020  0.0769 -0.1052 -0.0296
  768POPS   PO411698  10.484   6.850   4.956 -0.4344 -0.2035  0.2102
  768POPS   GL111699  10.156   6.719   5.261  0.0643 -0.3886  0.0732
  768POPS   GL211700   9.839   6.701   5.316 -0.0027  0.1684  0.1454
  768POPS   C1A11701  10.094   6.471   5.708 -0.0194  0.2879  0.0025
  768POPS   D2A11702  10.418   6.593   6.089 -0.0723  0.1405  0.0823
  768POPS   C3A11703  10.855   6.532   5.946  0.1643 -0.0198 -0.3056
  768POPS   C4A11704  11.080   6.155   5.876  0.4174  0.0521  0.1422
  768POPS   C1B11705   9.759   6.814   5.703  0.0038  0.0560 -0.1244
  768POPS   C2B11706  10.162   7.061   5.728  0.0675  0.2436  0.0105
  768POPS   C3B11707  10.610   7.037   5.947  0.1672  0.3440 -0.3857
  768POPS   C4B11708  10.681   6.992   6.405 -0.1820  0.1167  0.0913
  769POPS   CNO11709   7.643   6.823   4.916  0.0545 -0.0389  0.0796
  769POPS   PO411710   7.273   6.652   4.750  0.4810 -0.1902 -0.1670
  769POPS   GL111711   7.145   6.682   5.122  0.1317  0.1431  0.1470
  769POPS   GL211712   6.851   7.004   5.181 -0.1163  0.1601 -0.0513
  769POPS   C1A11713   6.952   6.548   5.500  0.0205 -0.2071  0.1981
  769POPS   D2A11714   6.900   6.618   5.931 -0.0717 -0.1974 -0.0453
  769POPS   C3A11715   6.658   6.658   6.298  0.2250  0.2855 -0.1665
  769POPS   C4A11716   6.484   6.697   6.674 -0.5616 -0.1155 -0.1639
  769POPS   C1B11717   7.047   7.033   5.524  0.1314 -0.3542  0.0252
  769POPS   C2B11718   6.946   7.172   5.937  0.0332  0.1761  0.2050
  769POPS   C3B11719   6.691   7.331   6.293  0.2507 -0.0831 -0.4668
  769POPS   C4B11720   6.558   7.702   6.552  0.0757 -0.2451  0.3437
  770POPS   CNO11721   7.144   1.537   4.280  0.0459 -0.1278  0.1769
  770POPS   PO411722   6.997   1.167   4.253  0.3346  0.1255 -0.2925
  770POPS   GL111723   6.998   1.053   4.670  0.1786 -0.0295  0.3667
  770POPS   GL211724   7.197   1.340   4.775 -0.1556  0.2495 -0.4683
  770POPS   C1A11725   7.054   0.890   5.031 -0.0835  0.0663  0.0218
  770POPS   D2A11726   6.859   1.012   5.478 -0.1054 -0.3021 -0.2147
  770POPS   C3A11727   6.763   0.824   5.863 -0.0791 -0.5050  0.1597
  770POPS   C4A11728   6.493   0.735   6.287 -0.0846 -0.1370  0.3585
  770POPS   C1B11729   7.031   1.427   5.211 -0.3592  0.1900  0.0172
  770POPS   C2B11730   7.226   1.414   5.512  0.2192  0.1277  0.1261
  770POPS   C3B11731   7.027   1.308   5.860 -0.1615 -0.2886  0.2938
  770POPS   C4B11732   6.593   1.309   6.066  0.1075  0.0778  0.1166
  771POPS   CNO11733  12.478  15.535   5.428 -0.1387 -0.2866 -0.3380
  771POPS   PO411734  12.807  15.471   5.696  0.0590 -0.2843 -0.4297
  771POPS   GL111735  12.908  15.555   6.090 -0.1282 -0.0851  0.1368
  771POPS   GL211736  13.193  15.420   6.156 -0.1694  0.6594  0.2279
  771POPS   C1A11737  13.108  15.822   6.371  0.0196 -0.0727 -0.2787
  771POPS   D2A11738  13.336  16.156   6.421  0.1629  0.0301  0.2083
  771POPS   C3A11739  13.746  16.065   6.451  0.1213  0.1591 -0.0363
  771POPS   C4A11740  13.921  15.986   6.101  0.0758  0.0393  0.2353
  771POPS   C1B11741  13.165  15.345   6.527  0.1259 -0.1257 -0.1458
  771POPS   C2B11742  13.350  15.013   6.823  0.2010  0.1679 -0.0607
  771POPS   C3B11743  13.370  15.074   7.241  0.1142  0.1682  0.0274
  771POPS   C4B11744  13.626  14.974   7.614  0.1984 -0.2545 -0.1061
  772POPS   CNO11745  11.487   3.807   4.453 -0.1254 -0.5138 -0.2441
  772POPS   PO411746  11.478   4.176   4.763  0.3076 -0.0246 -0.1406
  772POPS   GL111747  11.473   4.467   4.920  0.3481  0.1295  0.3138
  772POPS   GL211748  11.213   4.614   5.039 -0.0275 -0.1465  0.1661
  772POPS   C1A11749  11.711   4.789   5.011 -0.1041  0.1473 -0.3020
  772POPS   D2A11750  11.646   5.061   5.255 -0.4954 -0.1117  0.1985
  772POPS   C3A11751  11.772   4.910   5.590  0.1765  0.0400 -0.0499
  772POPS   C4A11752  12.160   4.853   5.810  0.0796  0.0355  0.0815
  772POPS   C1B11753  11.469   4.508   5.411 -0.2290 -0.0492  0.2388
  772POPS   C2B11754  11.701   4.427   5.775  0.0537  0.0056 -0.1743
  772POPS   C3B11755  12.116   4.369   5.924 -0.0129 -0.1553 -0.1311
  772POPS   C4B11756  12.411   4.102   5.950  0.0392  0.0949  0.2507
  773POPS   CNO11757  13.230   8.386   4.742  0.0346 -0.1949 -0.2478
  773POPS   PO411758  13.241   8.421   5.244  0.1874  0.0384 -0.0779
  773POPS   GL111759  13.211   8.201   5.728  0.3104 -0.3655 -0.0107
  773POPS   GL211760  13.390   8.478   5.806 -0.1312  0.0495  0.3404
  773POPS   C1A11761  13.245   7.945   5.995  0.2902  0.1353  0.0670
  773POPS   D2A11762  13.652   7.975   6.172 -0.0924  0.1456 -0.2149
  773POPS   C3A11763  13.960   8.229   6.141  0.0522 -0.3370  0.2652
  773POPS   C4A11764  14.027   8.529   6.470 -0.1459 -0.1172  0.2076
  773POPS   C1B11765  13.552   8.450   6.266  0.1150  0.1793 -0.0178
  773POPS   C2B11766  13.531   8.579   6.708  0.1230  0.0745 -0.0851
  773POPS   C3B11767  13.298   8.335   6.954  0.0249 -0.0736 -0.0526
  773POPS   C4B11768  13.025   8.053   7.226 -0.1496 -0.1392 -0.0088
  774POPS   CNO11769   7.235  10.685   4.911 -0.0093 -0.0236  0.2008
  774POPS   PO411770   6.969  10.897   5.135  0.0933 -0.0785 -0.4385
  774POPS   GL111771   7.026  11.078   5.531 -0.0068  0.2834 -0.4267
  774POPS   GL211772   7.265  11.131   5.686 -0.5321 -0.0362 -0.2537
  774POPS   C1A11773   6.693  11.328   5.868 -0.0519 -0.1134 -0.1377
  774POPS   D2A11774   6.562  11.211   6.215 -0.1003  0.1682 -0.4791
  774POPS   C3A11775   6.456  11.240   6.631 -0.0940 -0.0594 -0.3225
  774POPS   C4A11776   6.188  11.290   6.922 -0.2055  0.1780  0.0636
  774POPS   C1B11777   7.132  11.561   5.769  0.1486 -0.1625 -0.0292
  774POPS   C2B11778   7.213  12.006   5.929  0.1206  0.0413  0.1553
  774POPS   C3B11779   7.014  12.123   6.216 -0.0308 -0.1728  0.0721
  774POPS   C4B11780   6.825  12.089   6.633 -0.1533 -0.2965  0.2015
  775POPS   CNO11781  15.997  17.188   5.505 -0.1033 -0.2165  0.0841
  775POPS   PO411782  15.927  17.212   5.905  0.1214  0.0931  0.0773
  775POPS   GL111783  15.967  17.182   6.373  0.0062 -0.1462 -0.0549
  775POPS   GL211784  15.715  16.992   6.433  0.1015  0.0923 -0.0483
  775POPS   C1A11785  15.968  17.441   6.759 -0.0594  0.0699 -0.2791
  775POPS   D2A11786  15.966  17.665   7.160 -0.1380  0.1030 -0.2625
  775POPS   C3A11787  16.313  17.505   7.487 -0.1894  0.0057 -0.0999
  775POPS   C4A11788  16.785  17.683   7.613  0.1445 -0.0836 -0.2323
  775POPS   C1B11789  15.670  16.910   6.829  0.0076 -0.1060 -0.2904
  775POPS   C2B11790  15.542  17.147   7.262 -0.1127  0.1562  0.1556
  775POPS   C3B11791  15.318  17.399   7.603  0.0421  0.2333  0.0560
  775POPS   C4B11792  15.083  17.644   7.896  0.0606  0.0130 -0.5258
  776POPS   CNO11793  12.846  11.921   5.583  0.0170 -0.1227 -0.1352
  776POPS   PO411794  12.999  11.973   5.943 -0.0310 -0.1584 -0.0678
  776POPS   GL111795  13.036  11.805   6.397  0.1819  0.3605 -0.0559
  776POPS   GL211796  13.291  11.947   6.493  0.1550 -0.0013 -0.0956
  776POPS   C1A11797  12.823  11.881   6.779 -0.1968 -0.3297  0.2562
  776POPS   D2A11798  12.442  11.905   6.943  0.1898 -0.4394 -0.4872
  776POPS   C3A11799  12.196  11.695   7.282 -0.1260  0.0738 -0.1101
  776POPS   C4A11800  11.935  11.532   7.568 -0.3834  0.0274 -0.0670
  776POPS   C1B11801  13.611  11.659   6.525 -0.1092  0.2513 -0.2635
  776POPS   C2B11802  13.735  11.236   6.428 -0.0281 -0.3603  0.3099
  776POPS   C3B11803  13.976  10.837   6.523  0.1196  0.0168  0.2605
  776POPS   C4B11804  13.685  10.570   6.706  0.2420  0.2353 -0.0339
  777POPS   CNO11805  11.329  14.712   5.577  0.0682 -0.2915 -0.1509
  777POPS   PO411806  11.207  15.062   5.264 -0.2148  0.1009  0.2619
  777POPS   GL111807  11.432  15.154   5.753 -0.1647  0.2470  0.0690
  777POPS   GL211808  11.648  15.057   5.773 -0.0865  0.3836 -0.1510
  777POPS   C1A11809  11.412  15.548   6.088 -0.1871  0.1334 -0.2735
  777POPS   D2A11810  11.504  15.900   6.307  0.1241  0.0771 -0.1081
  777POPS   C3A11811  11.544  16.110   6.713 -0.3733 -0.2608 -0.0848
  777POPS   C4A11812  11.889  16.368   6.729 -0.3829 -0.3209  0.1324
  777POPS   C1B11813  11.257  14.896   6.091 -0.0329  0.0829 -0.2657
  777POPS   C2B11814  11.092  14.617   6.489  0.0437 -0.0077  0.1063
  777POPS   C3B11815  10.992  14.719   6.782 -0.0286 -0.1565  0.0171
  777POPS   C4B11816  11.021  14.597   7.156  0.0507 -0.0252  0.1923
  778POPS   CNO11817   4.118  16.941   5.044  0.0244  0.2179 -0.0933
  778POPS   PO411818   4.559  17.031   5.276 -0.1737 -0.1285 -0.2466
  778POPS   GL111819   4.732  17.365   5.671  0.0805 -0.2097 -0.1414
  778POPS   GL211820   4.532  17.589   5.666  0.0506 -0.3567 -0.0012
  778POPS   C1A11821   4.844  17.642   6.042  0.1585 -0.1755  0.0300
  778POPS   D2A11822   4.963  17.687   6.386 -0.1544  0.1953 -0.0323
  778POPS   C3A11823   4.738  17.394   6.674 -0.0909  0.0452  0.0694
  778POPS   C4A11824   4.563  17.384   7.046 -0.1922 -0.0565 -0.1360
  778POPS   C1B11825   4.315  17.745   6.064  0.1729  0.2841 -0.2370
  778POPS   C2B11826   4.443  17.859   6.429  0.2911 -0.0736 -0.1488
  778POPS   C3B11827   4.541  17.891   6.948  0.2141  0.1018 -0.1102
  778POPS   C4B11828   4.888  17.808   7.096 -0.1021  0.2217 -0.0705
  779POPS   CNO11829   1.289  18.582   4.803  0.0798  0.0359 -0.0407
  779POPS   PO411830   1.091  18.846   5.120  0.0180  0.2271 -0.0675
  779POPS   GL111831   1.138  18.830   5.580 -0.1029 -0.1560 -0.1990
  779POPS   GL211832   1.256  18.422   5.792  0.2123 -0.2018 -0.1183
  779POPS   C1A11833   1.103  18.962   5.951 -0.3113  0.0515 -0.0990
  779POPS   D2A11834   1.010  19.037   6.406 -0.0744  0.2255  0.2772
  779POPS   C3A11835   0.998  19.421   6.566 -0.0761  0.0517  0.0104
  779POPS   C4A11836   0.710  19.685   6.429  0.2389  0.2423 -0.1159
  779POPS   C1B11837   1.231  18.401   6.182  0.2830 -0.2002  0.1332
  779POPS   C2B11838   1.287  18.605   6.614 -0.2017 -0.1278 -0.0104
  779POPS   C3B11839   1.421  18.923   6.949  0.4810  0.3220 -0.0190
  779POPS   C4B11840   1.786  19.167   7.090  0.1008  0.0638 -0.0232
  780POPS   CNO11841   4.730  11.459   5.128 -0.0753  0.2108 -0.1600
  780POPS   PO411842   5.177  11.621   5.196  0.3981  0.0232 -0.2757
  780POPS   GL111843   5.052  11.609   5.579  0.1373 -0.0182 -0.0190
  780POPS   GL211844   5.309  11.437   5.636  0.5449  0.0894 -0.3167
  780POPS   C1A11845   5.063  11.652   6.099  0.1066 -0.2241  0.1120
  780POPS   D2A11846   5.088  11.677   6.633  0.1954 -0.1101 -0.1026
  780POPS   C3A11847   5.280  11.342   6.985 -0.0723  0.1085  0.0665
  780POPS   C4A11848   5.389  11.629   7.321 -0.3209 -0.2929 -0.1238
  780POPS   C1B11849   5.165  11.046   5.737  0.2885  0.1000  0.0118
  780POPS   C2B11850   5.090  10.721   6.091 -0.0983  0.0516 -0.0204
  780POPS   C3B11851   5.141  10.755   6.451 -0.1326 -0.0023  0.0746
  780POPS   C4B11852   5.352  10.485   6.791  0.0761  0.1334 -0.3144
  781POPS   CNO11853  10.159  13.666   5.056 -0.2828 -0.0398 -0.1059
  781POPS   PO411854  10.591  13.416   5.205 -0.1376  0.3871 -0.2051
  781POPS   GL111855  10.701  13.574   5.732 -0.1113  0.0805  0.0113
  781POPS   GL211856  10.964  13.563   5.864 -0.0260  0.1370  0.3394
  781POPS   C1A11857  10.339  13.557   6.023 -0.0220 -0.1127 -0.1308
  781POPS   D2A11858  10.087  13.676   6.361 -0.2337  0.0639 -0.1119
  781POPS   C3A11859   9.616  13.483   6.370 -0.1491 -0.2145  0.1483
  781POPS   C4A11860   9.520  13.024   6.263 -0.0683 -0.0566 -0.1790
  781POPS   C1B11861  10.759  13.736   6.202 -0.0191  0.0301  0.2200
  781POPS   C2B11862  10.575  13.503   6.515 -0.0953  0.3134  0.1743
  781POPS   C3B11863  10.117  13.332   6.689  0.0399  0.0474  0.0652
  781POPS   C4B11864   9.706  13.311   6.948  0.1433 -0.0726  0.2613
  782POPS   CNO11865  11.617  12.124   5.288  0.1852  0.3226 -0.2569
  782POPS   PO411866  11.428  12.146   5.581 -0.0918 -0.0651  0.1991
  782POPS   GL111867  11.291  11.943   5.975  0.0337  0.1070  0.0310
  782POPS   GL211868  11.566  11.778   6.135  0.0677  0.1283  0.0838
  782POPS   C1A11869  11.222  12.208   6.310  0.0418  0.0206 -0.2556
  782POPS   D2A11870  10.986  12.580   6.686  0.0058 -0.2442 -0.2274
  782POPS   C3A11871  10.885  12.540   7.078  0.1254  0.3669  0.1529
  782POPS   C4A11872  10.822  12.308   7.565 -0.1019  0.1702 -0.1542
  782POPS   C1B11873  12.035  11.814   6.289 -0.1012  0.0634  0.2177
  782POPS   C2B11874  12.283  11.608   6.604 -0.2273 -0.1242  0.3406
  782POPS   C3B11875  12.513  11.425   6.579 -0.1286 -0.0945 -0.0540
  782POPS   C4B11876  12.988  11.335   6.562 -0.1553  0.1224  0.2910
  783POPS   CNO11877   9.149   6.456   4.363 -0.4796  0.4108 -0.1149
  783POPS   PO411878   8.966   6.889   4.522  0.2457 -0.1112  0.1779
  783POPS   GL111879   9.077   7.101   4.979 -0.4651  0.1562  0.0120
  783POPS   GL211880   9.074   7.448   5.040  0.0736 -0.1015  0.1629
  783POPS   C1A11881   9.085   7.284   5.503  0.3400 -0.1520  0.1096
  783POPS   D2A11882   9.220   7.559   5.864 -0.1558  0.1200  0.0513
  783POPS   C3A11883   9.260   7.448   6.306  0.1501 -0.2998  0.1479
  783POPS   C4A11884   9.110   7.616   6.653  0.2202 -0.1043  0.0409
  783POPS   C1B11885   9.415   7.621   5.346  0.2509 -0.1270 -0.0094
  783POPS   C2B11886   9.562   7.850   5.567 -0.2601  0.1691 -0.0209
  783POPS   C3B11887   9.705   8.022   5.915 -0.0729  0.3805  0.2988
  783POPS   C4B11888  10.030   8.282   5.934 -0.1712 -0.1133 -0.2373
  784POPS   CNO11889  11.985   1.503   4.716 -0.1014  0.0997  0.1437
  784POPS   PO411890  11.974   2.008   4.959  0.0425  0.1026  0.0663
  784POPS   GL111891  11.853   2.031   5.324  0.0131  0.1152  0.0607
  784POPS   GL211892  11.961   2.312   5.488 -0.1968 -0.0802 -0.2241
  784POPS   C1A11893  11.608   2.053   5.833  0.0230  0.0110 -0.2966
  784POPS   D2A11894  11.601   1.858   6.174 -0.1700 -0.0152  0.2848
  784POPS   C3A11895  11.540   2.166   6.449  0.3108  0.3288 -0.2987
  784POPS   C4A11896  11.703   2.513   6.587 -0.0772 -0.1403  0.1888
  784POPS   C1B11897  11.954   2.365   5.909 -0.3359 -0.1532 -0.1665
  784POPS   C2B11898  11.494   2.491   6.109  0.1481 -0.1508  0.0493
  784POPS   C3B11899  11.112   2.484   5.970 -0.1116  0.0399 -0.1966
  784POPS   C4B11900  10.602   2.319   6.021 -0.3788  0.2620  0.0223
  785POPS   CNO11901  11.867   6.829   4.833  0.0727 -0.2903 -0.0909
  785POPS   PO411902  11.772   6.619   5.109 -0.0128 -0.1099  0.2740
  785POPS   GL111903  11.981   6.488   5.394  0.0996 -0.0815  0.2634
  785POPS   GL211904  11.760   6.798   5.626  0.0612 -0.3710  0.1678
  785POPS   C1A11905  12.294   6.748   5.726  0.1642  0.5805 -0.1390
  785POPS   D2A11906  12.601   6.758   6.104  0.3062 -0.3112 -0.0847
  785POPS   C3A11907  12.993   6.416   6.152 -0.0058 -0.0323  0.1451
  785POPS   C4A11908  13.231   6.090   6.263  0.0181  0.3468 -0.0419
  785POPS   C1B11909  11.839   6.835   6.001 -0.4028  0.0656  0.0422
  785POPS   C2B11910  12.131   6.596   6.317  0.3435 -0.1954  0.1980
  785POPS   C3B11911  12.387   6.437   6.494 -0.3382 -0.0295 -0.1441
  785POPS   C4B11912  12.817   6.329   6.641 -0.0997 -0.0421  0.0746
  786POPS   CNO11913   2.213  15.322   5.095  0.0280 -0.1569 -0.2561
  786POPS   PO411914   1.910  15.507   5.487  0.2206 -0.0261 -0.1947
  786POPS   GL111915   1.753  15.729   5.826  0.3189 -0.2440  0.3485
  786POPS   GL211916   1.737  15.539   6.042 -0.3145 -0.2390 -0.0953
  786POPS   C1A11917   1.583  15.991   6.106  0.3297  0.1408  0.1868
  786POPS   D2A11918   1.484  16.092   6.426 -0.2877  0.0474 -0.0728
  786POPS   C3A11919   1.601  16.481   6.568  0.2192  0.0013 -0.0872
  786POPS   C4A11920   1.578  16.754   6.781  0.1275 -0.1540 -0.0103
  786POPS   C1B11921   1.657  15.529   6.521 -0.2309  0.0182  0.0897
  786POPS   C2B11922   1.827  15.861   6.867 -0.3402  0.0060 -0.0101
  786POPS   C3B11923   1.665  15.851   7.325 -0.0871 -0.2940  0.1638
  786POPS   C4B11924   1.744  15.538   7.672 -0.0349  0.2327 -0.2150
  787POPS   CNO11925   4.419   6.987   4.375  0.1184 -0.2434  0.0751
  787POPS   PO411926   4.185   6.541   4.427 -0.1681  0.2691  0.1559
  787POPS   GL111927   4.232   6.578   4.838 -0.2042  0.0645  0.0340
  787POPS   GL211928   4.112   6.185   5.021  0.2842 -0.0843  0.0290
  787POPS   C1A11929   4.505   6.863   5.209  0.1592 -0.2096 -0.1100
  787POPS   D2A11930   4.226   7.136   5.442 -0.0422  0.0207 -0.1965
  787POPS   C3A11931   4.364   7.344   5.688 -0.0825  0.4567  0.2599
  787POPS   C4A11932   4.603   7.564   6.059  0.3326 -0.0195 -0.0154
  787POPS   C1B11933   4.289   6.414   5.289 -0.3611  0.4773 -0.0120
  787POPS   C2B11934   4.489   6.617   5.676  0.0640  0.1465 -0.1994
  787POPS   C3B11935   4.414   6.781   6.044  0.2142 -0.0792 -0.1231
  787POPS   C4B11936   4.363   7.168   6.266 -0.0080  0.0039 -0.1355
  788POPS   CNO11937  15.692  14.053   5.515 -0.3168 -0.2088  0.2846
  788POPS   PO411938  15.432  13.932   5.741  0.1249 -0.0685 -0.1905
  788POPS   GL111939  15.380  13.988   6.114 -0.1065 -0.1745  0.1248
  788POPS   GL211940  15.608  14.244   6.134 -0.2375 -0.2903  0.0465
  788POPS   C1A11941  15.474  13.957   6.653  0.1839 -0.2937 -0.2541
  788POPS   D2A11942  15.821  14.007   6.974 -0.3506  0.1027  0.3647
  788POPS   C3A11943  16.185  13.794   7.239  0.2971  0.3867  0.0437
  788POPS   C4A11944  16.585  13.739   7.195 -0.0394  0.3105 -0.1169
  788POPS   C1B11945  15.911  14.185   6.550 -0.2015 -0.1142 -0.0510
  788POPS   C2B11946  16.257  13.926   6.745  0.2508 -0.2704  0.1480
  788POPS   C3B11947  16.689  13.819   6.679 -0.0663  0.0355  0.1424
  788POPS   C4B11948  16.959  13.507   6.884 -0.6196 -0.3751  0.1653
  789POPS   CNO11949   3.117  15.582   6.024  0.1742  0.2003 -0.2195
  789POPS   PO411950   3.140  16.044   5.712  0.1452  0.0208 -0.0206
  789POPS   GL111951   2.986  16.169   6.090 -0.0222 -0.0247 -0.3424
  789POPS   GL211952   2.919  16.380   6.278 -0.0479 -0.5126  0.4346
  789POPS   C1A11953   2.952  15.951   6.476 -0.1046  0.1898  0.1046
  789POPS   D2A11954   2.977  15.630   6.824 -0.0238  0.0070 -0.1188
  789POPS   C3A11955   2.821  15.640   7.201 -0.1102 -0.0977 -0.0936
  789POPS   C4A11956   2.835  15.465   7.561  0.3184 -0.3472 -0.2894
  789POPS   C1B11957   2.880  16.749   6.563 -0.0852  0.0967 -0.0441
  789POPS   C2B11958   2.911  17.087   6.836 -0.0523  0.0581 -0.2147
  789POPS   C3B11959   2.667  17.277   7.215 -0.2426 -0.4169  0.0218
  789POPS   C4B11960   2.212  17.535   7.309 -0.0410 -0.2337  0.1287
  790POPS   CNO11961   4.112   8.012   4.427  0.3009 -0.1273 -0.0139
  790POPS   PO411962   4.066   7.724   4.651  0.0976 -0.2003  0.5606
  790POPS   GL111963   4.311   7.644   4.887  0.1243  0.1701 -0.0328
  790POPS   GL211964   4.037   7.497   5.103 -0.0440 -0.2158 -0.1415
  790POPS   C1A11965   4.512   7.554   5.271 -0.0034 -0.0960  0.3986
  790POPS   D2A11966   4.873   7.652   5.547 -0.1267 -0.3116  0.1642
  790POPS   C3A11967   4.986   7.940   5.953 -0.2208 -0.5241  0.0814
  790POPS   C4A11968   4.978   8.193   6.338  0.0068  0.2745 -0.1517
  790POPS   C1B11969   4.118   7.779   5.524 -0.0745  0.3577  0.3514
  790POPS   C2B11970   4.478   7.949   5.828 -0.2485  0.3269  0.0974
  790POPS   C3B11971   4.482   7.992   6.253 -0.1413  0.0709 -0.1071
  790POPS   C4B11972   4.519   8.063   6.662 -0.1135 -0.6901 -0.0522
  791POPS   CNO11973  16.127   3.258   5.338  0.0007 -0.1065 -0.0113
  791POPS   PO411974  15.835   3.615   5.458 -0.1605  0.0857 -0.0124
  791POPS   GL111975  15.934   3.323   5.801 -0.2321 -0.1075 -0.4071
  791POPS   GL211976  16.159   3.604   5.830  0.0692  0.1678 -0.2195
  791POPS   C1A11977  15.932   3.050   6.149 -0.1450 -0.3041  0.0580
  791POPS   D2A11978  16.067   3.031   6.512  0.0588  0.2135 -0.1743
  791POPS   C3A11979  16.005   3.318   6.779 -0.1253  0.2633 -0.0346
  791POPS   C4A11980  15.820   3.679   7.108 -0.1555  0.1500  0.1528
  791POPS   C1B11981  16.333   3.508   6.254 -0.0625 -0.2927 -0.2270
  791POPS   C2B11982  16.445   3.603   6.690 -0.0056  0.2075  0.1211
  791POPS   C3B11983  16.350   3.566   7.107  0.1339 -0.1461 -0.1438
  791POPS   C4B11984  16.188   3.666   7.534  0.4459 -0.0106 -0.1503
  792POPS   CNO11985  19.191   3.808   4.981 -0.0738  0.2019  0.0692
  792POPS   PO411986  18.945   3.797   5.168 -0.2978  0.0365 -0.1162
  792POPS   GL111987  19.087   3.746   5.497 -0.0722  0.0561 -0.2129
  792POPS   GL211988  19.327   3.497   5.394 -0.1510  0.1175  0.0816
  792POPS   C1A11989  19.073   3.618   5.895  0.1618  0.1098 -0.4800
  792POPS   D2A11990  19.096   3.629   6.240  0.5282 -0.2160  0.1579
  792POPS   C3A11991  18.988   3.665   6.634  0.2951 -0.1356  0.0519
  792POPS   C4A11992  18.730   3.558   6.930  0.0148  0.1539 -0.0086
  792POPS   C1B11993  19.297   3.227   5.752 -0.0143 -0.0639 -0.0929
  792POPS   C2B11994  18.991   3.168   6.063  0.1006  0.0111  0.1071
  792POPS   C3B11995  18.846   3.142   6.491  0.1306 -0.1712 -0.3531
  792POPS   C4B11996  18.646   2.950   6.887 -0.4358  0.0357 -0.2456
  793POPS   CNO11997   8.404  19.329   5.381  0.1001 -0.1610 -0.0056
  793POPS   PO411998   8.836  19.239   5.376  0.3227 -0.0178  0.1767
  793POPS   GL111999   8.774  19.299   5.767 -0.2491 -0.1215 -0.1459
  793POPS   GL212000   8.915  19.131   6.079  0.0196  0.2113  0.6435
  793POPS   C1A12001   8.379  19.522   5.863  0.0409 -0.4436 -0.0370
  793POPS   D2A12002   8.209  19.773   6.207 -0.2747 -0.1444 -0.1762
  793POPS   C3A12003   7.968  19.732   6.581 -0.0751 -0.1253 -0.0416
  793POPS   C4A12004   7.774  19.349   6.670 -0.0939 -0.1512  0.0601
  793POPS   C1B12005   8.858  19.590   6.142 -0.2906 -0.1003 -0.0388
  793POPS   C2B12006   9.116  19.846   6.512  0.0578  0.1722 -0.3395
  793POPS   C3B12007   9.498  19.981   6.415 -0.1232 -0.1427  0.2055
  793POPS   C4B12008   9.802  20.119   6.124  0.1515  0.0517  0.3089
  794POPS   CNO12009  18.331   3.591   5.215 -0.1370  0.0721  0.2636
  794POPS   PO412010  17.898   3.762   5.164  0.0063 -0.1655 -0.2151
  794POPS   GL112011  17.993   3.709   5.605 -0.0827  0.1437  0.0374
  794POPS   GL212012  17.891   3.427   5.769 -0.2381 -0.0856  0.1487
  794POPS   C1A12013  18.162   3.799   5.998  0.2128 -0.1357 -0.0799
  794POPS   D2A12014  17.992   3.886   6.338  0.4585  0.3980  0.2437
  794POPS   C3A12015  18.131   4.370   6.503  0.0338 -0.2835  0.1300
  794POPS   C4A12016  18.066   4.490   6.842 -0.2611 -0.2472 -0.3690
  794POPS   C1B12017  17.670   3.527   6.100 -0.1080 -0.1030 -0.0744
  794POPS   C2B12018  17.457   3.807   6.381 -0.1567 -0.1739 -0.1495
  794POPS   C3B12019  17.156   4.036   6.700  0.1731 -0.0023 -0.1113
  794POPS   C4B12020  16.862   4.293   6.580 -0.2851  0.1807 -0.2107
  795POPS   CNO12021   1.092   1.035   4.784 -0.0507 -0.0490 -0.1162
  795POPS   PO412022   0.696   0.984   4.986 -0.1771 -0.1355 -0.1386
  795POPS   GL112023   0.893   1.117   5.319  0.2660  0.0825  0.3136
  795POPS   GL212024   0.783   0.904   5.573 -0.0634  0.2911  0.1637
  795POPS   C1A12025   1.201   1.324   5.520  0.1159 -0.0314 -0.2867
  795POPS   D2A12026   1.420   1.572   5.657 -0.0223  0.2360 -0.0202
  795POPS   C3A12027   1.499   1.808   5.986  0.1274  0.2162 -0.1008
  795POPS   C4A12028   1.285   2.181   6.178  0.0296 -0.1519  0.1496
  795POPS   C1B12029   0.938   0.690   5.951 -0.0399  0.0178  0.0116
  795POPS   C2B12030   1.224   0.822   6.190 -0.2432 -0.0312  0.2080
  795POPS   C3B12031   1.159   1.107   6.451  0.0048 -0.2041 -0.0902
  795POPS   C4B12032   0.913   1.447   6.652 -0.0445  0.0453 -0.3001
  796POPS   CNO12033  13.828   4.521   4.670 -0.0182 -0.0370  0.0142
  796POPS   PO412034  13.953   4.876   4.942  0.1176 -0.2830 -0.0277
  796POPS   GL112035  14.060   4.897   5.298 -0.1296  0.1615 -0.1432
  796POPS   GL212036  14.132   4.651   5.601 -0.0538 -0.1740 -0.3795
  796POPS   C1A12037  14.090   5.096   5.730  0.0917 -0.1369 -0.0873
  796POPS   D2A12038  14.009   5.343   6.094  0.1376 -0.4088 -0.0639
  796POPS   C3A12039  13.797   5.728   6.195  0.0836  0.0636  0.0305
  796POPS   C4A12040  13.812   6.240   6.219 -0.0881  0.1563 -0.2227
  796POPS   C1B12041  13.731   4.463   5.760 -0.1691  0.0188  0.0314
  796POPS   C2B12042  13.764   4.485   6.170  0.0658 -0.0552 -0.3535
  796POPS   C3B12043  13.971   4.902   6.385  0.1556  0.0901  0.1050
  796POPS   C4B12044  13.980   4.976   6.865  0.1668 -0.0911  0.1880
  797POPS   CNO12045  18.135  13.236   5.759 -0.0423 -0.4203  0.1613
  797POPS   PO412046  17.883  13.187   5.427 -0.2583 -0.1572 -0.3438
  797POPS   GL112047  17.580  13.200   5.755  0.1379  0.0228  0.3573
  797POPS   GL212048  17.754  13.417   6.030  0.0546 -0.3710 -0.0816
  797POPS   C1A12049  17.461  12.960   6.078  0.2496 -0.0703  0.1266
  797POPS   D2A12050  17.010  12.814   6.310  0.1755 -0.1463  0.3822
  797POPS   C3A12051  16.939  12.551   6.524 -0.0935  0.2150 -0.0493
  797POPS   C4A12052  16.649  12.164   6.564  0.1022 -0.0863 -0.0045
  797POPS   C1B12053  17.600  13.253   6.448 -0.0517  0.0333  0.0033
  797POPS   C2B12054  17.312  13.101   6.711  0.1923  0.0589  0.0800
  797POPS   C3B12055  16.975  12.934   6.883  0.1033 -0.0094 -0.1910
  797POPS   C4B12056  16.769  13.143   6.571  0.1219  0.0358  0.0169
  798POPS   CNO12057   9.817  12.516   5.640  0.0680  0.1764  0.1590
  798POPS   PO412058  10.041  12.860   5.567 -0.0789  0.1069  0.0853
  798POPS   GL112059  10.105  12.820   5.919 -0.0466  0.1100 -0.2581
  798POPS   GL212060  10.055  13.163   6.098  0.2524  0.0317 -0.1472
  798POPS   C1A12061  10.020  12.744   6.366  0.0173 -0.0764  0.0242
  798POPS   D2A12062   9.998  12.767   6.678  0.0686 -0.1853 -0.3749
  798POPS   C3A12063  10.182  12.991   7.145 -0.0283 -0.0949  0.0318
  798POPS   C4A12064  10.559  13.119   7.415  0.2506  0.2449 -0.0629
  798POPS   C1B12065  10.378  13.081   6.339 -0.1413 -0.1020  0.1955
  798POPS   C2B12066  10.809  13.064   6.438 -0.3043 -0.2016  0.2840
  798POPS   C3B12067  11.204  13.052   6.724 -0.1380  0.0653 -0.1019
  798POPS   C4B12068  11.374  13.227   6.969 -0.0021  0.2051 -0.3983
  799POPS   CNO12069   1.195   0.707   4.400 -0.0120  0.0725  0.0438
  799POPS   PO412070   1.592   0.891   4.649 -0.1656  0.1363  0.0909
  799POPS   GL112071   1.609   0.862   5.109  0.1907 -0.3633 -0.1053
  799POPS   GL212072   1.384   0.888   5.206  0.0989 -0.0188  0.0679
  799POPS   C1A12073   1.783   1.187   5.456 -0.1397  0.0277 -0.0538
  799POPS   D2A12074   1.839   1.515   5.814 -0.6805  0.1794  0.2308
  799POPS   C3A12075   2.165   1.694   6.021 -0.2545  0.0966 -0.1061
  799POPS   C4A12076   2.345   2.007   6.341 -0.2659 -0.2078  0.2041
  799POPS   C1B12077   1.350   0.888   5.640  0.0376 -0.0248  0.1185
  799POPS   C2B12078   1.531   1.171   5.904 -0.1706 -0.0331 -0.1377
  799POPS   C3B12079   1.643   1.142   6.276 -0.0504 -0.1533  0.0873
  799POPS   C4B12080   2.026   1.073   6.607  0.4544 -0.1385 -0.0546
  800POPS   CNO12081   4.634  12.504   5.070  0.0432 -0.1551  0.1258
  800POPS   PO412082   4.428  12.262   5.528  0.1028 -0.1948 -0.2532
  800POPS   GL112083   4.639  11.950   5.851  0.0260  0.0584 -0.2240
  800POPS   GL212084   4.991  12.080   5.759 -0.0601 -0.1749  0.0076
  800POPS   C1A12085   4.586  11.768   6.173  0.2534 -0.0721 -0.0012
  800POPS   D2A12086   4.546  11.692   6.529  0.0405 -0.2042 -0.1146
  800POPS   C3A12087   4.674  11.477   6.933  0.1626 -0.1578  0.1532
  800POPS   C4A12088   4.884  11.198   7.213 -0.0255  0.2720  0.2593
  800POPS   C1B12089   4.873  12.325   6.080  0.2652 -0.0889 -0.0742
  800POPS   C2B12090   5.023  12.527   6.406  0.2469  0.0478 -0.2990
  800POPS   C3B12091   5.275  12.613   6.767  0.0579  0.2624  0.2844
  800POPS   C4B12092   5.428  12.897   7.202  0.1239 -0.3251 -0.1183
  801POPS   CNO12093  17.470  14.206   5.048 -0.1798 -0.1567  0.1466
  801POPS   PO412094  17.181  14.010   5.263  0.0504  0.0587  0.1782
  801POPS   GL112095  16.824  13.736   5.552 -0.0943  0.1037  0.3132
  801POPS   GL212096  16.496  13.851   5.490 -0.1136  0.3120  0.2351
  801POPS   C1A12097  16.550  13.521   5.922  0.0995  0.0782  0.1403
  801POPS   D2A12098  16.304  13.258   5.865  0.4384  0.2802 -0.1226
  801POPS   C3A12099  16.237  13.049   6.225  0.0886  0.1119 -0.1578
  801POPS   C4A12100  16.147  12.857   6.596 -0.2792  0.3655 -0.0238
  801POPS   C1B12101  16.629  14.063   5.870 -0.1925 -0.1184  0.0209
  801POPS   C2B12102  16.927  14.080   6.219 -0.2205 -0.0673 -0.0572
  801POPS   C3B12103  17.179  14.113   6.536  0.2578  0.0225 -0.1003
  801POPS   C4B12104  17.139  14.012   6.903  0.0478 -0.0438 -0.2195
  802POPS   CNO12105   7.649   3.774   4.588  0.0766 -0.1370 -0.1497
  802POPS   PO412106   7.831   3.365   4.370  0.0314 -0.0734  0.0841
  802POPS   GL112107   7.802   3.395   4.865  0.1498  0.1769  0.1425
  802POPS   GL212108   7.484   3.429   4.889  0.0331 -0.2505 -0.3747
  802POPS   C1A12109   7.685   3.625   5.295 -0.3680  0.0058 -0.1083
  802POPS   D2A12110   7.585   3.466   5.615 -0.2115 -0.0461 -0.0174
  802POPS   C3A12111   7.274   3.169   5.666 -0.0461 -0.1681  0.0654
  802POPS   C4A12112   7.075   3.062   6.079  0.1295  0.1100  0.1438
  802POPS   C1B12113   7.196   3.456   5.260 -0.1680  0.3311 -0.1278
  802POPS   C2B12114   7.045   3.680   5.635 -0.1469  0.1868 -0.0507
  802POPS   C3B12115   7.287   3.584   6.028  0.1707  0.0448 -0.1118
  802POPS   C4B12116   7.336   3.709   6.414  0.3505  0.1684  0.3374
  803POPS   CNO12117  10.125   6.216   4.135 -0.0441 -0.2873 -0.2271
  803POPS   PO412118  10.089   6.095   4.626  0.2194 -0.0766 -0.6014
  803POPS   GL112119   9.845   6.187   4.993  0.0094  0.0103 -0.2011
  803POPS   GL212120   9.426   6.217   5.103 -0.1081  0.0466  0.0926
  803POPS   C1A12121   9.811   6.162   5.392 -0.1154  0.2742  0.1863
  803POPS   D2A12122  10.058   5.971   5.691  0.3843 -0.4201 -0.0370
  803POPS   C3A12123  10.025   6.178   6.090 -0.4306  0.0966 -0.1300
  803POPS   C4A12124   9.653   6.507   6.197 -0.1468  0.0333  0.0573
  803POPS   C1B12125   9.287   6.197   5.484 -0.0502  0.0896  0.0646
  803POPS   C2B12126   9.085   6.447   5.805  0.0276  0.0312 -0.1529
  803POPS   C3B12127   9.160   6.420   6.276 -0.3131 -0.0966 -0.1330
  803POPS   C4B12128   8.913   6.385   6.683  0.2246  0.2128 -0.0414
  804POPS   CNO12129   0.074   3.499   4.827  0.0750  0.1334  0.1317
  804POPS   PO412130   0.164   3.084   5.064  0.5395 -0.0569  0.4169
  804POPS   GL112131   0.214   3.071   5.402  0.1064  0.0911  0.0323
  804POPS   GL212132   0.077   2.780   5.609 -0.3996 -0.4860  0.2006
  804POPS   C1A12133   0.402   3.109   5.869 -0.2729  0.2660 -0.1168
  804POPS   D2A12134   0.622   2.961   6.251  0.1973  0.0546 -0.0176
  804POPS   C3A12135   1.089   3.110   6.291  0.4251  0.2129  0.1276
  804POPS   C4A12136   1.485   3.211   6.041 -0.1864  0.1391  0.0126
  804POPS   C1B12137  -0.121   2.715   5.919  0.1129  0.1100 -0.1689
  804POPS   C2B12138   0.011   2.822   6.243  0.0481  0.2611 -0.0970
  804POPS   C3B12139  -0.147   3.134   6.612  0.0981  0.1916 -0.0518
  804POPS   C4B12140  -0.373   3.121   6.974  0.2563 -0.0315  0.1456
  805POPS   CNO12141  11.694  17.067   5.799 -0.3662  0.1472 -0.0365
  805POPS   PO412142  11.518  17.405   5.540  0.0598  0.1880 -0.3985
  805POPS   GL112143  11.310  17.672   5.754  0.2202  0.1130 -0.0138
  805POPS   GL212144  11.443  17.966   5.765  0.1908 -0.3860 -0.0234
  805POPS   C1A12145  11.060  17.705   6.106  0.0627 -0.1259 -0.0543
  805POPS   D2A12146  10.863  17.563   6.449 -0.1440 -0.0814  0.1149
  805POPS   C3A12147  10.930  17.540   6.929 -0.1319 -0.0707 -0.0915
  805POPS   C4A12148  10.735  17.641   7.347  0.0302 -0.3178  0.0945
  805POPS   C1B12149  11.677  17.693   6.138 -0.0655 -0.1727  0.1651
  805POPS   C2B12150  11.819  17.662   6.612 -0.0494 -0.3860  0.2778
  805POPS   C3B12151  12.034  17.584   7.057 -0.1499 -0.1829 -0.0175
  805POPS   C4B12152  12.052  17.208   7.296  0.0651  0.0261  0.1680
  806YOPS   CNO12153  15.514  11.994   5.157  0.2131  0.1002  0.0660
  806YOPS   PO412154  15.938  11.820   5.470 -0.1099  0.0486 -0.1199
  806YOPS   GL112155  16.037  11.616   5.858  0.1971  0.2944 -0.0644
  806YOPS   GL212156  16.023  11.877   6.093  0.2481  0.1871  0.1600
  806YOPS   C1A12157  15.865  11.321   6.146 -0.2255 -0.1198 -0.1335
  806YOPS   D2A12158  15.440  11.476   6.462 -0.3116 -0.0211 -0.3806
  806YOPS   C3A12159  15.305  11.760   6.770 -0.1352 -0.0630 -0.1799
  806YOPS   C4A12160  15.515  12.109   6.871  0.3782  0.1504 -0.0268
  806YOPS   C1B12161  15.854  12.224   6.129  0.3819  0.0128 -0.0679
  806YOPS   C2B12162  16.136  12.531   6.097 -0.0041 -0.2560 -0.0127
  806YOPS   D3B12163  16.460  12.598   6.283 -0.0276  0.3555 -0.0107
  806YOPS   C4B12164  16.741  12.521   5.950  0.1280 -0.1165 -0.2612
  807YOPS   CNO12165  18.877   9.339   4.618 -0.3019  0.0180  0.2540
  807YOPS   PO412166  18.917   9.590   4.995  0.0131  0.2799 -0.1784
  807YOPS   GL112167  18.927   9.286   5.327 -0.0428  0.0171 -0.0138
  807YOPS   GL212168  19.234   9.300   5.392  0.2699 -0.0948 -0.0552
  807YOPS   C1A12169  18.571   9.174   5.652 -0.2371 -0.3192  0.1720
  807YOPS   D2A12170  18.479   8.756   5.684 -0.1128 -0.3199 -0.0143
  807YOPS   C3A12171  18.778   8.304   5.751  0.1424  0.0832 -0.0414
  807YOPS   C4A12172  19.165   8.364   5.773 -0.0870 -0.1771  0.0717
  807YOPS   C1B12173  18.938   9.510   5.743  0.1012 -0.1990 -0.0001
  807YOPS   C2B12174  19.086   9.637   6.157  0.1862  0.0327  0.1203
  807YOPS   D3B12175  19.464   9.665   6.326  0.4139  0.2820  0.0219
  807YOPS   C4B12176  19.432   9.525   6.728  0.0443  0.2629  0.0503
  808YOPS   CNO12177   1.656  17.957   4.446 -0.2359 -0.0345 -0.1190
  808YOPS   PO412178   1.598  18.157   4.835  0.1267  0.1011 -0.0839
  808YOPS   GL112179   1.619  18.085   5.277 -0.0129  0.1846 -0.2941
  808YOPS   GL212180   1.866  18.307   5.510 -0.3809 -0.1402 -0.1674
  808YOPS   C1A12181   1.402  17.987   5.678 -0.1251  0.1445 -0.0991
  808YOPS   D2A12182   1.306  17.900   6.134  0.0785  0.1139 -0.2183
  808YOPS   C3A12183   1.034  18.075   6.658 -0.1518  0.0565 -0.1953
  808YOPS   C4A12184   1.077  17.810   7.020  0.0795  0.0880 -0.1622
  808YOPS   C1B12185   1.730  18.228   5.994 -0.0096  0.1774 -0.0146
  808YOPS   C2B12186   1.649  18.183   6.440  0.0704 -0.3249  0.1024
  808YOPS   D3B12187   1.492  18.210   6.789  0.2233 -0.2223 -0.0087
  808YOPS   C4B12188   1.530  18.484   7.121 -0.1582 -0.1216  0.1203
  809YOPS   CNO12189  10.600  11.247   4.977 -0.1490 -0.2701  0.3853
  809YOPS   PO412190  10.634  11.526   5.203 -0.0429  0.0507  0.2093
  809YOPS   GL112191  10.949  11.722   5.623  0.3184  0.0297 -0.1418
  809YOPS   GL212192  10.768  11.932   5.896 -0.1422  0.3462  0.0371
  809YOPS   C1A12193  10.966  11.562   6.112 -0.0261 -0.0446 -0.2940
  809YOPS   D2A12194  10.931  11.318   6.421 -0.1130  0.0308 -0.1273
  809YOPS   C3A12195  10.696  11.332   6.799  0.1449  0.1268 -0.0951
  809YOPS   C4A12196  10.369  11.377   7.196 -0.0586  0.1544 -0.1002
  809YOPS   C1B12197  10.718  12.215   6.223  0.0561 -0.0853 -0.0427
  809YOPS   C2B12198  10.659  12.177   6.693 -0.2151  0.2249 -0.1151
  809YOPS   D3B12199  10.650  11.785   6.999  0.0204  0.0933  0.1216
  809YOPS   C4B12200  10.816  11.577   7.368 -0.0524 -0.0725  0.0408
  810YOPS   CNO12201   6.105  15.917   5.357  0.0831 -0.0751  0.0157
  810YOPS   PO412202   6.542  15.920   5.349  0.0399 -0.0290  0.1023
  810YOPS   GL112203   6.333  15.993   5.820 -0.0878  0.1779 -0.0939
  810YOPS   GL212204   6.028  16.125   5.941 -0.0246  0.1102 -0.1520
  810YOPS   C1A12205   6.428  16.199   6.187 -0.1792  0.3552  0.0940
  810YOPS   D2A12206   6.252  16.218   6.628 -0.4898 -0.0449 -0.0881
  810YOPS   C3A12207   6.050  16.442   6.922  0.0298  0.0038  0.3090
  810YOPS   C4A12208   5.703  16.512   7.174  0.0931  0.0070  0.1684
  810YOPS   C1B12209   5.930  16.491   6.320 -0.0477  0.0931 -0.1118
  810YOPS   C2B12210   6.225  16.740   6.596  0.0587 -0.0101 -0.2561
  810YOPS   D3B12211   6.475  16.774   6.970  0.0806  0.0117 -0.1867
  810YOPS   C4B12212   6.325  16.545   7.409 -0.1372 -0.1078 -0.2438
  811YOPS   CNO12213   7.479  16.167   5.103  0.2806  0.0583  0.2099
  811YOPS   PO412214   7.809  16.152   5.411 -0.0973 -0.0715 -0.1498
  811YOPS   GL112215   7.981  15.922   5.786  0.2511  0.4327 -0.2057
  811YOPS   GL212216   7.653  16.000   5.953  0.3102  0.1527 -0.2379
  811YOPS   C1A12217   8.276  15.642   5.998  0.0981 -0.3369  0.1989
  811YOPS   D2A12218   8.351  15.496   6.385 -0.2435  0.1914 -0.2686
  811YOPS   C3A12219   8.330  15.541   6.842 -0.0539 -0.3671 -0.1793
  811YOPS   C4A12220   8.458  15.737   7.250 -0.1822  0.0586  0.0698
  811YOPS   C1B12221   8.053  16.183   6.315 -0.1501 -0.1908  0.0500
  811YOPS   C2B12222   8.337  16.067   6.742  0.2654  0.0682  0.1783
  811YOPS   D3B12223   8.442  16.288   7.091  0.0677 -0.3786  0.0318
  811YOPS   C4B12224   8.861  16.338   7.017  0.0373 -0.0213  0.2745
  812YOPS   CNO12225   3.753  16.463   5.059  0.2033  0.2832 -0.1555
  812YOPS   PO412226   3.926  16.238   5.405 -0.0938  0.0445  0.0069
  812YOPS   GL112227   4.018  16.469   5.794 -0.1496 -0.0733 -0.1515
  812YOPS   GL212228   3.748  16.749   5.993 -0.1612 -0.0769 -0.0372
  812YOPS   C1A12229   4.288  16.594   6.098  0.1022  0.0458  0.3344
  812YOPS   D2A12230   4.472  16.492   6.464 -0.1078 -0.2362 -0.3695
  812YOPS   C3A12231   4.829  16.556   6.685  0.1327 -0.0122 -0.1204
  812YOPS   C4A12232   5.131  16.804   6.484 -0.5059  0.1402  0.2639
  812YOPS   C1B12233   3.782  16.618   6.371 -0.2495  0.1570 -0.0849
  812YOPS   C2B12234   3.917  16.443   6.842  0.2512  0.5405 -0.0408
  812YOPS   D3B12235   4.062  16.436   7.227 -0.0414 -0.1754 -0.1883
  812YOPS   C4B12236   4.352  16.108   7.396  0.1543 -0.1842 -0.2248
  813YOPS   CNO12237   0.874   8.564   5.501  0.0153 -0.2530  0.2001
  813YOPS   PO412238   1.223   8.305   5.488 -0.1496  0.0776  0.0373
  813YOPS   GL112239   0.949   8.167   5.841 -0.2052 -0.1225  0.2405
  813YOPS   GL212240   1.231   8.057   5.936 -0.1679  0.0085 -0.2379
  813YOPS   C1A12241   0.837   8.095   6.248  0.0755  0.0177 -0.0671
  813YOPS   D2A12242   0.911   7.765   6.471 -0.3239  0.2034 -0.0585
  813YOPS   C3A12243   1.172   7.439   6.620  0.4316 -0.1897 -0.2268
  813YOPS   C4A12244   1.477   7.062   6.524 -0.2635 -0.0338  0.1772
  813YOPS   C1B12245   1.248   7.610   6.098 -0.0034 -0.0985 -0.2607
  813YOPS   C2B12246   1.153   7.203   6.168  0.1129  0.0166  0.1580
  813YOPS   D3B12247   1.020   6.840   6.381 -0.2245 -0.0082  0.2250
  813YOPS   C4B12248   0.629   6.783   6.293  0.1038  0.3619 -0.0293
  814YOPS   CNO12249  10.349   7.732   4.611 -0.3915  0.1299  0.4425
  814YOPS   PO412250  10.442   7.381   4.908 -0.0991  0.3006  0.2870
  814YOPS   GL112251  10.451   7.668   5.328 -0.3217  0.1065 -0.1508
  814YOPS   GL212252  10.727   7.906   5.403 -0.2159  0.0528  0.1100
  814YOPS   C1A12253  10.614   7.643   5.826  0.0245 -0.3783  0.0349
  814YOPS   D2A12254  10.283   7.737   6.153  0.0818  0.2349  0.1616
  814YOPS   C3A12255  10.221   7.782   6.567  0.1378 -0.1103  0.1369
  814YOPS   C4A12256   9.924   7.961   6.883  0.0684 -0.0498 -0.0958
  814YOPS   C1B12257  11.034   7.949   5.856  0.0925  0.0863  0.1989
  814YOPS   C2B12258  11.138   8.195   6.147 -0.2281 -0.0434 -0.1373
  814YOPS   D3B12259  11.493   8.143   6.349 -0.1866  0.0116  0.0822
  814YOPS   C4B12260  11.881   7.983   6.234  0.0765 -0.0832 -0.2850
  815YOPS   CNO12261  11.032  18.738   5.807 -0.3457  0.0836  0.0133
  815YOPS   PO412262  11.392  18.529   5.505 -0.0474  0.0801 -0.0078
  815YOPS   GL112263  11.398  18.441   5.934 -0.1769 -0.3892 -0.3116
  815YOPS   GL212264  11.341  18.657   6.194 -0.2376 -0.2471 -0.0058
  815YOPS   C1A12265  11.419  18.116   6.342 -0.1296 -0.0386  0.1707
  815YOPS   D2A12266  11.311  17.911   6.739  0.1662  0.0346  0.1671
  815YOPS   C3A12267  11.525  17.734   7.039 -0.2567 -0.0227 -0.2549
  815YOPS   C4A12268  11.392  17.384   7.129  0.0898  0.2446  0.1074
  815YOPS   C1B12269  11.668  18.577   6.343 -0.2468  0.1095 -0.2601
  815YOPS   C2B12270  12.049  18.555   6.627  0.2763 -0.2660  0.1021
  815YOPS   D3B12271  12.291  18.138   6.515 -0.0200 -0.0906  0.0088
  815YOPS   C4B12272  12.455  17.872   6.861  0.2447 -0.1108 -0.1351
  816YOPS   CNO12273   4.576  13.369   5.156 -0.0371  0.1261  0.0960
  816YOPS   PO412274   4.922  13.464   5.407 -0.0646  0.2758  0.1169
  816YOPS   GL112275   4.886  13.573   5.851  0.0010  0.1405 -0.0750
  816YOPS   GL212276   5.111  13.737   5.991 -0.2168 -0.0430  0.1458
  816YOPS   C1A12277   4.948  13.310   6.266  0.0983 -0.0198 -0.0558
  816YOPS   D2A12278   5.028  13.038   6.583  0.2503 -0.1025  0.2627
  816YOPS   C3A12279   5.051  13.196   6.901 -0.0161  0.1500  0.2032
  816YOPS   C4A12280   4.946  12.997   7.300 -0.2921 -0.1589 -0.0179
  816YOPS   C1B12281   5.347  13.648   6.330 -0.0639 -0.0245 -0.2937
  816YOPS   C2B12282   5.266  13.561   6.704  0.1297  0.2239  0.0635
  816YOPS   D3B12283   5.540  13.449   7.064  0.0993 -0.0207 -0.1569
  816YOPS   C4B12284   5.335  13.368   7.422 -0.2842  0.0483  0.1398
  817YOPS   CNO12285  14.151  15.370   5.429  0.2404  0.1429 -0.2473
  817YOPS   PO412286  14.214  15.736   5.543 -0.0317 -0.0777  0.3908
  817YOPS   GL112287  14.130  15.556   5.919 -0.2120  0.2659 -0.1412
  817YOPS   GL212288  13.931  15.234   5.988 -0.3559  0.1650  0.1793
  817YOPS   C1A12289  14.120  15.645   6.372 -0.4377 -0.5704  0.1222
  817YOPS   D2A12290  14.033  15.676   6.702  0.0692  0.2047 -0.1515
  817YOPS   C3A12291  14.064  15.977   7.004 -0.1257  0.0868  0.0397
  817YOPS   C4A12292  13.587  15.897   7.229 -0.5127 -0.0566 -0.1483
  817YOPS   C1B12293  13.647  15.568   6.235 -0.1622  0.1162 -0.1518
  817YOPS   C2B12294  13.528  15.725   6.729 -0.0608 -0.0732  0.0915
  817YOPS   D3B12295  13.307  15.976   6.845 -0.3113 -0.3662 -0.0173
  817YOPS   C4B12296  13.508  16.418   6.890 -0.0907  0.2378 -0.0177
  818YOPS   CNO12297   7.941   5.678   4.339  0.1824 -0.2735  0.1240
  818YOPS   PO412298   8.314   5.642   4.361 -0.0103 -0.1254 -0.1934
  818YOPS   GL112299   8.239   5.767   4.821 -0.0490 -0.1537  0.2927
  818YOPS   GL212300   7.934   5.897   4.876  0.0161  0.1150  0.1399
  818YOPS   C1A12301   8.361   5.800   5.263 -0.1138  0.2617 -0.3066
  818YOPS   D2A12302   8.258   6.068   5.639  0.2757 -0.4068  0.0123
  818YOPS   C3A12303   8.011   6.214   6.044  0.0743  0.2797 -0.0951
  818YOPS   C4A12304   8.163   6.086   6.482  0.0989 -0.0678  0.0373
  818YOPS   C1B12305   7.819   6.010   5.236  0.1612  0.4164  0.0992
  818YOPS   C2B12306   7.676   6.117   5.716 -0.3026  0.1746 -0.1354
  818YOPS   D3B12307   7.430   6.321   5.878 -0.1048  0.0207 -0.4057
  818YOPS   C4B12308   7.448   6.747   5.741 -0.2787  0.4564 -0.3364
  819YOPS   CNO12309  14.392   6.121   4.943 -0.0369  0.1744 -0.0142
  819YOPS   PO412310  14.751   6.133   5.002  0.4052 -0.4469  0.4359
  819YOPS   GL112311  14.597   6.274   5.393  0.2900  0.3085 -0.1780
  819YOPS   GL212312  14.204   6.120   5.420  0.1708 -0.2421 -0.1847
  819YOPS   C1A12313  14.465   6.554   5.706  0.0192 -0.2504  0.0606
  819YOPS   D2A12314  14.338   6.584   6.193  0.0748  0.0822  0.2389
  819YOPS   C3A12315  14.106   6.464   6.589  0.1961  0.2487  0.1082
  819YOPS   C4A12316  14.131   5.955   6.629  0.0918  0.3452 -0.0610
  819YOPS   C1B12317  14.139   5.998   5.950  0.0308  0.0897 -0.1525
  819YOPS   C2B12318  14.427   5.964   6.209  0.4331 -0.0097  0.1231
  819YOPS   D3B12319  14.605   5.978   6.527  0.1076 -0.0366 -0.0109
  819YOPS   C4B12320  14.605   6.399   6.754  0.0226 -0.2792  0.0122
  820YOPS   CNO12321   1.885   8.952   5.345 -0.1856 -0.1678 -0.2447
  820YOPS   PO412322   2.175   9.250   5.261  0.0242  0.2486  0.0355
  820YOPS   GL112323   2.231   9.306   5.683  0.0564  0.1458 -0.1470
  820YOPS   GL212324   1.944   9.499   5.744  0.1833 -0.0384 -0.2546
  820YOPS   C1A12325   2.098   9.153   6.116  0.1954 -0.0885  0.1984
  820YOPS   D2A12326   2.191   9.124   6.603  0.1062 -0.3152 -0.1057
  820YOPS   C3A12327   2.105   9.181   6.935 -0.1195 -0.4369 -0.1329
  820YOPS   C4A12328   2.001   8.832   7.307  0.0907 -0.0450 -0.0109
  820YOPS   C1B12329   1.622   9.478   5.945  0.0603  0.2646  0.0853
  820YOPS   C2B12330   1.376   9.765   6.185 -0.0724 -0.3721 -0.0036
  820YOPS   D3B12331   0.979   9.529   6.387  0.0624  0.0739 -0.1914
  820YOPS   C4B12332   0.608   9.710   6.609 -0.0830 -0.2693 -0.0320
  821YOPS   CNO12333   4.479   4.528   4.488 -0.1492  0.1285 -0.4652
  821YOPS   PO412334   4.803   4.730   4.138 -0.0879 -0.1019  0.1225
  821YOPS   GL112335   4.861   4.758   4.643 -0.3053 -0.1817 -0.1507
  821YOPS   GL212336   4.662   4.863   4.872 -0.0791  0.1523  0.2234
  821YOPS   C1A12337   5.082   4.580   5.085  0.2770  0.1179  0.3867
  821YOPS   D2A12338   5.009   4.805   5.544 -0.0542  0.0283  0.0376
  821YOPS   C3A12339   5.115   4.674   6.002 -0.1622  0.4161  0.1447
  821YOPS   C4A12340   5.302   4.888   6.230 -0.2117 -0.1426 -0.0474
  821YOPS   C1B12341   4.874   5.128   5.186  0.1624  0.0449  0.1491
  821YOPS   C2B12342   5.240   5.193   5.370 -0.1502  0.1419  0.1431
  821YOPS   D3B12343   5.294   5.118   5.771  0.0328 -0.0032 -0.0677
  821YOPS   C4B12344   4.861   5.186   5.909 -0.1436  0.1327  0.1008
  822YOPS   CNO12345  17.985  15.056   5.178  0.2726  0.0095  0.0107
  822YOPS   PO412346  17.927  15.284   5.562 -0.0030 -0.1459 -0.0728
  822YOPS   GL112347  17.792  15.580   5.940  0.0706 -0.0935  0.3945
  822YOPS   GL212348  17.543  15.915   5.881  0.0663  0.0760  0.1227
  822YOPS   C1A12349  17.426  15.601   6.227  0.4264 -0.2551  0.0432
  822YOPS   D2A12350  17.086  15.430   6.512  0.4520 -0.1249  0.0842
  822YOPS   C3A12351  16.644  15.499   6.482 -0.0852 -0.1026 -0.2364
  822YOPS   C4A12352  16.538  15.578   6.125 -0.1155 -0.1530 -0.1582
  822YOPS   C1B12353  17.422  16.172   6.266  0.0586 -0.2636  0.0273
  822YOPS   C2B12354  17.328  16.583   6.390 -0.0439 -0.0753 -0.1448
  822YOPS   D3B12355  17.488  16.849   6.562  0.0155 -0.1300  0.1787
  822YOPS   C4B12356  17.862  16.778   6.862 -0.0279 -0.2185 -0.0741
  823YOPS   CNO12357  12.733   7.675   4.766  0.2401 -0.1132  0.0993
  823YOPS   PO412358  12.580   7.788   5.272  0.1333 -0.3137  0.1824
  823YOPS   GL112359  12.379   7.602   5.668 -0.3783  0.0533  0.1087
  823YOPS   GL212360  12.557   7.271   5.656  0.1624 -0.0315 -0.1252
  823YOPS   C1A12361  12.124   7.637   5.945 -0.0986 -0.2442  0.0760
  823YOPS   D2A12362  11.897   7.376   6.121  0.0113 -0.0231  0.0327
  823YOPS   C3A12363  11.556   7.221   6.204 -0.1859 -0.0161 -0.0821
  823YOPS   C4A12364  11.607   6.887   6.469 -0.0475 -0.1481 -0.0223
  823YOPS   C1B12365  12.381   7.238   6.111 -0.1190 -0.0774 -0.1603
  823YOPS   C2B12366  12.093   7.055   6.460  0.1674  0.2563 -0.2271
  823YOPS   D3B12367  12.228   7.193   6.859  0.0725  0.3921 -0.0730
  823YOPS   C4B12368  11.787   7.462   7.007  0.0428 -0.4020 -0.0695
  824YOPS   CNO12369  18.466   4.538   5.437 -0.1690  0.1553  0.0271
  824YOPS   PO412370  18.887   4.650   5.246 -0.1162 -0.1881  0.2398
  824YOPS   GL112371  18.905   4.513   5.688 -0.0809 -0.0774  0.0213
  824YOPS   GL212372  19.133   4.680   5.707 -0.1113 -0.1520 -0.0751
  824YOPS   C1A12373  19.191   4.191   5.897  0.1098 -0.1164 -0.0883
  824YOPS   D2A12374  19.485   4.055   6.238 -0.0742  0.0852 -0.2157
  824YOPS   C3A12375  19.537   3.714   6.437 -0.0990 -0.1011 -0.3804
  824YOPS   C4A12376  19.708   3.721   6.785  0.1270  0.0075  0.2635
  824YOPS   C1B12377  18.956   4.620   6.147 -0.1209 -0.3084  0.0895
  824YOPS   C2B12378  19.227   4.514   6.477  0.0817 -0.1516  0.0171
  824YOPS   D3B12379  19.625   4.514   6.637  0.3887  0.0462  0.3162
  824YOPS   C4B12380  19.985   4.630   6.343  0.0544  0.3465 -0.1549
  825YOPS   CNO12381   1.842  10.928   5.501  0.1894  0.2626  0.0946
  825YOPS   PO412382   1.877  11.406   5.553  0.0903 -0.1127  0.1532
  825YOPS   GL112383   1.975  11.767   5.837 -0.0240 -0.0180 -0.0301
  825YOPS   GL212384   1.689  11.914   6.089  0.0026  0.1512 -0.0441
  825YOPS   C1A12385   2.264  11.848   6.275 -0.0717 -0.1642  0.2413
  825YOPS   D2A12386   2.320  11.982   6.765  0.0275 -0.1632 -0.0002
  825YOPS   C3A12387   2.367  11.740   7.121 -0.1051 -0.0831  0.1397
  825YOPS   C4A12388   2.570  11.331   7.222  0.2380 -0.1360 -0.3898
  825YOPS   C1B12389   1.557  11.744   6.495 -0.0124 -0.1807 -0.0580
  825YOPS   C2B12390   1.296  11.469   6.803 -0.1017 -0.0868  0.1255
  825YOPS   D3B12391   0.904  11.442   7.026  0.4046 -0.4050 -0.0261
  825YOPS   C4B12392   1.034  11.340   7.363  0.1682 -0.0434 -0.0521
  826YOPS   CNO12393   5.979  13.355   5.605  0.0380  0.1681 -0.0478
  826YOPS   PO412394   6.353  13.419   5.590  0.0924  0.0121  0.1206
  826YOPS   GL112395   6.595  13.579   5.921  0.1118  0.1418  0.1956
  826YOPS   GL212396   6.604  13.856   5.790  0.1680 -0.0854  0.5659
  826YOPS   C1A12397   6.521  13.539   6.296  0.0254 -0.1582 -0.0575
  826YOPS   D2A12398   6.374  13.259   6.580 -0.1462  0.1075 -0.0831
  826YOPS   C3A12399   6.111  12.779   6.667 -0.0893  0.3340  0.1710
  826YOPS   C4A12400   6.024  12.582   7.010  0.0726 -0.1664  0.0319
  826YOPS   C1B12401   6.709  14.031   6.174  0.1750  0.0312  0.0847
  826YOPS   C2B12402   6.787  14.227   6.661 -0.1070  0.3193 -0.1596
  826YOPS   D3B12403   6.904  14.476   6.920 -0.0665  0.0297 -0.1296
  826YOPS   C4B12404   7.383  14.659   6.931  0.3848  0.1883 -0.3983
  827YOPS   CNO12405  17.217  11.361   5.393  0.0639 -0.1222  0.0428
  827YOPS   PO412406  16.780  11.291   5.361 -0.2515  0.0290 -0.2713
  827YOPS   GL112407  16.775  11.626   5.617  0.2118  0.1593 -0.0753
  827YOPS   GL212408  16.502  11.726   5.659 -0.1713 -0.2893  0.3000
  827YOPS   C1A12409  16.921  11.635   5.981 -0.1299 -0.4168 -0.2492
  827YOPS   D2A12410  17.020  11.732   6.433  0.2705  0.0237 -0.0027
  827YOPS   C3A12411  17.134  12.099   6.607  0.3643  0.2588  0.0411
  827YOPS   C4A12412  16.912  12.181   7.031 -0.0746 -0.2704  0.0464
  827YOPS   C1B12413  16.518  11.981   6.057 -0.3425 -0.0864  0.3720
  827YOPS   C2B12414  17.011  12.162   6.117  0.0312  0.1630 -0.0843
  827YOPS   D3B12415  17.339  12.468   6.185  0.0793 -0.4322  0.1183
  827YOPS   C4B12416  17.443  12.670   6.512  0.2995 -0.0334 -0.1390
  828YOPS   CNO12417  10.538   1.524   5.337 -0.3290 -0.2499  0.1914
  828YOPS   PO412418  10.756   1.996   5.363 -0.0158 -0.3280 -0.1520
  828YOPS   GL112419  10.372   2.183   5.621 -0.0042 -0.0031  0.0406
  828YOPS   GL212420  10.120   2.330   5.511  0.0345  0.1664 -0.0763
  828YOPS   C1A12421  10.091   2.378   5.993  0.0761 -0.0280 -0.0097
  828YOPS   D2A12422   9.633   2.432   6.085  0.2398  0.0318  0.2492
  828YOPS   C3A12423   9.333   2.262   6.443 -0.3259 -0.1009  0.2081
  828YOPS   C4A12424   9.509   1.901   6.725 -0.3357 -0.0204 -0.1126
  828YOPS   C1B12425   9.828   2.516   5.579  0.0588 -0.0339  0.3427
  828YOPS   C2B12426   9.713   2.838   5.809  0.0992 -0.1195 -0.3371
  828YOPS   D3B12427   9.797   3.220   5.646 -0.1237 -0.1181  0.3198
  828YOPS   C4B12428   9.803   3.638   5.787  0.1691  0.1685  0.1432
  829YOPS   CNO12429   6.713   8.764   4.604  0.1775  0.0507  0.2174
  829YOPS   PO412430   7.027   8.494   4.622  0.2321  0.0056  0.0553
  829YOPS   GL112431   7.074   8.479   5.075  0.0479 -0.0013 -0.2247
  829YOPS   GL212432   6.828   8.559   5.195  0.1569 -0.2940 -0.0382
  829YOPS   C1A12433   7.282   8.228   5.340  0.0051  0.1546 -0.0674
  829YOPS   D2A12434   7.676   8.140   5.549 -0.3072 -0.0445 -0.3223
  829YOPS   C3A12435   7.954   8.399   5.478  0.0478 -0.1832  0.1493
  829YOPS   C4A12436   8.400   8.352   5.565 -0.0223  0.1104 -0.1367
  829YOPS   C1B12437   6.998   8.624   5.660  0.0074 -0.0493  0.0876
  829YOPS   C2B12438   6.891   8.771   6.096  0.0714  0.0709 -0.3159
  829YOPS   D3B12439   7.043   8.934   6.434  0.0890 -0.1898 -0.1451
  829YOPS   C4B12440   6.956   9.386   6.398  0.0595 -0.2553  0.2184
  830YOPS   CNO12441  15.230  10.455   5.457 -0.3624 -0.3961  0.2115
  830YOPS   PO412442  15.313  10.977   5.399  0.1067  0.3502 -0.0606
  830YOPS   GL112443  15.427  10.761   5.874 -0.2119  0.0297 -0.1458
  830YOPS   GL212444  15.686  10.477   5.922  0.0341  0.1295 -0.0021
  830YOPS   C1A12445  15.607  10.885   6.257 -0.2208 -0.1263  0.2270
  830YOPS   D2A12446  15.816  11.121   6.600 -0.1200 -0.1015 -0.3851
  830YOPS   C3A12447  16.001  10.836   7.073  0.1589 -0.1186  0.3168
  830YOPS   C4A12448  15.935  10.902   7.583  0.3005 -0.0386 -0.0751
  830YOPS   C1B12449  15.752  10.454   6.397 -0.0369  0.0070 -0.1748
  830YOPS   C2B12450  15.575  10.181   6.699 -0.0225  0.1053 -0.0368
  830YOPS   D3B12451  15.718  10.432   7.075 -0.2274  0.0957  0.1053
  830YOPS   C4B12452  15.525  10.862   7.270  0.0064 -0.1808  0.0356
  831YOPS   CNO12453   5.845   9.179   4.949  0.0887  0.0237  0.0181
  831YOPS   PO412454   5.720   9.546   5.078 -0.0730  0.1449  0.2740
  831YOPS   GL112455   5.580   9.750   5.487 -0.0561 -0.0409 -0.1123
  831YOPS   GL212456   5.380   9.961   5.386  0.1115  0.1977  0.0604
  831YOPS   C1A12457   5.622  10.004   5.825 -0.4410  0.3059  0.3378
  831YOPS   D2A12458   5.871   9.920   6.154 -0.1351 -0.4670  0.2662
  831YOPS   C3A12459   6.273  10.000   6.245  0.2851  0.0759  0.0818
  831YOPS   C4A12460   6.367  10.271   6.560 -0.0739  0.1723 -0.0801
  831YOPS   C1B12461   5.179   9.838   5.828 -0.2312  0.1345 -0.1078
  831YOPS   C2B12462   5.322   9.752   6.194 -0.1478  0.2007 -0.1565
  831YOPS   D3B12463   5.557   9.477   6.449 -0.2515  0.0989  0.0542
  831YOPS   C4B12464   5.784   9.733   6.693 -0.2291  0.0616 -0.2969
  832YOPS   CNO12465  18.907  13.849   5.381 -0.1556  0.3152  0.1560
  832YOPS   PO412466  18.911  14.087   5.751  0.2789  0.1674 -0.1412
  832YOPS   GL112467  18.532  14.222   6.020  0.0087  0.1706  0.1990
  832YOPS   GL212468  18.326  14.532   5.972  0.0425 -0.0994  0.1704
  832YOPS   C1A12469  18.341  14.274   6.419  0.0568 -0.0679 -0.0274
  832YOPS   D2A12470  18.389  14.154   6.815  0.1030  0.1836 -0.0603
  832YOPS   C3A12471  18.415  14.353   7.187 -0.2670  0.1613  0.2857
  832YOPS   C4A12472  18.047  14.427   7.393 -0.1133 -0.0830 -0.0409
  832YOPS   C1B12473  18.578  14.675   6.256 -0.1785  0.5064 -0.0023
  832YOPS   C2B12474  18.824  14.446   6.460 -0.1268 -0.1331 -0.1229
  832YOPS   D3B12475  19.171  14.402   6.721 -0.0492 -0.2739  0.0570
  832YOPS   C4B12476  19.629  14.338   6.761 -0.4539  0.1655 -0.0062
  833YOPS   CNO12477  17.572   6.768   4.848 -0.0503 -0.0425 -0.0382
  833YOPS   PO412478  17.303   6.868   5.050  0.0047  0.2582  0.0086
  833YOPS   GL112479  17.325   6.679   5.443  0.1344 -0.3005  0.2339
  833YOPS   GL212480  17.013   6.614   5.522 -0.0157 -0.0464  0.3599
  833YOPS   C1A12481  17.477   6.739   5.902  0.2031 -0.1057  0.3186
  833YOPS   D2A12482  17.558   7.085   6.179 -0.0686 -0.3409  0.0575
  833YOPS   C3A12483  17.658   7.438   6.587  0.3363  0.2445  0.0747
  833YOPS   C4A12484  18.009   7.390   6.899  0.0351  0.0705  0.5162
  833YOPS   C1B12485  17.201   6.340   5.789  0.0542 -0.2749 -0.0349
  833YOPS   C2B12486  17.245   6.008   5.965 -0.2649 -0.3806 -0.2737
  833YOPS   D3B12487  17.277   5.603   6.102 -0.1803  0.1276  0.1025
  833YOPS   C4B12488  17.469   5.302   6.573  0.0282 -0.0433  0.3094
  834YOPS   CNO12489  16.682  15.461   5.093  0.1272 -0.0768 -0.1062
  834YOPS   PO412490  16.749  15.588   5.472 -0.1746 -0.1112  0.0288
  834YOPS   GL112491  16.623  15.190   5.774  0.0227  0.1182 -0.0840
  834YOPS   GL212492  16.346  15.125   5.876 -0.1238  0.1027  0.2881
  834YOPS   C1A12493  16.838  15.061   6.213  0.1132 -0.1581  0.0460
  834YOPS   D2A12494  16.926  14.991   6.613  0.1449 -0.2198 -0.1325
  834YOPS   C3A12495  16.883  14.880   7.090 -0.0436  0.1323 -0.0445
  834YOPS   C4A12496  16.975  14.443   7.227  0.2719  0.3080 -0.1665
  834YOPS   C1B12497  16.318  15.105   6.295  0.0382  0.0627  0.0101
  834YOPS   C2B12498  16.436  15.044   6.692  0.1334  0.3499 -0.1112
  834YOPS   D3B12499  16.356  14.801   7.113 -0.1106  0.2343 -0.0124
  834YOPS   C4B12500  16.338  14.897   7.531  0.0557  0.2498  0.4101
  835POPE   NH312501  11.796   6.124   5.099  0.3090 -0.1949  0.0198
  835POPE   PO412502  12.120   5.944   4.991  0.0183 -0.2520  0.2458
  835POPE   GL112503  11.970   5.643   5.321  0.3131 -0.2116 -0.1097
  835POPE   GL212504  12.165   5.346   5.172 -0.0537 -0.1346  0.1589
  835POPE   C1A12505  11.676   5.405   5.578  0.2063 -0.2767 -0.0331
  835POPE   D2A12506  11.487   5.410   6.031 -0.0367  0.1171 -0.3146
  835POPE   C3A12507  11.211   5.806   6.168 -0.4619  0.4480  0.2431
  835POPE   C4A12508  10.807   5.715   6.474 -0.2285  0.1791  0.3135
  835POPE   C1B12509  12.366   5.340   5.530 -0.4604 -0.3360  0.0126
  835POPE   C2B12510  12.600   5.433   5.956  0.1876 -0.1405 -0.3458
  835POPE   C3B12511  12.632   5.414   6.297  0.4321 -0.1328  0.3191
  835POPE   C4B12512  12.765   5.437   6.815  0.0705  0.2689  0.2201
  836POPE   NH312513  15.889  19.446   5.910  0.4285 -0.1447 -0.1092
  836POPE   PO412514  15.568  19.752   5.803 -0.0089  0.1690 -0.0877
  836POPE   GL112515  15.619  19.912   6.192  0.0065  0.1774  0.2951
  836POPE   GL212516  15.336  19.962   6.291 -0.5864 -0.0480  0.1126
  836POPE   C1A12517  15.942  19.850   6.405  0.2563 -0.2814 -0.0166
  836POPE   D2A12518  16.248  20.114   6.476  0.1418  0.0698  0.1735
  836POPE   C3A12519  16.324  20.269   6.856  0.0608  0.0978 -0.1802
  836POPE   C4A12520  16.281  20.241   7.289  0.0550  0.0673  0.0971
  836POPE   C1B12521  15.435  20.195   6.574 -0.0493  0.1852  0.1062
  836POPE   C2B12522  15.239  20.413   6.838 -0.1497 -0.0029  0.0635
  836POPE   C3B12523  15.437  20.451   7.231  0.0647 -0.0514 -0.1517
  836POPE   C4B12524  15.926  20.523   7.310 -0.0101 -0.1441 -0.0856
  837POPE   NH312525  19.131  18.842   5.414 -0.0325  0.0787  0.0471
  837POPE   PO412526  18.953  19.104   5.072 -0.1843  0.0669  0.0211
  837POPE   GL112527  18.755  19.267   5.326 -0.2650 -0.0045  0.2531
  837POPE   GL212528  18.762  19.139   5.617  0.2752 -0.1821  0.0561
  837POPE   C1A12529  18.605  19.626   5.625  0.0779 -0.1115 -0.0529
  837POPE   D2A12530  18.493  20.026   5.853  0.2829  0.0167 -0.0118
  837POPE   C3A12531  18.423  20.011   6.199 -0.0231  0.2119  0.0849
  837POPE   C4A12532  18.431  20.108   6.585 -0.0006  0.0437 -0.3168
  837POPE   C1B12533  18.386  18.877   5.873  0.1343  0.4265 -0.0651
  837POPE   C2B12534  18.017  18.937   6.050 -0.0258 -0.0495  0.0448
  837POPE   C3B12535  17.717  19.117   6.343 -0.2076 -0.1214  0.0479
  837POPE   C4B12536  17.549  19.533   6.455 -0.1556  0.1642  0.0675
  838POPE   NH312537   0.201   2.556   5.132  0.1496 -0.1787  0.0788
  838POPE   PO412538   0.579   2.782   5.113 -0.1914  0.1143 -0.0400
  838POPE   GL112539   0.825   3.013   5.384  0.0187  0.0513 -0.0287
  838POPE   GL212540   1.085   2.738   5.313  0.0811 -0.3837 -0.0601
  838POPE   C1A12541   0.888   2.919   5.851  0.2789  0.0233  0.1439
  838POPE   D2A12542   0.954   2.622   6.211  0.3283  0.2108 -0.0266
  838POPE   C3A12543   1.306   2.738   6.544 -0.1661 -0.3331 -0.1359
  838POPE   C4A12544   1.170   2.713   6.889 -0.1173  0.3773  0.4284
  838POPE   C1B12545   1.365   2.765   5.680 -0.1399 -0.1014 -0.2391
  838POPE   C2B12546   1.374   2.738   6.042  0.0700  0.4199  0.1269
  838POPE   C3B12547   1.676   2.481   6.372  0.1234  0.0299 -0.2596
  838POPE   C4B12548   2.054   2.431   6.447  0.0323 -0.0804  0.2630
  839POPE   NH312549  14.347   0.953   5.636 -0.0342  0.0320 -0.2666
  839POPE   PO412550  14.367   1.338   5.688  0.0511  0.2233 -0.1301
  839POPE   GL112551  14.243   1.484   6.080  0.0509 -0.4644 -0.0638
  839POPE   GL212552  13.912   1.378   6.187 -0.0623  0.1279  0.1286
  839POPE   C1A12553  14.306   1.722   6.386  0.1181 -0.1669 -0.0729
  839POPE   D2A12554  14.302   1.660   6.672 -0.0267  0.0224 -0.0937
  839POPE   C3A12555  14.303   1.962   7.045  0.1425  0.0757  0.2315
  839POPE   C4A12556  13.994   2.115   7.362 -0.1707  0.0189  0.3580
  839POPE   C1B12557  13.864   1.479   6.663  0.2445  0.3463 -0.2133
  839POPE   C2B12558  13.845   1.670   7.062 -0.0627 -0.0034  0.4337
  839POPE   C3B12559  13.634   1.653   7.488  0.0105  0.3606  0.1126
  839POPE   C4B12560  13.752   1.372   7.755  0.2651  0.1654  0.0440
  840POPE   NH312561   6.698   5.127   4.266  0.2370 -0.2202 -0.3898
  840POPE   PO412562   6.565   5.541   4.293 -0.0611 -0.0461 -0.1774
  840POPE   GL112563   6.365   5.314   4.577  0.3836  0.1080  0.3793
  840POPE   GL212564   6.282   4.948   4.627  0.2266 -0.0886  0.1260
  840POPE   C1A12565   6.404   5.383   5.065  0.2783 -0.1650  0.1230
  840POPE   D2A12566   6.427   5.361   5.503  0.1614 -0.2655 -0.0337
  840POPE   C3A12567   6.638   4.951   5.575 -0.0756 -0.0660 -0.0808
  840POPE   C4A12568   6.744   4.591   5.753 -0.3064  0.0872  0.0929
  840POPE   C1B12569   6.316   4.867   4.976  0.0249 -0.0266 -0.1729
  840POPE   C2B12570   6.082   4.966   5.384 -0.1966 -0.2773 -0.4765
  840POPE   C3B12571   5.713   5.191   5.432  0.0055 -0.1078 -0.4174
  840POPE   C4B12572   5.517   5.602   5.543  0.1965 -0.0573  0.1685
  841POPE   NH312573  10.637  15.066   5.415  0.0790 -0.0784 -0.1091
  841POPE   PO412574  10.760  15.394   5.476 -0.0889  0.0100  0.3503
  841POPE   GL112575  10.535  15.550   5.966 -0.3398  0.1317 -0.1832
  841POPE   GL212576  10.522  15.778   5.980  0.5460  0.0238 -0.0908
  841POPE   C1A12577  10.505  15.337   6.325  0.6731  0.3015  0.0305
  841POPE   D2A12578  10.844  15.111   6.520 -0.0375  0.4718  0.0123
  841POPE   C3A12579  11.007  15.431   6.743  0.1990 -0.2116 -0.0425
  841POPE   C4A12580  10.705  15.625   7.076  0.3257  0.0844  0.2053
  841POPE   C1B12581  10.840  15.781   6.432  0.3628  0.1066  0.3262
  841POPE   C2B12582  11.031  15.936   6.715  0.2139  0.1827  0.1740
  841POPE   C3B12583  10.907  16.031   7.101 -0.1951  0.0536  0.0694
  841POPE   C4B12584  10.976  16.377   7.248 -0.0712  0.1841  0.0098
  842POPE   NH312585  13.018   8.874   5.274 -0.0069 -0.4152 -0.2241
  842POPE   PO412586  12.766   9.257   5.483 -0.2308 -0.0878  0.0336
  842POPE   GL112587  12.635   9.008   5.896  0.0734  0.1314  0.0232
  842POPE   GL212588  12.243   9.029   6.018 -0.1646  0.1002 -0.0838
  842POPE   C1A12589  12.606   8.818   6.270 -0.1151  0.0980  0.2931
  842POPE   D2A12590  12.510   8.855   6.745  0.0427  0.1026 -0.1612
  842POPE   C3A12591  12.083   8.963   6.785 -0.2052 -0.2089  0.2219
  842POPE   C4A12592  11.758   8.902   7.098 -0.1418 -0.0982 -0.0144
  842POPE   C1B12593  12.404   9.222   6.427 -0.0919  0.1691 -0.4959
  842POPE   C2B12594  12.133   9.490   6.742 -0.3321 -0.4271 -0.0894
  842POPE   C3B12595  11.944   9.377   7.075 -0.0315  0.1096  0.0986
  842POPE   C4B12596  11.685   9.440   7.310  0.0439  0.2576  0.2238
  843POPE   NH312597  14.189  11.977   5.564  0.1107  0.3808  0.1632
  843POPE   PO412598  14.190  12.463   5.522 -0.2432 -0.0662  0.1805
  843POPE   GL112599  14.283  12.339   5.949 -0.0410  0.0075 -0.1114
  843POPE   GL212600  14.211  12.560   6.027  0.1875  0.0131 -0.6379
  843POPE   C1A12601  14.378  12.130   6.346 -0.0420  0.2566 -0.0536
  843POPE   D2A12602  14.116  11.829   6.574 -0.0048 -0.0607 -0.0864
  843POPE   C3A12603  13.967  11.939   6.917 -0.2406 -0.1680 -0.0804
  843POPE   C4A12604  14.214  11.826   7.371  0.2093 -0.0563 -0.1522
  843POPE   C1B12605  14.389  12.737   6.341  0.0735 -0.3094  0.0247
  843POPE   C2B12606  14.797  12.856   6.644 -0.1516 -0.1380 -0.1284
  843POPE   C3B12607  14.926  13.326   6.814 -0.1719 -0.0429  0.3039
  843POPE   C4B12608  14.938  13.702   6.937  0.1662  0.1689 -0.0343
  844POPE   NH312609  13.604  18.061   5.677 -0.0294 -0.2690 -0.1106
  844POPE   PO412610  14.000  17.984   5.558  0.4044 -0.1544  0.4219
  844POPE   GL112611  14.012  17.912   5.997  0.2871 -0.2492  0.1796
  844POPE   GL212612  14.280  17.811   6.199 -0.2443 -0.2694 -0.2997
  844POPE   C1A12613  13.796  17.736   6.361 -0.0453 -0.1564  0.0217
  844POPE   D2A12614  13.584  17.411   6.647  0.1851 -0.1142  0.0898
  844POPE   C3A12615  13.550  17.537   7.063  0.1348  0.0473  0.2423
  844POPE   C4A12616  13.469  17.381   7.554  0.1111  0.0969  0.0663
  844POPE   C1B12617  14.375  17.667   6.560 -0.0858  0.0168  0.1612
  844POPE   C2B12618  14.455  17.925   6.854  0.1096  0.0656 -0.0574
  844POPE   C3B12619  14.781  18.266   7.034  0.2562  0.1034 -0.2892
  844POPE   C4B12620  15.048  18.072   7.245 -0.1693  0.1766 -0.0762
  845POPE   NH312621   3.468  18.559   4.866 -0.2153  0.0016 -0.0356
  845POPE   PO412622   3.133  18.369   4.841  0.1858  0.0738 -0.4327
  845POPE   GL112623   3.280  18.151   5.262 -0.0581  0.3908 -0.2090
  845POPE   GL212624   3.496  18.051   5.535  0.0144 -0.0689 -0.1251
  845POPE   C1A12625   3.021  18.116   5.643 -0.2681 -0.0866  0.0192
  845POPE   D2A12626   2.757  17.893   5.780 -0.3570  0.3453 -0.1260
  845POPE   C3A12627   2.678  17.885   6.224 -0.1015 -0.2990 -0.4106
  845POPE   C4A12628   2.947  18.053   6.613 -0.2054 -0.0098  0.1649
  845POPE   C1B12629   3.669  17.806   5.841  0.1400  0.0990  0.1690
  845POPE   C2B12630   3.856  17.590   6.158  0.2107  0.4104 -0.0706
  845POPE   C3B12631   4.160  17.445   6.617 -0.0960  0.1987 -0.0672
  845POPE   C4B12632   4.110  17.319   7.025  0.1671  0.0484  0.0379
  846POPE   NH312633  17.907   5.172   5.301  0.1203  0.0057 -0.0081
  846POPE   PO412634  17.495   5.008   5.343  0.0900 -0.1463  0.0520
  846POPE   GL112635  17.550   5.132   5.723  0.1765  0.0588  0.2265
  846POPE   GL212636  17.844   5.242   5.780 -0.2305  0.1519  0.0085
  846POPE   C1A12637  17.480   5.169   6.085  0.0026  0.0646  0.0563
  846POPE   D2A12638  17.345   4.800   6.345  0.3016 -0.0542 -0.3333
  846POPE   C3A12639  17.181   4.718   6.721 -0.1523 -0.1608 -0.1949
  846POPE   C4A12640  17.018   4.415   7.034 -0.0059 -0.0202 -0.1455
  846POPE   C1B12641  17.956   5.319   6.280  0.2005 -0.0693  0.1484
  846POPE   C2B12642  17.952   5.388   6.718  0.0458  0.2179  0.1438
  846POPE   C3B12643  17.789   5.249   7.083 -0.0170  0.2788 -0.1980
  846POPE   C4B12644  17.645   5.098   7.504 -0.2327 -0.1900  0.1143
  847POPE   NH312645   7.400  11.123   5.090  0.0734  0.3262 -0.0903
  847POPE   PO412646   7.671  11.363   5.040 -0.2355  0.0216 -0.1607
  847POPE   GL112647   7.868  11.167   5.436 -0.2902 -0.0182  0.0149
  847POPE   GL212648   8.127  10.832   5.539 -0.4748  0.0998  0.3431
  847POPE   C1A12649   7.721  11.030   5.875 -0.3181 -0.0305 -0.1752
  847POPE   D2A12650   7.525  10.930   6.227  0.1498 -0.2027  0.0868
  847POPE   C3A12651   7.420  10.942   6.659 -0.1619 -0.1280 -0.1747
  847POPE   C4A12652   7.464  11.271   6.984 -0.1481 -0.1246 -0.2048
  847POPE   C1B12653   7.821  10.620   5.545  0.3044 -0.0112 -0.0718
  847POPE   C2B12654   7.668  10.206   5.555 -0.1149 -0.0075  0.0069
  847POPE   C3B12655   7.425   9.863   5.615 -0.0517  0.1634 -0.0910
  847POPE   C4B12656   7.161   9.559   5.472  0.1051 -0.1200 -0.2088
  848POPE   NH312657  10.933   5.271   4.495 -0.0807 -0.0274 -0.3032
  848POPE   PO412658  11.177   4.980   4.654  0.0692  0.0529  0.0930
  848POPE   GL112659  11.171   5.115   5.113  0.0570  0.3583 -0.0634
  848POPE   GL212660  10.816   5.138   5.109 -0.1680 -0.0764 -0.0350
  848POPE   C1A12661  11.216   4.941   5.537 -0.1272  0.1095  0.0207
  848POPE   D2A12662  11.426   4.811   5.969  0.0464 -0.0615 -0.0021
  848POPE   C3A12663  11.209   4.994   6.320 -0.1328  0.0943  0.0844
  848POPE   C4A12664  11.181   5.363   6.447 -0.2429 -0.1192 -0.0037
  848POPE   C1B12665  10.919   5.412   5.425  0.1501 -0.0268  0.1598
  848POPE   C2B12666  11.263   5.625   5.607 -0.1182  0.1625  0.3976
  848POPE   C3B12667  11.579   5.875   5.750  0.0958 -0.1188  0.0577
  848POPE   C4B12668  11.807   6.087   6.066  0.0987 -0.1897  0.0059
  849POPE   NH312669   0.393   0.603   5.267  0.1236 -0.0143 -0.3431
  849POPE   PO412670   0.043   0.859   5.134 -0.2811  0.1384 -0.0185
  849POPE   GL112671  -0.180   0.793   5.409  0.0204  0.1920  0.3478
  849POPE   GL212672  -0.129   0.584   5.583 -0.1417  0.0778  0.1113
  849POPE   C1A12673  -0.298   1.067   5.679 -0.2231  0.0371 -0.1308
  849POPE   D2A12674  -0.331   1.437   5.818  0.0127  0.5115 -0.0279
  849POPE   C3A12675  -0.491   1.462   6.178 -0.1318  0.3529  0.3472
  849POPE   C4A12676  -0.631   1.729   6.451 -0.2379  0.0114  0.0904
  849POPE   C1B12677  -0.529   0.475   5.790  0.4280 -0.1547 -0.2181
  849POPE   C2B12678  -0.765   0.176   6.092 -0.2542  0.0028 -0.2201
  849POPE   C3B12679  -1.008   0.063   6.508  0.0199  0.2600 -0.0168
  849POPE   C4B12680  -1.098   0.028   6.939  0.2715 -0.4128 -0.2766
  850POPE   NH312681   9.632   8.598   4.964  0.0822  0.0473  0.0286
  850POPE   PO412682   9.796   9.052   5.007 -0.1640  0.2912  0.0939
  850POPE   GL112683   9.759   8.890   5.361 -0.2723 -0.0589 -0.2584
  850POPE   GL212684   9.556   9.114   5.566  0.0038 -0.0067  0.1018
  850POPE   C1A12685   9.976   8.834   5.706 -0.0310  0.2604 -0.0188
  850POPE   D2A12686  10.048   8.804   6.143 -0.4125  0.2004  0.3791
  850POPE   C3A12687  10.415   8.610   6.350  0.0259  0.0745 -0.3024
  850POPE   C4A12688  10.821   8.540   6.439 -0.0392 -0.0722  0.3833
  850POPE   C1B12689   9.682   9.130   6.013 -0.2539 -0.0643 -0.1199
  850POPE   C2B12690   9.683   9.331   6.435 -0.3153  0.2195  0.4148
  850POPE   C3B12691   9.607   9.114   6.820 -0.0523 -0.0188 -0.0046
  850POPE   C4B12692   9.438   8.834   7.047  0.0123  0.0975  0.1183
  851POPE   NH312693   9.107  15.478   4.974 -0.2373  0.1111  0.0228
  851POPE   PO412694   9.112  15.811   5.151 -0.4056  0.2150  0.3843
  851POPE   GL112695   9.069  15.543   5.481  0.3259  0.0222 -0.2688
  851POPE   GL212696   9.123  15.305   5.491  0.1410 -0.1630  0.0166
  851POPE   C1A12697   9.220  15.706   6.003  0.1313 -0.0726 -0.1589
  851POPE   D2A12698   9.450  16.186   6.030  0.0269  0.1477  0.1838
  851POPE   C3A12699   9.571  16.340   6.457 -0.0595 -0.1191  0.0752
  851POPE   C4A12700   9.307  16.415   6.860  0.1016  0.0410  0.1140
  851POPE   C1B12701   9.163  15.136   5.827  0.1229 -0.1778  0.3281
  851POPE   C2B12702   9.175  14.909   6.212 -0.1310  0.0338  0.0146
  851POPE   C3B12703   9.074  14.985   6.569 -0.0925  0.2892 -0.2311
  851POPE   C4B12704   8.696  15.173   6.776  0.1135  0.0204  0.0504
  852POPE   NH312705   4.751  19.274   5.333 -0.0022 -0.4675  0.1103
  852POPE   PO412706   4.870  19.674   5.030 -0.0803  0.1675  0.0037
  852POPE   GL112707   4.757  19.742   5.516 -0.1814 -0.1379 -0.0458
  852POPE   GL212708   4.626  20.066   5.569  0.2621 -0.0327 -0.0278
  852POPE   C1A12709   4.980  19.906   5.844  0.0094 -0.0968 -0.2641
  852POPE   D2A12710   5.286  20.220   5.924 -0.0168 -0.1107  0.1332
  852POPE   C3A12711   5.470  20.324   5.545  0.1014 -0.2530 -0.0321
  852POPE   C4A12712   5.479  20.804   5.483  0.1225 -0.0735 -0.2237
  852POPE   C1B12713   4.463  20.170   5.951 -0.1199 -0.0860  0.0053
  852POPE   C2B12714   4.159  20.072   6.280 -0.2058 -0.0198  0.0225
  852POPE   C3B12715   3.887  20.012   6.527  0.0439  0.1732  0.0917
  852POPE   C4B12716   3.771  19.629   6.717  0.0745  0.2156 -0.0088
  853POPE   NH312717   3.233  16.887   5.182 -0.3057 -0.3705 -0.3378
  853POPE   PO412718   2.771  17.007   5.206 -0.1393 -0.3102 -0.1850
  853POPE   GL112719   2.946  16.933   5.628  0.0565 -0.1144  0.3782
  853POPE   GL212720   3.182  16.718   5.832 -0.1349 -0.0502 -0.0995
  853POPE   C1A12721   2.868  17.032   6.064  0.1757  0.2303  0.0847
  853POPE   D2A12722   2.498  17.019   6.455 -0.0428 -0.4311  0.2082
  853POPE   C3A12723   2.486  16.874   6.924  0.1657  0.1172  0.2201
  853POPE   C4A12724   2.832  16.829   7.213 -0.0034 -0.2455  0.0578
  853POPE   C1B12725   3.298  16.728   6.267 -0.2275  0.3251  0.3088
  853POPE   C2B12726   3.315  16.632   6.739  0.1187  0.0065 -0.0259
  853POPE   C3B12727   3.459  16.398   7.086 -0.0123  0.1164 -0.1312
  853POPE   C4B12728   3.604  16.290   7.401 -0.2476 -0.1909 -0.0247
  854POPE   NH312729   6.751  17.704   4.994  0.1379  0.3343 -0.1654
  854POPE   PO412730   7.182  17.629   5.257  0.1519  0.0751  0.0683
  854POPE   GL112731   7.509  17.781   5.500 -0.0017 -0.0070 -0.0405
  854POPE   GL212732   7.434  18.120   5.453  0.0679  0.1619  0.0114
  854POPE   C1A12733   7.534  18.020   6.020  0.0238  0.3014  0.1743
  854POPE   D2A12734   7.612  17.983   6.392 -0.2255 -0.0242  0.3877
  854POPE   C3A12735   7.272  17.625   6.469 -0.2330  0.0554 -0.1943
  854POPE   C4A12736   7.052  17.409   6.683 -0.2367  0.0112 -0.2620
  854POPE   C1B12737   7.383  18.479   5.770  0.0255 -0.2244  0.2974
  854POPE   C2B12738   7.548  18.485   6.147 -0.0576  0.0730 -0.1253
  854POPE   C3B12739   7.359  18.556   6.448  0.1362  0.1473 -0.1070
  854POPE   C4B12740   7.193  18.554   6.784  0.0306 -0.3745  0.3344
  855POPE   NH312741   0.490  10.754   5.537  0.2054  0.1978  0.0864
  855POPE   PO412742   0.934  10.538   5.491  0.0924 -0.0605 -0.1265
  855POPE   GL112743   0.969  10.679   5.933  0.1198 -0.0006 -0.0250
  855POPE   GL212744   1.086  10.435   6.160 -0.2300 -0.0837  0.1714
  855POPE   C1A12745   1.161  10.975   6.300  0.3283  0.1874  0.0720
  855POPE   D2A12746   1.468  11.205   6.435 -0.1241 -0.0032  0.0345
  855POPE   C3A12747   1.817  11.126   6.675  0.0827  0.1725 -0.1143
  855POPE   C4A12748   2.166  11.124   6.968  0.0232  0.1188 -0.0036
  855POPE   C1B12749   1.234  10.518   6.527 -0.7015 -0.1065 -0.1388
  855POPE   C2B12750   1.466  10.790   6.725  0.1946 -0.2320  0.0444
  855POPE   C3B12751   1.647  11.120   7.123 -0.0255 -0.3343 -0.3385
  855POPE   C4B12752   1.783  11.468   7.038 -0.0615  0.0706  0.0411
  856POPE   NH312753  12.148   0.136   5.835  0.2133  0.0901  0.3387
  856POPE   PO412754  11.655   0.210   5.828 -0.0354 -0.0907  0.2001
  856POPE   GL112755  11.296   0.413   6.100  0.0725 -0.1262 -0.2588
  856POPE   GL212756  11.501   0.319   6.361  0.2064 -0.1103 -0.0318
  856POPE   C1A12757  10.861   0.619   6.213 -0.4470 -0.0782  0.2163
  856POPE   D2A12758  10.468   0.795   6.456  0.1949  0.2115  0.1849
  856POPE   C3A12759  10.429   0.873   6.905  0.3027  0.1921  0.0593
  856POPE   C4A12760  10.767   1.133   7.100 -0.1722  0.0937 -0.1300
  856POPE   C1B12761  11.466   0.495   6.791  0.2382  0.0188 -0.0007
  856POPE   C2B12762  11.155   0.541   7.104  0.0383  0.4915 -0.0486
  856POPE   C3B12763  10.993   0.816   7.473 -0.0379  0.2690  0.1689
  856POPE   C4B12764  11.037   0.889   7.923  0.2580 -0.2613  0.3422
  857POPE   NH312765  15.237   0.934   5.489 -0.2040 -0.1884  0.0985
  857POPE   PO412766  14.863   0.966   5.841 -0.0305  0.1922 -0.3612
  857POPE   GL112767  14.479   0.878   6.104 -0.3772  0.3191  0.1965
  857POPE   GL212768  14.277   1.010   6.159  0.2918  0.1904 -0.0294
  857POPE   C1A12769  14.325   0.686   6.581 -0.1813  0.1337  0.0001
  857POPE   D2A12770  14.443   0.800   6.937 -0.1894 -0.0255 -0.1453
  857POPE   C3A12771  14.746   1.169   6.950  0.1211 -0.1934 -0.1881
  857POPE   C4A12772  14.715   1.609   7.206  0.1776  0.1692 -0.3215
  857POPE   C1B12773  14.312   1.163   6.552 -0.2333 -0.0520 -0.3104
  857POPE   C2B12774  14.216   1.260   7.028 -0.0255 -0.1143  0.1519
  857POPE   C3B12775  14.209   1.567   7.486 -0.0136 -0.2313 -0.0419
  857POPE   C4B12776  14.503   1.853   7.619 -0.5543  0.5135  0.1818
  858POPE   NH312777   0.605   8.975   5.285  0.3353 -0.0466 -0.0295
  858POPE   PO412778   0.528   8.620   5.147  0.0489 -0.0639  0.2352
  858POPE   GL112779   0.361   8.679   5.612 -0.0151 -0.1251  0.2867
  858POPE   GL212780   0.167   8.629   5.671 -0.1976 -0.3539 -0.0199
  858POPE   C1A12781   0.671   8.635   5.994  0.2646 -0.1038 -0.5847
  858POPE   D2A12782   0.737   8.540   6.410  0.1182 -0.3876 -0.3326
  858POPE   C3A12783   0.795   8.641   6.875 -0.0986  0.0128  0.1322
  858POPE   C4A12784   0.505   8.879   7.081  0.1633 -0.2513 -0.0749
  858POPE   C1B12785   0.158   8.607   6.036  0.2465 -0.2919 -0.0211
  858POPE   C2B12786  -0.209   8.527   6.274  0.2084 -0.1414 -0.1712
  858POPE   C3B12787  -0.581   8.443   6.361 -0.3951  0.0680 -0.0542
  858POPE   C4B12788  -0.808   8.169   6.173  0.2318  0.1647 -0.5950
  859POPE   NH312789  17.099  12.583   4.944 -0.0119  0.1689  0.2402
  859POPE   PO412790  17.274  12.253   5.074 -0.0501 -0.0391  0.2482
  859POPE   GL112791  17.405  12.187   5.474  0.2846 -0.4328  0.3035
  859POPE   GL212792  17.324  12.449   5.727  0.0825  0.0013  0.2741
  859POPE   C1A12793  17.399  11.961   5.847 -0.0377 -0.1505  0.3484
  859POPE   D2A12794  17.471  11.950   6.215 -0.0953 -0.0895  0.1061
  859POPE   C3A12795  17.599  11.908   6.604  0.0896 -0.2465 -0.2130
  859POPE   C4A12796  17.813  11.668   6.918 -0.1008 -0.2144  0.0453
  859POPE   C1B12797  17.795  12.350   5.916 -0.1077 -0.2054 -0.3992
  859POPE   C2B12798  17.816  12.287   6.423  0.3797  0.1651  0.1366
  859POPE   C3B12799  17.741  12.387   6.796 -0.2737  0.2808 -0.1120
  859POPE   C4B12800  17.519  12.057   7.102 -0.2204  0.2725 -0.1692
  860POPE   NH312801  17.236  17.588   5.226 -0.1497 -0.2326  0.0664
  860POPE   PO412802  17.546  17.949   5.323 -0.0038  0.0567 -0.0218
  860POPE   GL112803  17.558  18.262   5.730  0.2319 -0.2885  0.1420
  860POPE   GL212804  17.760  18.526   5.786 -0.2293 -0.0492 -0.1074
  860POPE   C1A12805  17.378  18.242   6.056  0.3557 -0.1475  0.1069
  860POPE   D2A12806  17.594  18.160   6.464  0.1696  0.2408  0.0267
  860POPE   C3A12807  17.741  18.597   6.485  0.3009  0.2220  0.1497
  860POPE   C4A12808  17.539  18.738   6.216  0.0362  0.0504  0.0920
  860POPE   C1B12809  17.948  18.287   6.056 -0.3863 -0.1199 -0.0520
  860POPE   C2B12810  18.174  18.018   6.292  0.1816  0.1830  0.0749
  860POPE   C3B12811  18.070  18.019   6.581 -0.0179  0.0453  0.2171
  860POPE   C4B12812  17.925  18.243   7.001 -0.0504 -0.3299  0.0953
  861POPE   NH312813  17.491   7.306   4.919 -0.0285 -0.2898 -0.0094
  861POPE   PO412814  17.506   7.291   5.290 -0.0418 -0.0876  0.2691
  861POPE   GL112815  17.483   7.319   5.670 -0.2041 -0.1470  0.1246
  861POPE   GL212816  17.474   7.601   5.683  0.1167 -0.3261 -0.0289
  861POPE   C1A12817  17.169   7.443   6.001  0.0035  0.3535  0.1886
  861POPE   D2A12818  16.908   7.353   6.324 -0.1152  0.2307 -0.0065
  861POPE   C3A12819  16.423   7.521   6.249  0.4095 -0.1549  0.0360
  861POPE   C4A12820  16.155   7.624   6.630 -0.4153  0.1002  0.2155
  861POPE   C1B12821  17.707   7.561   6.099 -0.0399 -0.2496  0.1072
  861POPE   C2B12822  17.424   7.822   6.394 -0.1820  0.1050 -0.1636
  861POPE   C3B12823  17.111   7.635   6.783  0.1167 -0.1265 -0.1131
  861POPE   C4B12824  17.109   7.699   7.195 -0.1766 -0.1659 -0.0346
  862POPE   NH312825   2.096   0.794   4.491  0.2331 -0.2742 -0.1849
  862POPE   PO412826   2.474   0.776   4.769 -0.0658 -0.0927  0.1130
  862POPE   GL112827   2.574   0.604   5.176  0.2834 -0.1685  0.1667
  862POPE   GL212828   2.919   0.604   5.249  0.0834  0.1371  0.1605
  862POPE   C1A12829   2.533   0.462   5.546 -0.1466  0.2494  0.2660
  862POPE   D2A12830   2.514   0.449   6.010 -0.1308  0.2425 -0.1996
  862POPE   C3A12831   2.429   0.810   6.386  0.0610 -0.2584 -0.2462
  862POPE   C4A12832   2.777   1.171   6.308 -0.0298  0.2138  0.2661
  862POPE   C1B12833   2.926   0.672   5.703  0.3715  0.2832  0.0281
  862POPE   C2B12834   3.005   0.636   6.150  0.3078 -0.1850  0.0510
  862POPE   C3B12835   2.928   0.503   6.601 -0.4863 -0.2283  0.0984
  862POPE   C4B12836   2.901   0.274   6.921 -0.0631 -0.0003 -0.0701
  863POPE   NH312837  13.136   9.623   5.409  0.2572 -0.0691 -0.4365
  863POPE   PO412838  12.770   9.788   5.506 -0.3490 -0.1293  0.1598
  863POPE   GL112839  12.596   9.549   5.865 -0.0710 -0.4991  0.1438
  863POPE   GL212840  12.734   9.643   6.092 -0.1179  0.1029 -0.2538
  863POPE   C1A12841  12.191   9.610   6.181  0.1257  0.3267 -0.0733
  863POPE   D2A12842  11.869   9.344   6.225 -0.0953  0.0326  0.0913
  863POPE   C3A12843  11.796   8.906   6.142 -0.1174  0.0121  0.4932
  863POPE   C4A12844  11.824   8.494   6.220 -0.3168  0.1327 -0.3123
  863POPE   C1B12845  12.586   9.712   6.536  0.1511 -0.2358  0.1122
  863POPE   C2B12846  12.553   9.799   7.032  0.2755  0.0178 -0.0150
  863POPE   C3B12847  12.616   9.524   7.342 -0.1746  0.2873 -0.0431
  863POPE   C4B12848  12.964   9.251   7.328  0.0240 -0.1514  0.0979
  864YOPE   NH312849   6.834  12.868   5.060  0.2972 -0.0905  0.3701
  864YOPE   PO412850   7.058  13.120   5.266 -0.3115 -0.1962 -0.2793
  864YOPE   GL112851   6.994  13.165   5.638  0.2755  0.1272 -0.0009
  864YOPE   GL212852   7.297  13.300   5.845  0.0753 -0.0445 -0.0295
  864YOPE   C1A12853   6.867  13.128   6.091 -0.0471  0.2082 -0.1665
  864YOPE   D2A12854   6.971  13.134   6.480  0.0870 -0.1054  0.0207
  864YOPE   C3A12855   7.114  12.795   6.655 -0.2773  0.0599  0.0414
  864YOPE   C4A12856   7.075  12.468   7.069 -0.3535  0.0479 -0.1329
  864YOPE   C1B12857   7.382  13.234   6.225 -0.0484 -0.0700 -0.4028
  864YOPE   C2B12858   7.332  13.428   6.648  0.0403 -0.0632  0.2851
  864YOPE   D3B12859   7.429  13.173   6.896  0.0618 -0.0057 -0.0288
  864YOPE   C4B12860   7.788  13.256   7.225 -0.0975 -0.1246 -0.1033
  865YOPE   NH312861  12.624   0.679   5.883  0.1096  0.0692 -0.1329
  865YOPE   PO412862  12.873   0.959   5.665  0.0718 -0.1146  0.0443
  865YOPE   GL112863  12.912   1.239   6.017 -0.1232  0.2050 -0.0418
  865YOPE   GL212864  13.062   1.580   5.882  0.1472  0.1253 -0.1405
  865YOPE   C1A12865  12.942   1.395   6.379  0.1957 -0.0372  0.2233
  865YOPE   D2A12866  12.970   1.638   6.766 -0.2684 -0.2011  0.2171
  865YOPE   C3A12867  12.736   1.424   7.039 -0.0622 -0.0935  0.1246
  865YOPE   C4A12868  12.347   1.134   7.005  0.0804  0.2009 -0.1743
  865YOPE   C1B12869  13.006   1.943   6.156 -0.3931 -0.5343 -0.1259
  865YOPE   C2B12870  12.997   2.323   6.383  0.0570  0.3741  0.0901
  865YOPE   D3B12871  12.863   2.540   6.809 -0.2310 -0.0225 -0.1447
  865YOPE   C4B12872  12.625   2.643   7.207  0.3951 -0.0491 -0.0800
  866YOPE   NH312873  15.438  12.854   5.616  0.0815  0.3946 -0.0013
  866YOPE   PO412874  15.344  13.277   5.500  0.0544  0.0839  0.1525
  866YOPE   GL112875  15.507  13.350   5.971 -0.1018  0.2352 -0.0890
  866YOPE   GL212876  15.357  13.446   6.165  0.1304  0.1134  0.1374
  866YOPE   C1A12877  15.763  13.148   6.335  0.3850  0.1100  0.2871
  866YOPE   D2A12878  15.705  12.749   6.488  0.0772 -0.0280 -0.0263
  866YOPE   C3A12879  15.830  12.478   6.729 -0.3085  0.1317  0.1490
  866YOPE   C4A12880  16.185  12.280   6.679  0.1415 -0.1776  0.3240
  866YOPE   C1B12881  15.075  13.716   6.373  0.0968  0.2702 -0.2371
  866YOPE   C2B12882  15.016  14.063   6.459 -0.0005 -0.4323 -0.0839
  866YOPE   D3B12883  14.972  14.502   6.473 -0.1150 -0.3998  0.1834
  866YOPE   C4B12884  14.608  14.744   6.649 -0.1776 -0.0552  0.0746
  867YOPE   NH312885  14.711  16.897   5.440  0.0200  0.0000 -0.2523
  867YOPE   PO412886  14.967  16.832   5.862  0.0988  0.0916  0.1252
  867YOPE   GL112887  15.100  16.730   6.295  0.0396 -0.1585  0.1771
  867YOPE   GL212888  15.213  17.034   6.441 -0.1229  0.1851 -0.1643
  867YOPE   C1A12889  14.998  16.581   6.747 -0.2832 -0.1383 -0.1732
  867YOPE   D2A12890  14.960  16.642   7.226 -0.1058 -0.2520  0.4136
  867YOPE   C3A12891  14.496  16.499   7.434 -0.0661  0.0116 -0.0374
  867YOPE   C4A12892  14.211  16.158   7.531  0.0372 -0.0685  0.0949
  867YOPE   C1B12893  15.307  17.274   6.744 -0.2794  0.2800 -0.2807
  867YOPE   C2B12894  15.503  17.706   6.741  0.1638  0.0151 -0.1233
  867YOPE   D3B12895  15.822  17.990   6.839  0.0837 -0.1693  0.2179
  867YOPE   C4B12896  15.687  18.487   6.675  0.2997 -0.3123  0.1155
  868YOPE   NH312897  10.596   4.969   4.665 -0.0077  0.1303  0.2135
  868YOPE   PO412898  10.798   4.616   4.733  0.0287 -0.4073 -0.0075
  868YOPE   GL112899  10.653   4.666   5.129 -0.1725  0.0287  0.1929
  868YOPE   GL212900  10.443   4.881   5.227  0.0844  0.0960  0.0263
  868YOPE   C1A12901  10.888   4.538   5.532 -0.1132 -0.0806 -0.1088
  868YOPE   D2A12902  11.203   4.316   5.860  0.1685 -0.0136 -0.3643
  868YOPE   C3A12903  11.025   4.050   6.143 -0.1114 -0.0635 -0.2102
  868YOPE   C4A12904  10.537   3.829   6.140  0.1106 -0.2012 -0.0660
  868YOPE   C1B12905  10.717   4.994   5.598  0.2928 -0.1845 -0.0327
  868YOPE   C2B12906  10.451   5.307   5.766 -0.1367 -0.1242  0.1033
  868YOPE   D3B12907  10.348   5.490   6.167  0.1867  0.0545  0.2739
  868YOPE   C4B12908  10.065   5.326   6.493 -0.2346  0.1709 -0.3192
  869YOPE   NH312909   1.386  12.317   5.419 -0.3191 -0.0563 -0.4172
  869YOPE   PO412910   1.642  12.569   5.340 -0.0518  0.1357 -0.1780
  869YOPE   GL112911   1.561  12.700   5.668 -0.2698 -0.3120 -0.2506
  869YOPE   GL212912   1.381  12.939   5.753  0.0221 -0.0204  0.0948
  869YOPE   C1A12913   1.645  12.497   6.114 -0.0963  0.3185  0.0788
  869YOPE   D2A12914   1.889  12.242   6.388 -0.4285 -0.0202 -0.1779
  869YOPE   C3A12915   1.988  12.475   6.664 -0.0321 -0.0074 -0.3763
  869YOPE   C4A12916   2.196  12.546   6.971 -0.0159 -0.0223  0.0650
  869YOPE   C1B12917   1.613  13.130   6.058  0.3229 -0.0531 -0.1488
  869YOPE   C2B12918   1.704  13.477   6.306 -0.1323 -0.2133 -0.2284
  869YOPE   D3B12919   2.043  13.477   6.654  0.1512 -0.1971  0.1613
  869YOPE   C4B12920   2.327  13.482   7.112  0.4309  0.2215 -0.1416
  870YOPE   NH312921   5.862   3.887   4.070 -0.0314 -0.0300 -0.3845
  870YOPE   PO412922   6.270   3.609   4.246 -0.5865  0.0390  0.3042
  870YOPE   GL112923   6.133   3.406   4.693 -0.0955 -0.1678  0.2018
  870YOPE   GL212924   5.742   3.486   4.847  0.2568  0.1408 -0.3197
  870YOPE   C1A12925   6.244   3.158   5.046 -0.4144  0.1489  0.0744
  870YOPE   D2A12926   6.229   2.978   5.411  0.0663 -0.1913 -0.1915
  870YOPE   C3A12927   6.570   2.702   5.634 -0.0870 -0.1846 -0.0070
  870YOPE   C4A12928   6.965   2.722   5.710  0.2223  0.0437 -0.3477
  870YOPE   C1B12929   6.048   3.635   5.077  0.1871  0.0066 -0.0197
  870YOPE   C2B12930   6.099   3.453   5.471  0.2329 -0.6948  0.2582
  870YOPE   D3B12931   6.056   3.314   5.994  0.5155 -0.0987  0.0985
  870YOPE   C4B12932   6.117   2.994   6.125 -0.2238  0.0142 -0.1049
  871YOPE   NH312933  13.928   0.445   6.157  0.1539  0.1593  0.1073
  871YOPE   PO412934  13.624   0.360   5.839 -0.4510  0.0576 -0.1961
  871YOPE   GL112935  13.396   0.189   6.171  0.2568  0.1141  0.6482
  871YOPE   GL212936  13.681   0.026   6.252  0.0740  0.2527 -0.1841
  871YOPE   C1A12937  13.157  -0.066   6.516 -0.2841 -0.0438  0.1694
  871YOPE   D2A12938  13.228   0.001   6.990 -0.1951 -0.2084 -0.0634
  871YOPE   C3A12939  12.991   0.238   7.191  0.1318  0.1451  0.0460
  871YOPE   C4A12940  12.905   0.513   7.600 -0.1434 -0.0803  0.3666
  871YOPE   C1B12941  13.515   0.317   6.600 -0.0538 -0.1418 -0.0350
  871YOPE   C2B12942  13.304   0.563   6.895  0.1497 -0.0434  0.0475
  871YOPE   D3B12943  12.859   0.724   7.071 -0.2310  0.4078 -0.0567
  871YOPE   C4B12944  12.453   0.811   7.356  0.1581  0.1423  0.2554
  872YOPE   NH312945  10.178   1.309   5.121 -0.3839 -0.1250 -0.1463
  872YOPE   PO412946   9.983   1.670   4.829 -0.1852  0.0008  0.1208
  872YOPE   GL112947   9.651   1.716   5.134  0.1550 -0.1263  0.0169
  872YOPE   GL212948   9.321   1.578   4.955 -0.0950 -0.0969  0.0605
  872YOPE   C1A12949   9.316   1.861   5.404  0.0541  0.1841  0.0266
  872YOPE   D2A12950   9.014   2.046   5.419 -0.1616 -0.1332 -0.2771
  872YOPE   C3A12951   8.765   2.262   5.175  0.1421  0.0090  0.0979
  872YOPE   C4A12952   8.529   2.568   5.006  0.1695 -0.0007 -0.0219
  872YOPE   C1B12953   8.944   1.559   5.207 -0.1881  0.1170  0.2184
  872YOPE   C2B12954   8.705   1.644   5.591  0.0592  0.1615 -0.2223
  872YOPE   D3B12955   8.668   1.651   6.024 -0.3255 -0.0899  0.2127
  872YOPE   C4B12956   8.969   1.790   6.334 -0.1310  0.0050 -0.1477
  873YOPE   NH312957  11.618   7.508   4.925  0.5116 -0.1014  0.1017
  873YOPE   PO412958  11.361   7.853   5.080 -0.0760 -0.0340 -0.2300
  873YOPE   GL112959  11.245   7.704   5.472 -0.1826  0.3484  0.0303
  873YOPE   GL212960  11.203   7.342   5.467 -0.2467  0.4786  0.3278
  873YOPE   C1A12961  11.079   7.462   5.884  0.0220 -0.1822  0.3844
  873YOPE   D2A12962  10.824   7.416   6.219  0.0817  0.2723 -0.0916
  873YOPE   C3A12963  10.693   7.824   6.362 -0.2018 -0.3542 -0.2392
  873YOPE   C4A12964  10.857   8.095   6.647  0.4064  0.2907  0.1159
  873YOPE   C1B12965  11.277   6.992   5.763  0.2055  0.2027 -0.0830
  873YOPE   C2B12966  11.187   6.924   6.132 -0.2087 -0.5169  0.2700
  873YOPE   D3B12967  11.157   6.722   6.539  0.0959  0.2529 -0.0367
  873YOPE   C4B12968  11.454   6.448   6.845  0.2533  0.2425 -0.0561
  874YOPE   NH312969   9.575   9.550   5.184  0.0405  0.1779  0.1511
  874YOPE   PO412970   9.259   9.973   5.185  0.0616 -0.3295 -0.1842
  874YOPE   GL112971   9.350   9.903   5.511  0.3913  0.2883 -0.2398
  874YOPE   GL212972   9.265  10.182   5.695 -0.2389  0.0444 -0.0669
  874YOPE   C1A12973   9.522   9.719   5.974  0.0422  0.2097 -0.2208
  874YOPE   D2A12974   9.640   9.788   6.388 -0.5002 -0.1653  0.3164
  874YOPE   C3A12975   9.315   9.528   6.697 -0.3353 -0.3670 -0.3367
  874YOPE   C4A12976   9.080   9.364   7.060 -0.0081 -0.0081 -0.1386
  874YOPE   C1B12977   9.040  10.143   5.956  0.1936 -0.0812  0.0670
  874YOPE   C2B12978   8.595  10.239   5.963 -0.0195 -0.4683 -0.2262
  874YOPE   D3B12979   8.257  10.103   6.282  0.1164  0.2580 -0.3776
  874YOPE   C4B12980   7.909  10.189   6.550  0.3109  0.2841 -0.0413
  875YOPE   NH312981   3.773   6.776   4.611  0.1887 -0.1907  0.0136
  875YOPE   PO412982   3.772   6.332   4.642 -0.2894 -0.4492 -0.0572
  875YOPE   GL112983   3.493   6.305   5.095 -0.2025  0.0050  0.1609
  875YOPE   GL212984   3.719   6.389   5.238  0.0374 -0.2351  0.1231
  875YOPE   C1A12985   3.147   6.510   5.296 -0.1329  0.1236  0.2260
  875YOPE   D2A12986   2.690   6.465   5.433 -0.0466 -0.3799  0.3657
  875YOPE   C3A12987   2.453   6.865   5.542  0.0059 -0.1672  0.1393
  875YOPE   C4A12988   2.636   7.107   5.939 -0.0936  0.2987  0.2450
  875YOPE   C1B12989   3.904   6.142   5.486  0.1798 -0.1599 -0.1076
  875YOPE   C2B12990   3.794   5.748   5.706 -0.0134 -0.0169  0.0223
  875YOPE   D3B12991   3.884   5.437   6.023 -0.2711 -0.2402  0.5276
  875YOPE   C4B12992   3.609   5.288   6.301  0.1724 -0.2917  0.0189
  876YOPE   NH312993  15.490  15.395   5.748 -0.0646 -0.3094  0.1287
  876YOPE   PO412994  15.448  14.980   5.710  0.3732  0.1242  0.2737
  876YOPE   GL112995  15.395  15.170   6.173 -0.0679 -0.0762  0.2454
  876YOPE   GL212996  15.610  15.393   6.366 -0.2088  0.2074  0.1926
  876YOPE   C1A12997  15.202  15.040   6.604  0.1712  0.0471 -0.2712
  876YOPE   D2A12998  15.045  14.792   6.929  0.0494 -0.1738  0.0591
  876YOPE   C3A12999  14.820  14.393   6.961  0.0139  0.2168 -0.3846
  876YOPE   C4A13000  14.549  14.017   7.027  0.0301 -0.0533  0.2407
  876YOPE   C1B13001  15.831  15.071   6.387  0.1314  0.0588  0.2128
  876YOPE   C2B13002  15.650  14.684   6.483  0.1176  0.0240  0.0310
  876YOPE   D3B13003  15.538  14.535   6.885 -0.3098  0.0487  0.2322
  876YOPE   C4B13004  15.298  14.358   7.236  0.1703 -0.0479  0.0686
  877YOPE   NH313005   7.681   1.652   4.490 -0.1043  0.1859 -0.0635
  877YOPE   PO413006   8.153   1.561   4.345  0.2995  0.2091  0.1176
  877YOPE   GL113007   8.097   1.785   4.768  0.1887 -0.0892 -0.0430
  877YOPE   GL213008   8.412   1.895   5.007 -0.2373 -0.1672  0.2930
  877YOPE   C1A13009   7.845   1.970   5.194  0.4346  0.2522 -0.1847
  877YOPE   D2A13010   7.955   2.188   5.531 -0.0079  0.0635 -0.1313
  877YOPE   C3A13011   8.187   2.556   5.334 -0.1973 -0.1807  0.1948
  877YOPE   C4A13012   8.454   2.901   5.471  0.0125 -0.2168  0.2857
  877YOPE   C1B13013   8.201   1.662   5.405 -0.0020 -0.0507  0.1431
  877YOPE   C2B13014   8.305   1.295   5.621  0.0439  0.1343 -0.0418
  877YOPE   D3B13015   8.451   0.923   5.716  0.1467  0.0175  0.0313
  877YOPE   C4B13016   8.314   0.706   6.019  0.0862  0.1165  0.0208
  878YOPE   NH313017   5.239   9.490   5.163 -0.2381  0.1287  0.1850
  878YOPE   PO413018   4.917   9.494   5.220  0.2599 -0.1735  0.1164
  878YOPE   GL113019   4.834   9.109   5.452 -0.2571 -0.2200  0.6634
  878YOPE   GL213020   4.910   8.793   5.291  0.1343 -0.0883 -0.1669
  878YOPE   C1A13021   5.037   8.903   5.838  0.0668 -0.2539  0.0538
  878YOPE   D2A13022   4.884   8.672   6.217 -0.0094  0.0504 -0.0880
  878YOPE   C3A13023   4.679   8.988   6.513 -0.1699  0.0268 -0.1654
  878YOPE   C4A13024   4.479   9.307   6.824 -0.0874 -0.0872  0.2267
  878YOPE   C1B13025   5.305   8.551   5.278  0.0174  0.1276 -0.1127
  878YOPE   C2B13026   5.733   8.408   5.507 -0.0036 -0.6233 -0.2518
  878YOPE   D3B13027   6.016   8.712   5.738  0.0825  0.0097 -0.1862
  878YOPE   C4B13028   6.261   9.096   5.703  0.0183 -0.0063  0.0267
  879YOPE   NH313029  12.925   2.477   4.935 -0.0763 -0.1903 -0.1048
  879YOPE   PO413030  12.680   2.388   5.336  0.1374 -0.0914  0.0826
  879YOPE   GL113031  12.495   2.321   5.709 -0.2047  0.3073 -0.0725
  879YOPE   GL213032  12.388   2.603   5.728  0.0948  0.0525 -0.1189
  879YOPE   C1A13033  12.575   2.250   6.161 -0.0693 -0.1287 -0.2911
  879YOPE   D2A13034  12.551   2.198   6.580  0.0396  0.1301 -0.0420
  879YOPE   C3A13035  12.638   2.010   6.870 -0.0260  0.2358 -0.1272
  879YOPE   C4A13036  12.724   1.836   7.281  0.2394  0.3924 -0.1493
  879YOPE   C1B13037  12.269   2.666   6.167 -0.0098 -0.2294  0.1309
  879YOPE   C2B13038  12.176   2.571   6.505  0.1908  0.0794  0.1685
  879YOPE   D3B13039  12.124   2.649   6.924  0.0184 -0.0406 -0.0017
  879YOPE   C4B13040  12.076   2.717   7.308 -0.2927  0.2022 -0.0429
  880YOPE   NH313041  16.443  10.858   5.428  0.0455  0.0678  0.0963
  880YOPE   PO413042  16.037  11.001   5.323 -0.3515 -0.0505  0.0503
  880YOPE   GL113043  15.719  11.187   5.701 -0.2494  0.3236 -0.0231
  880YOPE   GL213044  16.039  10.961   5.856 -0.0535  0.1351 -0.2458
  880YOPE   C1A13045  15.251  11.198   5.980  0.1376  0.0447  0.1035
  880YOPE   D2A13046  15.028  11.134   6.369  0.3161  0.0372  0.1101
  880YOPE   C3A13047  14.938  10.738   6.324  0.0450  0.2874  0.0380
  880YOPE   C4A13048  15.263  10.405   6.266  0.2247  0.0645  0.0036
  880YOPE   C1B13049  16.092  10.809   6.218  0.2157  0.1701  0.0261
  880YOPE   C2B13050  16.225  10.586   6.453 -0.0769  0.0702  0.1003
  880YOPE   D3B13051  16.374  10.474   6.825  0.0733  0.2599  0.0610
  880YOPE   C4B13052  16.586  10.136   7.048 -0.0426 -0.2385 -0.3080
  881YOPE   NH313053  13.024  14.550   5.303 -0.0768  0.5269  0.2650
  881YOPE   PO413054  13.413  14.691   5.326  0.2493 -0.1448  0.2645
  881YOPE   GL113055  13.399  14.739   5.790  0.0048 -0.1343  0.2427
  881YOPE   GL213056  13.665  14.793   5.948  0.0362 -0.1117 -0.1056
  881YOPE   C1A13057  13.223  14.834   6.218  0.1048 -0.0210  0.0240
  881YOPE   D2A13058  12.845  14.997   6.542  0.1847  0.0182  0.1545
  881YOPE   C3A13059  12.860  15.001   6.880 -0.0415  0.0039  0.0124
  881YOPE   C4A13060  12.735  15.281   7.187  0.0865  0.0811 -0.0908
  881YOPE   C1B13061  13.635  15.069   6.368  0.0901  0.3769  0.3084
  881YOPE   C2B13062  13.788  15.269   6.712  0.1522 -0.1686  0.1201
  881YOPE   D3B13063  13.707  15.457   7.092 -0.5432  0.1872 -0.0065
  881YOPE   C4B13064  13.713  15.546   7.486 -0.1614 -0.1851  0.2600
  882YOPE   NH313065   0.904   8.180   5.100  0.2309  0.2062 -0.1439
  882YOPE   PO413066   0.674   7.790   5.145  0.3171 -0.4672 -0.2019
  882YOPE   GL113067   0.528   7.504   5.460 -0.0972 -0.1872 -0.1640
  882YOPE   GL213068   0.424   7.702   5.672 -0.1180  0.2200  0.0460
  882YOPE   C1A13069   0.700   7.217   5.783  0.4033  0.2770 -0.0021
  882YOPE   D2A13070   0.921   6.786   5.896 -0.1432  0.3377  0.0012
  882YOPE   C3A13071   0.936   6.368   5.982 -0.0271 -0.2733  0.0036
  882YOPE   C4A13072   0.941   6.097   6.336  0.1774  0.0759  0.1141
  882YOPE   C1B13073   0.266   7.562   6.085  0.2312 -0.2903  0.2542
  882YOPE   C2B13074  -0.218   7.609   6.415  0.0579 -0.4323  0.0295
  882YOPE   D3B13075  -0.570   7.335   6.760  0.0358  0.0192 -0.0642
  882YOPE   C4B13076  -0.742   6.875   6.779 -0.1338  0.2288  0.1318
  883YOPE   NH313077  16.289   9.654   5.750 -0.2526 -0.0089  0.1943
  883YOPE   PO413078  16.456  10.065   5.587  0.2867 -0.0277  0.2281
  883YOPE   GL113079  16.496  10.150   5.996  0.0097  0.1054  0.0091
  883YOPE   GL213080  16.678   9.906   6.055  0.0278  0.3652 -0.1995
  883YOPE   C1A13081  16.651  10.228   6.460  0.0865 -0.0716  0.0810
  883YOPE   D2A13082  16.940  10.585   6.569 -0.0703  0.0729  0.1832
  883YOPE   C3A13083  16.797  10.750   6.965  0.2005 -0.0869 -0.1522
  883YOPE   C4A13084  16.921  10.835   7.382  0.2580 -0.2975  0.4865
  883YOPE   C1B13085  16.787   9.566   6.283 -0.0216  0.2442 -0.1839
  883YOPE   C2B13086  17.169   9.645   6.643 -0.3281  0.1744  0.2833
  883YOPE   D3B13087  17.538   9.523   6.651 -0.2889 -0.0411 -0.0824
  883YOPE   C4B13088  17.849   9.654   6.809 -0.0105  0.0145  0.0069
  884YOPE   NH313089   1.920   8.242   4.942  0.1083  0.0882  0.0561
  884YOPE   PO413090   1.724   8.495   5.261 -0.4622 -0.1548 -0.1588
  884YOPE   GL113091   1.714   8.469   5.687  0.1667  0.1324 -0.2963
  884YOPE   GL213092   1.865   8.138   5.790 -0.2708  0.1020  0.1879
  884YOPE   C1A13093   1.900   8.483   6.137  0.2172  0.1556  0.1351
  884YOPE   D2A13094   1.844   8.339   6.525 -0.0871  0.1844 -0.0211
  884YOPE   C3A13095   2.250   8.199   6.834 -0.0358  0.1343 -0.2523
  884YOPE   C4A13096   2.386   8.016   7.221 -0.0742 -0.0352 -0.1320
  884YOPE   C1B13097   1.665   8.071   6.190 -0.1539  0.0385 -0.2240
  884YOPE   C2B13098   1.514   7.864   6.480 -0.1579  0.3273 -0.1024
  884YOPE   D3B13099   1.703   7.449   6.769  0.1515 -0.1635 -0.1901
  884YOPE   C4B13100   1.958   7.174   6.888 -0.0782 -0.1672 -0.3702
  885YOPE   NH313101   7.584   5.247   4.465 -0.0609  0.2666 -0.1063
  885YOPE   PO413102   7.523   5.735   4.569  0.0490  0.0483 -0.3641
  885YOPE   GL113103   7.237   5.757   4.936  0.0378 -0.0700 -0.0369
  885YOPE   GL213104   6.948   5.607   4.881 -0.1672 -0.3889 -0.1673
  885YOPE   C1A13105   7.336   5.685   5.333  0.4052 -0.0793  0.0237
  885YOPE   D2A13106   7.282   5.753   5.729  0.1280  0.0847 -0.1404
  885YOPE   C3A13107   6.888   5.662   5.860 -0.0462 -0.1925  0.5350
  885YOPE   C4A13108   6.646   5.205   6.018  0.0768 -0.1168 -0.0105
  885YOPE   C1B13109   6.736   5.809   5.251  0.0327 -0.0280 -0.1531
  885YOPE   C2B13110   6.872   6.079   5.650  0.0692 -0.2759  0.0817
  885YOPE   D3B13111   6.990   6.130   6.090 -0.2247 -0.1671 -0.1309
  885YOPE   C4B13112   7.367   5.948   6.217  0.1734  0.0521  0.1944
  886YOPE   NH313113   8.436   5.258   4.621  0.1011  0.0456  0.1715
  886YOPE   PO413114   7.996   5.366   4.691 -0.0028 -0.3001 -0.0980
  886YOPE   GL113115   8.265   5.327   5.080  0.2157 -0.2591 -0.1591
  886YOPE   GL213116   8.229   5.034   5.149  0.0406  0.0663  0.2861
  886YOPE   C1A13117   8.554   5.345   5.402 -0.1674 -0.1936  0.0621
  886YOPE   D2A13118   8.604   5.662   5.795 -0.0348 -0.2291  0.1463
  886YOPE   C3A13119   8.787   5.464   6.158  0.1437  0.0053 -0.3067
  886YOPE   C4A13120   8.507   5.208   6.361  0.1648  0.0908 -0.4738
  886YOPE   C1B13121   8.215   4.682   5.429 -0.3831  0.0289  0.0063
  886YOPE   C2B13122   8.017   4.682   5.758 -0.4298 -0.0595  0.0978
  886YOPE   D3B13123   8.040   4.728   6.160 -0.0624 -0.0520  0.0604
  886YOPE   C4B13124   8.271   4.720   6.479 -0.1425 -0.1267 -0.1196
  887YOPE   NH313125   3.432  14.836   5.365  0.2306 -0.0086 -0.0058
  887YOPE   PO413126   3.044  15.138   5.387 -0.0909 -0.1544 -0.1737
  887YOPE   GL113127   2.984  15.136   5.820  0.2002  0.0869 -0.0889
  887YOPE   GL213128   3.141  14.744   5.878  0.1262 -0.2842 -0.3194
  887YOPE   C1A13129   2.644  15.215   6.107  0.0262 -0.0390 -0.2350
  887YOPE   D2A13130   2.593  15.350   6.546 -0.2360 -0.0891  0.2022
  887YOPE   C3A13131   2.548  15.790   6.744 -0.1695  0.0067 -0.0673
  887YOPE   C4A13132   2.370  15.991   7.095  0.0871 -0.3076 -0.0212
  887YOPE   C1B13133   3.288  15.140   6.188 -0.1292 -0.0251  0.1111
  887YOPE   C2B13134   3.378  15.142   6.621 -0.0582  0.2461 -0.0726
  887YOPE   D3B13135   3.408  15.334   6.942  0.1501  0.1422 -0.0782
  887YOPE   C4B13136   3.196  15.287   7.283 -0.4477  0.1456  0.1708
  888YOPE   NH313137   5.030  12.489   5.439  0.1101  0.1709  0.3368
  888YOPE   PO413138   5.337  12.120   5.411  0.1842  0.2171  0.2761
  888YOPE   GL113139   5.465  11.891   5.710  0.3668 -0.0053 -0.1238
  888YOPE   GL213140   5.529  12.042   5.945  0.1754  0.1707 -0.2215
  888YOPE   C1A13141   5.713  11.537   5.927  0.2213 -0.2665  0.0572
  888YOPE   D2A13142   6.122  11.428   6.115  0.1197  0.0183 -0.0841
  888YOPE   C3A13143   6.121  11.593   6.535  0.0175  0.3292  0.2764
  888YOPE   C4A13144   6.388  11.859   6.681  0.0239  0.0063 -0.0430
  888YOPE   C1B13145   5.339  12.103   6.429  0.0035  0.1400 -0.1581
  888YOPE   C2B13146   5.331  12.162   6.779 -0.1642 -0.1998 -0.1521
  888YOPE   D3B13147   5.570  11.848   6.842  0.0491 -0.0695 -0.2841
  888YOPE   C4B13148   5.709  11.438   6.830 -0.1717  0.0679  0.2823
  889YOPE   NH313149   1.443  15.438   5.298 -0.3018  0.1469  0.0167
  889YOPE   PO413150   1.698  15.025   5.296  0.0205  0.0443  0.0235
  889YOPE   GL113151   1.563  14.893   5.724 -0.3718  0.0783  0.1125
  889YOPE   GL213152   1.424  15.205   5.774 -0.1892 -0.1389  0.1105
  889YOPE   C1A13153   1.697  14.607   6.104 -0.1863 -0.0443 -0.1857
  889YOPE   D2A13154   1.984  14.483   6.459  0.4666 -0.1447 -0.2166
  889YOPE   C3A13155   1.811  14.308   6.955  0.1824  0.0718 -0.0002
  889YOPE   C4A13156   1.835  14.288   7.392 -0.1265  0.0305  0.0768
  889YOPE   C1B13157   1.243  15.532   6.046 -0.3206 -0.1269 -0.1294
  889YOPE   C2B13158   1.175  15.540   6.423 -0.2375 -0.0757  0.0035
  889YOPE   D3B13159   1.236  15.743   6.729  0.2664  0.3353  0.2501
  889YOPE   C4B13160   1.146  15.767   7.206 -0.1571  0.0721 -0.0936
  890YOPE   NH313161  17.658  16.448   5.610  0.1292  0.0802 -0.2299
  890YOPE   PO413162  17.144  16.691   5.772 -0.0474  0.4251  0.2411
  890YOPE   GL113163  16.932  17.053   5.970 -0.1978 -0.1187 -0.1275
  890YOPE   GL213164  16.889  17.406   5.811 -0.0039  0.2634  0.1471
  890YOPE   C1A13165  17.103  17.089   6.315 -0.0502 -0.0122  0.1272
  890YOPE   D2A13166  17.152  17.155   6.757  0.2968  0.2350  0.0193
  890YOPE   C3A13167  17.259  17.521   7.069  0.1404 -0.4693 -0.0651
  890YOPE   C4A13168  17.567  17.773   7.272  0.0365  0.2595 -0.2647
  890YOPE   C1B13169  16.860  17.540   6.266  0.0439  0.0105 -0.1240
  890YOPE   C2B13170  16.881  17.645   6.707 -0.2201  0.3005  0.3083
  890YOPE   D3B13171  16.857  17.929   7.151 -0.0084  0.0452 -0.1032
  890YOPE   C4B13172  16.742  18.194   7.483  0.0199  0.1683  0.1198
  891YOPE   NH313173  16.304  15.229   5.366  0.0187  0.0830 -0.3820
  891YOPE   PO413174  15.951  14.936   5.571 -0.2764 -0.0194 -0.0499
  891YOPE   GL113175  15.819  14.717   5.921  0.0131 -0.2520 -0.0814
  891YOPE   GL213176  15.960  14.410   5.753 -0.1543 -0.1632  0.1690
  891YOPE   C1A13177  16.060  14.652   6.199  0.3001 -0.1299 -0.1669
  891YOPE   D2A13178  16.090  14.628   6.660 -0.1518 -0.1635  0.1102
  891YOPE   C3A13179  15.928  14.901   6.833 -0.0283 -0.2210  0.0154
  891YOPE   C4A13180  15.593  15.132   6.914  0.1435 -0.0499 -0.2401
  891YOPE   C1B13181  16.154  14.198   6.088 -0.2070 -0.3105  0.2018
  891YOPE   C2B13182  16.459  13.804   6.271  0.1673  0.2121  0.1288
  891YOPE   D3B13183  16.392  13.445   6.473  0.2770 -0.2226  0.0540
  891YOPE   C4B13184  16.285  13.390   6.891  0.0453  0.2974 -0.1046
  892YOPE   NH313185  16.170   8.630   5.071  0.0097 -0.1313 -0.1384
  892YOPE   PO413186  16.501   8.276   5.114 -0.4513 -0.0896 -0.0653
  892YOPE   GL113187  16.221   8.243   5.546 -0.0127  0.2929  0.0559
  892YOPE   GL213188  16.424   8.407   5.848 -0.5105  0.1007 -0.0802
  892YOPE   C1A13189  15.819   8.066   5.651  0.0323  0.0585  0.0430
  892YOPE   D2A13190  15.396   8.079   5.632  0.2601 -0.2410 -0.1966
  892YOPE   C3A13191  15.197   7.788   5.899 -0.2836 -0.2117 -0.1055
  892YOPE   C4A13192  14.947   7.700   6.238  0.0594  0.1594  0.2486
  892YOPE   C1B13193  16.447   8.514   6.298 -0.0510 -0.1304 -0.2505
  892YOPE   C2B13194  16.656   8.500   6.615 -0.1501  0.1797 -0.2063
  892YOPE   D3B13195  16.920   8.550   6.939  0.0456  0.1171  0.4426
  892YOPE   C4B13196  16.849   8.995   7.279  0.1678 -0.0629  0.2837
  893YOPE   NH313197   5.951  17.259   5.144 -0.0065  0.3537  0.3954
  893YOPE   PO413198   6.156  16.961   5.389 -0.5452  0.1500  0.3696
  893YOPE   GL113199   6.194  17.229   5.727  0.0257 -0.1913 -0.1557
  893YOPE   GL213200   6.139  17.110   5.876 -0.3339  0.3631 -0.1231
  893YOPE   C1A13201   6.276  17.492   6.094 -0.1422  0.1375 -0.1182
  893YOPE   D2A13202   6.099  17.643   6.536  0.0334  0.0280  0.2243
  893YOPE   C3A13203   6.388  17.917   6.735 -0.0086 -0.2980 -0.0246
  893YOPE   C4A13204   6.682  17.781   6.907 -0.3289  0.2596  0.0633
  893YOPE   C1B13205   6.003  17.156   6.293 -0.1540  0.0042  0.0400
  893YOPE   C2B13206   5.839  17.258   6.634  0.0011 -0.0546  0.1699
  893YOPE   D3B13207   5.819  17.418   7.038 -0.4094  0.1402 -0.0762
  893YOPE   C4B13208   5.917  17.897   7.018  0.1200 -0.4108 -0.0366
  894YOPE   NH313209  14.334   2.659   4.952  0.0442 -0.2683  0.0403
  894YOPE   PO413210  14.406   2.555   5.346  0.1134 -0.1386 -0.0933
  894YOPE   GL113211  14.316   2.591   5.769 -0.1052  0.0145 -0.0409
  894YOPE   GL213212  13.942   2.656   5.923 -0.0323 -0.1323  0.0979
  894YOPE   C1A13213  14.383   2.914   6.055 -0.1457 -0.1994 -0.0106
  894YOPE   D2A13214  14.084   3.141   6.409  0.0994 -0.0476  0.0449
  894YOPE   C3A13215  14.063   2.994   6.800 -0.1011  0.1891  0.1277
  894YOPE   C4A13216  13.834   3.013   7.221  0.0331  0.0424  0.3812
  894YOPE   C1B13217  13.965   2.677   6.245  0.0995 -0.1707 -0.3878
  894YOPE   C2B13218  14.247   2.586   6.646  0.0229 -0.0697 -0.1841
  894YOPE   D3B13219  14.684   2.525   6.861 -0.1148 -0.2225 -0.0999
  894YOPE   C4B13220  15.064   2.344   7.000  0.1484 -0.0242 -0.2179
  895YOPE   NH313221   1.630   4.909   4.910  0.3285 -0.0683  0.0982
  895YOPE   PO413222   1.689   5.402   4.936 -0.0701  0.1658  0.0051
  895YOPE   GL113223   1.538   5.256   5.331  0.0674  0.4180 -0.1231
  895YOPE   GL213224   1.651   5.430   5.419  0.3375 -0.4481 -0.3349
  895YOPE   C1A13225   1.679   5.056   5.663 -0.1631  0.1394 -0.1162
  895YOPE   D2A13226   1.814   4.869   6.098  0.1992 -0.3621 -0.1954
  895YOPE   C3A13227   2.174   4.944   6.336  0.1131  0.1940 -0.1992
  895YOPE   C4A13228   2.255   4.837   6.745  0.1460 -0.1579 -0.1047
  895YOPE   C1B13229   1.851   5.513   5.857 -0.0170 -0.1164 -0.2439
  895YOPE   C2B13230   1.946   5.419   6.314  0.3499 -0.0480 -0.0053
  895YOPE   D3B13231   2.203   5.459   6.626 -0.1506 -0.0789 -0.1452
  895YOPE   C4B13232   2.487   5.818   6.757  0.1004 -0.1215 -0.3770
  896YOPE   NH313233   9.269  19.369   5.111 -0.3316 -0.0384  0.3091
  896YOPE   PO413234   9.700  19.349   5.324  0.1499  0.0504  0.1176
  896YOPE   GL113235   9.861  19.371   5.656  0.1617 -0.3172 -0.1011
  896YOPE   GL213236  10.011  18.991   5.781 -0.3181  0.3008  0.0739
  896YOPE   C1A13237   9.887  19.612   6.162 -0.2373  0.1030  0.3152
  896YOPE   D2A13238   9.649  19.491   6.586  0.3030  0.0112 -0.1891
  896YOPE   C3A13239   9.614  19.310   6.988 -0.0859 -0.0621  0.0079
  896YOPE   C4A13240   9.710  19.132   7.343 -0.2866  0.2329  0.0240
  896YOPE   C1B13241   9.864  19.104   6.224  0.1919 -0.1608  0.0451
  896YOPE   C2B13242   9.791  18.949   6.663 -0.2322  0.0907  0.1414
  896YOPE   D3B13243   9.704  18.770   7.048  0.1191  0.2298 -0.0434
  896YOPE   C4B13244   9.957  18.566   7.252  0.0096 -0.1823  0.3240
  897YOPE   NH313245   8.933  11.510   5.270 -0.1194  0.1649 -0.2390
  897YOPE   PO413246   8.733  11.193   5.062 -0.0962  0.3086  0.4658
  897YOPE   GL113247   8.539  11.137   5.527  0.0665  0.1003  0.0592
  897YOPE   GL213248   8.801  11.276   5.685  0.1594 -0.0154 -0.1320
  897YOPE   C1A13249   8.245  11.196   5.852 -0.0811  0.1371  0.3251
  897YOPE   D2A13250   8.075  10.990   6.233 -0.3656 -0.1913 -0.0233
  897YOPE   C3A13251   7.819  11.234   6.510 -0.0934 -0.2236  0.2440
  897YOPE   C4A13252   7.672  11.585   6.512 -0.1281  0.2738  0.0086
  897YOPE   C1B13253   8.664  11.482   6.009  0.2323 -0.2329  0.2197
  897YOPE   C2B13254   8.856  11.521   6.355  0.2598  0.0443 -0.3012
  897YOPE   D3B13255   9.267  11.368   6.519 -0.2021 -0.1901 -0.0919
  897YOPE   C4B13256   9.409  11.261   6.849  0.0488 -0.1674  0.0685
  898YOPE   NH313257   0.237  12.465   5.345  0.1870  0.0834 -0.2013
  898YOPE   PO413258   0.524  12.672   5.676  0.1781  0.1856 -0.0940
  898YOPE   GL113259   0.369  12.546   6.053  0.0420 -0.0218  0.0157
  898YOPE   GL213260   0.197  12.819   6.034 -0.0458  0.0275 -0.3649
  898YOPE   C1A13261   0.636  12.389   6.402 -0.1965 -0.4896  0.2194
  898YOPE   D2A13262   0.832  12.282   6.772 -0.0732  0.0153  0.0004
  898YOPE   C3A13263   1.023  11.944   6.984  0.0633 -0.0344 -0.0459
  898YOPE   C4A13264   1.319  11.879   7.191 -0.0978 -0.0741 -0.4169
  898YOPE   C1B13265   0.183  12.895   6.456  0.2701  0.2259 -0.1359
  898YOPE   C2B13266  -0.093  12.913   6.796  0.1626  0.4172  0.4342
  898YOPE   D3B13267  -0.171  12.736   7.203  0.0913  0.1627 -0.0408
  898YOPE   C4B13268  -0.090  12.328   7.410 -0.5595 -0.0749  0.1997
  899YOPE   NH313269   6.569   8.270   4.650  0.1035 -0.0765 -0.2095
  899YOPE   PO413270   6.106   8.165   4.651 -0.2046 -0.0693 -0.0670
  899YOPE   GL113271   5.941   8.233   5.053 -0.0611 -0.1380  0.2075
  899YOPE   GL213272   6.263   8.419   5.333  0.4137  0.3002 -0.0395
  899YOPE   C1A13273   5.872   7.979   5.417 -0.2516  0.1008  0.0798
  899YOPE   D2A13274   5.695   7.610   5.604 -0.0412 -0.0663  0.0735
  899YOPE   C3A13275   5.748   7.155   5.577 -0.2332  0.1966  0.1315
  899YOPE   C4A13276   6.071   6.903   5.496  0.2152  0.0900  0.1058
  899YOPE   C1B13277   6.560   8.747   5.565  0.1492  0.3143  0.2568
  899YOPE   C2B13278   6.808   9.148   5.630 -0.0386 -0.0550  0.1678
  899YOPE   D3B13279   6.997   9.397   5.873  0.2667 -0.0048  0.0239
  899YOPE   C4B13280   7.116   9.779   6.033  0.0512 -0.0291 -0.2547
  900YOPE   NH313281   4.626  10.341   5.050  0.3767 -0.1714  0.1146
  900YOPE   PO413282   4.729   9.955   5.265  0.0758 -0.1845 -0.1242
  900YOPE   GL113283   4.692   9.831   5.610 -0.2776 -0.3015  0.0536
  900YOPE   GL213284   4.808   9.521   5.738 -0.2777 -0.3241  0.0682
  900YOPE   C1A13285   4.471   9.810   5.973 -0.2510 -0.1030 -0.0176
  900YOPE   D2A13286   4.296  10.131   6.211 -0.3514  0.1492 -0.2939
  900YOPE   C3A13287   4.200  10.596   6.101 -0.0925 -0.0309  0.1393
  900YOPE   C4A13288   4.209  10.997   6.319 -0.0767 -0.1898  0.0343
  900YOPE   C1B13289   4.825   9.436   6.195 -0.1162  0.1207  0.3037
  900YOPE   C2B13290   5.027   9.433   6.566  0.0927  0.0416 -0.1347
  900YOPE   D3B13291   5.092   9.092   6.801 -0.1914 -0.1619 -0.3039
  900YOPE   C4B13292   5.173   8.865   7.192 -0.1505  0.0100 -0.0628
  901YOPE   NH313293  13.178   2.170   5.447  0.2584 -0.3162 -0.0986
  901YOPE   PO413294  13.211   1.790   5.508 -0.2240  0.0002  0.1964
  901YOPE   GL113295  13.443   1.985   5.816  0.4754  0.0466  0.2407
  901YOPE   GL213296  13.817   1.986   5.882 -0.0259  0.0703 -0.0425
  901YOPE   C1A13297  13.478   2.221   6.255  0.2944 -0.1171  0.2348
  901YOPE   D2A13298  13.640   2.373   6.539 -0.2079  0.1096 -0.1016
  901YOPE   C3A13299  13.397   2.608   6.816  0.0430  0.2673  0.0976
  901YOPE   C4A13300  13.219   2.868   7.020  0.1097  0.0684  0.4568
  901YOPE   C1B13301  13.842   1.877   6.274  0.0438 -0.4662  0.0528
  901YOPE   C2B13302  14.016   2.085   6.619 -0.1295 -0.1791  0.2111
  901YOPE   D3B13303  13.871   2.495   7.002  0.0434 -0.1303 -0.2365
  901YOPE   C4B13304  13.563   2.632   7.264 -0.0594  0.1680 -0.1330
  902YOPE   NH313305   2.996   8.288   5.122  0.3313  0.0365  0.1359
  902YOPE   PO413306   3.388   8.160   5.068 -0.0022  0.1322  0.0627
  902YOPE   GL113307   3.320   8.016   5.479  0.0637 -0.2503 -0.0486
  902YOPE   GL213308   3.105   7.724   5.395  0.1408 -0.1560 -0.1239
  902YOPE   C1A13309   3.100   8.110   5.819 -0.1594 -0.1336 -0.2138
  902YOPE   D2A13310   2.811   8.455   5.884  0.0464 -0.1289 -0.1727
  902YOPE   C3A13311   2.924   8.680   6.308 -0.1508 -0.3307  0.1157
  902YOPE   C4A13312   2.859   9.065   6.495  0.3813  0.0009 -0.2508
  902YOPE   C1B13313   3.559   7.608   5.371  0.0636 -0.2198 -0.3052
  902YOPE   C2B13314   3.798   7.319   5.537  0.1645  0.0242 -0.3389
  902YOPE   D3B13315   3.863   7.034   5.976  0.0077 -0.2219 -0.1788
  902YOPE   C4B13316   3.590   6.668   6.120 -0.0676  0.1876 -0.0630
  903YOPE   NH313317   9.908  17.929   5.572 -0.3514  0.1135 -0.0766
  903YOPE   PO413318   9.411  17.874   5.351 -0.1758  0.1096  0.1680
  903YOPE   GL113319   9.454  17.874   5.813  0.2806  0.0157 -0.0192
  903YOPE   GL213320   9.131  17.865   5.949  0.2254 -0.1464 -0.0408
  903YOPE   C1A13321   9.474  17.566   6.195 -0.2964 -0.1313  0.1387
  903YOPE   D2A13322   9.333  17.338   6.599  0.0516  0.2201 -0.1318
  903YOPE   C3A13323   8.938  17.119   6.613  0.0457  0.2949 -0.0013
  903YOPE   C4A13324   8.542  17.133   6.730  0.1524 -0.1053  0.0976
  903YOPE   C1B13325   8.974  18.233   6.065 -0.3031 -0.5302 -0.1125
  903YOPE   C2B13326   9.178  18.520   6.380  0.0281  0.1950  0.0680
  903YOPE   D3B13327   9.233  18.656   6.693 -0.0873 -0.4085 -0.0704
  903YOPE   C4B13328   9.144  19.022   6.947  0.0384  0.2318  0.0893
  904YOPE   NH313329  18.383   5.873   5.324 -0.3493  0.4150 -0.1458
  904YOPE   PO413330  18.158   6.194   5.067  0.2108 -0.2785  0.0737
  904YOPE   GL113331  18.087   6.269   5.452 -0.0525 -0.0184 -0.2287
  904YOPE   GL213332  18.185   6.489   5.545  0.1239  0.0590  0.2093
  904YOPE   C1A13333  17.826   6.234   5.878 -0.0706  0.2125  0.2552
  904YOPE   D2A13334  17.590   6.265   6.149 -0.0227 -0.5004 -0.5339
  904YOPE   C3A13335  17.528   6.674   6.434  0.0163 -0.3713 -0.0239
  904YOPE   C4A13336  17.655   6.969   6.778 -0.1217 -0.3675 -0.0993
  904YOPE   C1B13337  18.437   6.679   5.902  0.0687  0.2016  0.2240
  904YOPE   C2B13338  18.409   6.670   6.364 -0.1425 -0.0672 -0.1281
  904YOPE   D3B13339  18.103   6.661   6.677 -0.3103 -0.2880 -0.1117
  904YOPE   C4B13340  18.149   6.868   7.093  0.0663 -0.0300  0.2011
  905YOPE   NH313341  11.811  18.811   5.639  0.0730 -0.3988 -0.0522
  905YOPE   PO413342  11.433  18.980   5.686  0.1658 -0.1602  0.0304
  905YOPE   GL113343  11.266  19.094   6.060  0.0446 -0.2370 -0.1778
  905YOPE   GL213344  11.468  19.279   6.130 -0.0159 -0.0006 -0.0047
  905YOPE   C1A13345  11.252  18.999   6.524  0.1495  0.0262 -0.3383
  905YOPE   D2A13346  11.203  19.059   6.956  0.3596 -0.1895  0.0819
  905YOPE   C3A13347  10.845  18.981   7.269  0.0393 -0.2182 -0.1459
  905YOPE   C4A13348  10.373  18.931   7.233 -0.0396 -0.0895  0.2538
  905YOPE   C1B13349  11.296  19.468   6.597  0.1213  0.1279 -0.0259
  905YOPE   C2B13350  11.004  19.780   6.630 -0.2309 -0.1723 -0.3089
  905YOPE   D3B13351  10.756  19.894   6.898 -0.2119  0.2979 -0.0282
  905YOPE   C4B13352  10.695  19.832   7.308 -0.1699 -0.0661 -0.0202
  906YOPE   NH313353  18.203  16.499   5.459 -0.1461  0.1252  0.2907
  906YOPE   PO413354  18.444  16.250   5.657  0.3497 -0.0826 -0.1366
  906YOPE   GL113355  18.479  16.169   6.070  0.0881 -0.0142 -0.1625
  906YOPE   GL213356  18.343  15.827   6.048 -0.3247 -0.2818 -0.2333
  906YOPE   C1A13357  18.256  16.344   6.277  0.0163 -0.1178  0.0145
  906YOPE   D2A13358  18.263  16.206   6.662 -0.1204 -0.2316  0.1368
  906YOPE   C3A13359  18.713  16.083   6.739  0.0491 -0.1818  0.3488
  906YOPE   C4A13360  19.022  16.060   7.018  0.1317  0.2648 -0.0941
  906YOPE   C1B13361  18.387  15.799   6.441 -0.1221  0.0920 -0.1063
  906YOPE   C2B13362  18.373  15.746   6.887 -0.0690  0.2901  0.0031
  906YOPE   D3B13363  18.610  15.782   7.117 -0.2395  0.2535 -0.1609
  906YOPE   C4B13364  18.813  15.979   7.497 -0.1503 -0.2137  0.1814
  907YOPE   NH313365   9.277   9.191   4.857 -0.1404  0.0339 -0.0908
  907YOPE   PO413366   8.889   9.342   4.883 -0.3415  0.1887 -0.1895
  907YOPE   GL113367   9.070   9.389   5.308  0.3167  0.0989  0.6583
  907YOPE   GL213368   8.827   9.166   5.369 -0.0175 -0.1278  0.0614
  907YOPE   C1A13369   9.151   9.264   5.743 -0.0557  0.1182 -0.0784
  907YOPE   D2A13370   9.233   9.379   6.191 -0.2003  0.2894  0.4003
  907YOPE   C3A13371   9.091   9.871   6.345  0.1883 -0.0892  0.0658
  907YOPE   C4A13372   8.723  10.096   6.477 -0.0330  0.1629 -0.1048
  907YOPE   C1B13373   8.675   9.193   5.827 -0.1486 -0.0544 -0.2797
  907YOPE   C2B13374   8.485   9.060   6.216  0.2469  0.0273  0.0818
  907YOPE   D3B13375   8.329   9.113   6.675 -0.0620  0.1551  0.0300
  907YOPE   C4B13376   8.193   9.323   6.867 -0.1065  0.0287  0.0783
  908YOPE   NH313377   6.388  13.122   5.207 -0.1305 -0.0387  0.0413
  908YOPE   PO413378   6.279  12.635   5.099 -0.5096  0.3990 -0.2232
  908YOPE   GL113379   6.208  12.414   5.448 -0.1326 -0.2256  0.0247
  908YOPE   GL213380   6.361  12.294   5.584 -0.3564 -0.0464  0.1945
  908YOPE   C1A13381   6.094  12.543   5.940  0.2090  0.1767 -0.1262
  908YOPE   D2A13382   6.063  12.775   6.134  0.0614 -0.0003  0.0900
  908YOPE   C3A13383   6.494  12.863   6.292 -0.0850 -0.1216  0.2208
  908YOPE   C4A13384   6.817  12.636   6.264  0.0172 -0.2211  0.0341
  908YOPE   C1B13385   6.532  12.251   5.954  0.0796 -0.0199  0.1218
  908YOPE   C2B13386   6.365  12.274   6.368  0.2157 -0.1752  0.0950
  908YOPE   D3B13387   6.593  12.527   6.751 -0.4434  0.1319 -0.0719
  908YOPE   C4B13388   6.460  12.862   7.062  0.0167 -0.0131  0.0366
  909YOPE   NH313389   4.564  13.187   5.642 -0.1971 -0.2539  0.0821
  909YOPE   PO413390   4.618  12.765   5.488 -0.3006 -0.3136  0.1157
  909YOPE   GL113391   4.833  12.760   5.793  0.2801 -0.0085  0.1751
  909YOPE   GL213392   4.671  12.770   6.031 -0.3250 -0.0388  0.0211
  909YOPE   C1A13393   5.185  12.889   6.137 -0.1247 -0.1901 -0.1554
  909YOPE   D2A13394   5.489  13.151   6.338  0.0556  0.2410  0.3290
  909YOPE   C3A13395   5.651  12.995   6.725  0.1015  0.0997 -0.3901
  909YOPE   C4A13396   5.858  13.093   7.051  0.3189  0.3057 -0.2354
  909YOPE   C1B13397   4.557  12.826   6.558 -0.1354 -0.2127  0.3084
  909YOPE   C2B13398   4.793  12.681   6.861 -0.4065  0.3764  0.0445
  909YOPE   D3B13399   4.912  12.454   7.162 -0.1511  0.0285  0.0942
  909YOPE   C4B13400   4.960  12.582   7.567 -0.0753 -0.2288 -0.1665
  910YOPE   NH313401  15.725  16.219   5.748 -0.1326 -0.0249 -0.1084
  910YOPE   PO413402  15.794  15.790   5.698 -0.0890 -0.2114 -0.2061
  910YOPE   GL113403  15.579  15.840   6.080 -0.0671  0.1190  0.1472
  910YOPE   GL213404  15.250  15.685   6.123 -0.1701  0.1580  0.0824
  910YOPE   C1A13405  15.605  15.931   6.504  0.0549 -0.0576 -0.0301
  910YOPE   D2A13406  15.684  16.067   6.946 -0.2422  0.0360  0.2564
  910YOPE   C3A13407  15.888  16.409   7.033 -0.2136  0.1045  0.0156
  910YOPE   C4A13408  15.932  16.735   7.395 -0.3058 -0.1073 -0.0856
  910YOPE   C1B13409  15.084  15.529   6.483  0.3389 -0.0219  0.1810
  910YOPE   C2B13410  15.365  15.578   6.751 -0.1218  0.1953 -0.5027
  910YOPE   D3B13411  15.459  15.692   7.217  0.0312  0.1941  0.1990
  910YOPE   C4B13412  15.835  15.825   7.446 -0.0742 -0.1770 -0.0405
  911YOPE   NH313413  10.253   2.681   5.071 -0.2206 -0.1187  0.2253
  911YOPE   PO413414  10.598   2.870   4.878  0.1768 -0.0596 -0.2053
  911YOPE   GL113415  10.687   2.941   5.348  0.2373  0.2754  0.4728
  911YOPE   GL213416  10.507   2.702   5.581 -0.0352 -0.1209  0.0017
  911YOPE   C1A13417  10.685   3.100   5.830 -0.0251  0.1739  0.1098
  911YOPE   D2A13418  10.740   2.861   6.204  0.2286  0.4519 -0.2110
  911YOPE   C3A13419  10.436   2.612   6.379  0.2518 -0.1902 -0.0442
  911YOPE   C4A13420  10.323   2.140   6.433 -0.0081 -0.0380  0.0171
  911YOPE   C1B13421  10.239   2.853   5.902  0.1342  0.4106  0.1000
  911YOPE   C2B13422  10.008   2.764   6.234 -0.0663 -0.1511 -0.3934
  911YOPE   D3B13423   9.925   2.519   6.575 -0.3950  0.0002  0.2867
  911YOPE   C4B13424   9.925   2.202   6.984 -0.0810 -0.0636  0.2194
  912YOPE   NH313425  13.238  12.444   6.003 -0.0201  0.3882 -0.3674
  912YOPE   PO413426  13.455  12.850   5.932  0.0403 -0.0457 -0.1022
  912YOPE   GL113427  13.343  12.694   6.479  0.0400 -0.1774  0.3717
  912YOPE   GL213428  13.393  13.021   6.607  0.0658  0.1367 -0.3334
  912YOPE   C1A13429  13.247  12.444   6.862 -0.1029 -0.1832 -0.0732
  912YOPE   D2A13430  13.321  12.382   7.345  0.0185 -0.1188 -0.2475
  912YOPE   C3A13431  12.981  12.075   7.307 -0.0521 -0.2876 -0.1062
  912YOPE   C4A13432  12.729  11.734   7.316  0.0501 -0.2101 -0.1426
  912YOPE   C1B13433  13.648  12.741   6.842 -0.3537  0.0495  0.0599
  912YOPE   C2B13434  13.787  12.389   7.157  0.0037 -0.3717  0.2527
  912YOPE   D3B13435  13.728  11.991   7.340 -0.1451  0.2764  0.1780
  912YOPE   C4B13436  13.483  11.622   7.421  0.0376  0.3856 -0.0705
  913YOPE   NH313437  12.814   8.534   4.987 -0.1206 -0.2853  0.0531
  913YOPE   PO413438  12.554   8.612   5.284 -0.1668  0.2315 -0.0716
  913YOPE   GL113439  12.654   8.624   5.594 -0.1503  0.2764  0.0745
  913YOPE   GL213440  12.947   8.661   5.726  0.1229  0.3402  0.2716
  913YOPE   C1A13441  12.706   8.443   6.019  0.2024 -0.0274  0.1367
  913YOPE   D2A13442  12.531   8.294   6.425 -0.1569  0.1846 -0.1051
  913YOPE   C3A13443  12.410   7.908   6.476 -0.0965  0.2884 -0.0730
  913YOPE   C4A13444  12.170   7.570   6.457 -0.0575 -0.2668 -0.1505
  913YOPE   C1B13445  13.113   8.743   6.109  0.2092  0.1119  0.1914
  913YOPE   C2B13446  13.012   8.733   6.577 -0.1255  0.3774  0.0580
  913YOPE   D3B13447  12.998   8.886   7.001 -0.0664 -0.2438 -0.1110
  913YOPE   C4B13448  12.740   8.770   7.347  0.4888  0.1370  0.2657
  914YOPE   NH313449   1.672   6.105   4.872  0.2003 -0.1970 -0.1530
  914YOPE   PO413450   1.561   6.607   5.055  0.2276 -0.0034 -0.1142
  914YOPE   GL113451   1.751   6.426   5.335 -0.4164  0.1463 -0.1450
  914YOPE   GL213452   2.033   6.324   5.259 -0.0024  0.1717  0.0587
  914YOPE   C1A13453   1.505   6.270   5.706 -0.0580  0.0782 -0.0236
  914YOPE   D2A13454   1.417   6.241   6.174  0.1081  0.0955  0.0349
  914YOPE   C3A13455   1.870   6.334   6.416  0.0494  0.1232 -0.0764
  914YOPE   C4A13456   1.820   6.221   6.788  0.0895 -0.0340  0.4055
  914YOPE   C1B13457   2.228   6.310   5.652 -0.2277 -0.2044 -0.1548
  914YOPE   C2B13458   2.630   6.603   5.934 -0.0619 -0.0557 -0.0641
  914YOPE   D3B13459   2.860   6.783   6.244  0.1191  0.2824 -0.0802
  914YOPE   C4B13460   3.155   6.955   6.459 -0.0407  0.1068 -0.1683
  915YOPE   NH313461  16.785   6.781   5.056 -0.2723  0.1610 -0.2024
  915YOPE   PO413462  16.543   7.119   5.065  0.4127  0.4096  0.0304
  915YOPE   GL113463  16.536   6.866   5.502  0.3275 -0.0889 -0.0178
  915YOPE   GL213464  16.533   6.642   5.432  0.3495 -0.0197  0.0434
  915YOPE   C1A13465  16.388   6.827   5.867 -0.1473  0.0119 -0.2088
  915YOPE   D2A13466  16.463   7.059   6.212  0.0267  0.0250  0.1010
  915YOPE   C3A13467  16.649   6.942   6.603  0.0869 -0.1086  0.0315
  915YOPE   C4A13468  17.000   7.103   6.768  0.2014 -0.1420 -0.2332
  915YOPE   C1B13469  16.718   6.531   5.914  0.2190 -0.0305 -0.1515
  915YOPE   C2B13470  16.546   6.517   6.341 -0.2183 -0.1743 -0.1705
  915YOPE   D3B13471  16.741   6.538   6.802 -0.1425  0.1362 -0.1640
  915YOPE   C4B13472  16.994   6.697   7.086  0.2292 -0.0457  0.1641
  916YOPE   NH313473   2.378   2.961   4.764  0.0944  0.1985 -0.4598
  916YOPE   PO413474   2.050   3.059   4.930 -0.1539 -0.2451  0.0419
  916YOPE   GL113475   2.048   2.914   5.312 -0.1353 -0.1572  0.0386
  916YOPE   GL213476   2.163   2.572   5.205 -0.0664 -0.0355 -0.2691
  916YOPE   C1A13477   2.252   3.181   5.692  0.0323  0.1884 -0.0400
  916YOPE   D2A13478   2.102   3.619   5.724 -0.3111 -0.0955 -0.0824
  916YOPE   C3A13479   2.416   3.861   5.608 -0.1976 -0.5303 -0.2427
  916YOPE   C4A13480   2.439   4.256   5.593 -0.0597 -0.0375  0.0127
  916YOPE   C1B13481   1.818   2.435   5.524 -0.1369 -0.0457  0.0018
  916YOPE   C2B13482   1.834   2.450   5.936 -0.6208  0.0528 -0.0963
  916YOPE   D3B13483   1.870   2.019   6.248  0.4193  0.2757 -0.0621
  916YOPE   C4B13484   1.851   1.591   6.392  0.1179  0.0919  0.0417
  917YOPE   NH313485   2.910  13.038   5.651  0.1627 -0.0324 -0.0053
  917YOPE   PO413486   3.314  13.062   5.553  0.1718  0.0339 -0.1875
  917YOPE   GL113487   3.275  13.242   5.963 -0.1143 -0.1072 -0.1920
  917YOPE   GL213488   3.053  13.328   6.033 -0.1158  0.0266  0.0894
  917YOPE   C1A13489   3.440  13.197   6.386 -0.1622 -0.2342  0.1269
  917YOPE   D2A13490   3.373  13.396   6.771  0.4366 -0.3473  0.0610
  917YOPE   C3A13491   3.120  13.225   7.188 -0.0922 -0.0772  0.5579
  917YOPE   C4A13492   2.946  13.065   7.529  0.3092  0.0970  0.0737
  917YOPE   C1B13493   3.321  13.702   6.138  0.0107  0.0608 -0.3156
  917YOPE   C2B13494   3.294  14.098   6.566  0.2989 -0.2557  0.2320
  917YOPE   D3B13495   3.488  14.319   6.966 -0.2928 -0.0118  0.2697
  917YOPE   C4B13496   3.330  14.490   7.360  0.0448  0.2589  0.0417
  918YOPE   NH313497   6.020   0.813   4.851  0.1384  0.3087 -0.2102
  918YOPE   PO413498   5.866   0.429   4.807  0.1360  0.1885  0.0758
  918YOPE   GL113499   5.733   0.409   5.329 -0.0180  0.1478 -0.3683
  918YOPE   GL213500   5.935   0.734   5.447 -0.2181  0.4190 -0.0478
  918YOPE   C1A13501   6.028   0.261   5.651 -0.1040 -0.0251 -0.1676
  918YOPE   D2A13502   6.408   0.053   5.848 -0.0651  0.0135 -0.0965
  918YOPE   C3A13503   6.339   0.109   6.227 -0.0594 -0.3377 -0.4113
  918YOPE   C4A13504   6.424   0.398   6.649 -0.1875 -0.1240 -0.1518
  918YOPE   C1B13505   5.935   1.160   5.680 -0.1177  0.2102 -0.0380
  918YOPE   C2B13506   5.807   1.555   6.019 -0.2252  0.1789 -0.2674
  918YOPE   D3B13507   5.508   1.789   6.280  0.1939  0.1063  0.0386
  918YOPE   C4B13508   5.181   2.040   6.426 -0.3251  0.1511  0.1409
  919YOPE   NH313509   1.327  12.925   5.225 -0.0485 -0.2160 -0.1237
  919YOPE   PO413510   0.965  13.337   5.218  0.1104 -0.1251  0.1841
  919YOPE   GL113511   0.999  13.387   5.710 -0.1549 -0.0056  0.3723
  919YOPE   GL213512   1.113  13.610   5.890 -0.3191 -0.4100 -0.0177
  919YOPE   C1A13513   1.068  13.227   6.183 -0.1875 -0.1779 -0.0709
  919YOPE   D2A13514   1.193  13.428   6.530  0.1338 -0.0179 -0.0997
  919YOPE   C3A13515   1.266  13.393   6.944  0.1963  0.1350 -0.0764
  919YOPE   C4A13516   1.185  13.465   7.421 -0.0481 -0.2161 -0.0088
  919YOPE   C1B13517   1.198  13.853   6.166 -0.1436 -0.1373  0.0908
  919YOPE   C2B13518   1.060  13.975   6.546 -0.1369 -0.0586 -0.0711
  919YOPE   D3B13519   1.034  14.218   6.803  0.6511  0.0747 -0.1591
  919YOPE   C4B13520   0.740  14.421   7.224  0.0931  0.0020  0.3193
  920YOPE   NH313521  17.187  10.550   5.578 -0.2715  0.0878 -0.0561
  920YOPE   PO413522  16.722  10.485   5.630 -0.1401 -0.0137  0.0737
  920YOPE   GL113523  16.951  10.343   6.014 -0.1860 -0.2050 -0.0654
  920YOPE   GL213524  17.040  10.768   6.125 -0.1391  0.0752 -0.1420
  920YOPE   C1A13525  17.148  10.155   6.393  0.0443 -0.0266  0.0106
  920YOPE   D2A13526  17.025  10.180   6.781 -0.0259 -0.2571 -0.0540
  920YOPE   C3A13527  17.001   9.808   7.104  0.0452 -0.0490  0.3940
  920YOPE   C4A13528  17.105   9.380   7.102 -0.1982 -0.2908  0.0638
  920YOPE   C1B13529  16.584  10.931   6.322 -0.0459 -0.2247  0.2848
  920YOPE   C2B13530  16.335  11.007   6.727  0.0284 -0.1248  0.0695
  920YOPE   D3B13531  16.391  11.373   7.125 -0.1480  0.0088 -0.1133
  920YOPE   C4B13532  16.425  11.675   7.449  0.5124  0.3351  0.0766
  921YOPE   NH313533   6.998  14.339   5.531  0.1720  0.1132 -0.0053
  921YOPE   PO413534   6.918  14.715   5.228  0.1674 -0.2170  0.1295
  921YOPE   GL113535   6.741  14.796   5.670 -0.1583 -0.1156  0.1505
  921YOPE   GL213536   6.536  15.090   5.716  0.4518  0.2233  0.1723
  921YOPE   C1A13537   6.847  15.097   6.093 -0.0241  0.0314 -0.0989
  921YOPE   D2A13538   6.646  15.339   6.443 -0.0075 -0.1518  0.0608
  921YOPE   C3A13539   6.387  15.704   6.293 -0.4151  0.2673  0.1520
  921YOPE   C4A13540   6.023  15.645   6.007  0.0264  0.1209  0.0615
  921YOPE   C1B13541   6.241  15.137   6.133 -0.2541 -0.1457  0.0151
  921YOPE   C2B13542   6.108  15.130   6.623  0.2002  0.0460  0.2284
  921YOPE   D3B13543   5.969  15.105   7.050 -0.3353  0.0706 -0.0901
  921YOPE   C4B13544   6.023  15.205   7.466 -0.1253  0.2591  0.1766
  922YOPE   NH313545   6.963  17.127   5.223  0.0408  0.3762 -0.0058
  922YOPE   PO413546   7.423  16.899   5.274 -0.0311  0.1541  0.0624
  922YOPE   GL113547   7.563  16.758   5.636 -0.1379 -0.1900 -0.0254
  922YOPE   GL213548   7.465  16.769   5.884  0.0411  0.1881  0.0484
  922YOPE   C1A13549   7.923  16.964   6.021 -0.3306  0.0523  0.1301
  922YOPE   D2A13550   8.170  16.983   6.389 -0.0575 -0.3648  0.1261
  922YOPE   C3A13551   8.057  17.107   6.827  0.0125 -0.0947 -0.0012
  922YOPE   C4A13552   8.231  17.194   7.145 -0.3642 -0.0852  0.1829
  922YOPE   C1B13553   7.610  16.482   6.249 -0.1288  0.0140  0.0521
  922YOPE   C2B13554   7.587  16.152   6.453 -0.3789  0.4752  0.0221
  922YOPE   D3B13555   7.378  15.755   6.682  0.3459 -0.3381 -0.0356
  922YOPE   C4B13556   7.262  15.355   6.496  0.1423  0.0943  0.1188
  923YOPE   NH313557   5.768   4.874   4.427 -0.0402 -0.1342 -0.4713
  923YOPE   PO413558   5.789   4.382   4.331 -0.2112  0.0961  0.2248
  923YOPE   GL113559   5.937   4.456   4.722  0.0074  0.0264 -0.2599
  923YOPE   GL213560   6.266   4.451   4.733  0.2947 -0.1208 -0.3344
  923YOPE   C1A13561   6.016   4.534   5.151  0.1291 -0.0304 -0.2649
  923YOPE   D2A13562   6.314   4.550   5.531  0.0491  0.3202 -0.0605
  923YOPE   C3A13563   6.286   4.394   5.977 -0.0628 -0.0025  0.0572
  923YOPE   C4A13564   6.665   4.369   6.229 -0.0858  0.0300 -0.0571
  923YOPE   C1B13565   6.311   4.105   5.032 -0.4887  0.2867  0.1707
  923YOPE   C2B13566   6.662   4.230   5.323  0.4023  0.0374  0.3554
  923YOPE   D3B13567   7.079   4.217   5.539  0.4059  0.0815  0.1375
  923YOPE   C4B13568   7.411   4.023   5.498 -0.0706 -0.1263 -0.0869
  924YOPE   NH313569  15.119  19.136   6.169 -0.0575 -0.1306  0.1344
  924YOPE   PO413570  15.186  19.568   6.068  0.1537  0.1146  0.0976
  924YOPE   GL113571  15.001  19.515   6.533 -0.0276 -0.1265 -0.0989
  924YOPE   GL213572  15.066  19.228   6.679  0.2072  0.0040 -0.1899
  924YOPE   C1A13573  14.820  19.636   6.915  0.0341  0.3378 -0.2086
  924YOPE   D2A13574  14.567  19.807   7.179  0.1381 -0.0324  0.1843
  924YOPE   C3A13575  14.527  19.686   7.614  0.2066  0.1678  0.1627
  924YOPE   C4A13576  14.664  19.357   7.867 -0.0636  0.0740  0.1249
  924YOPE   C1B13577  15.125  19.252   7.138 -0.0222  0.2558 -0.3757
  924YOPE   C2B13578  15.059  19.532   7.410  0.1090  0.1562  0.0542
  924YOPE   D3B13579  15.156  19.386   7.860  0.0622 -0.2422 -0.0893
  924YOPE   C4B13580  14.970  19.146   8.222 -0.0318 -0.1088 -0.0787
  925YOPE   NH313581  10.553  12.770   5.585  0.3972 -0.2551 -0.0282
  925YOPE   PO413582  10.804  12.430   5.595 -0.2095 -0.1987 -0.1673
  925YOPE   GL113583  11.092  12.566   5.965 -0.0955 -0.4339  0.3346
  925YOPE   GL213584  10.897  12.668   6.101  0.0115 -0.0807 -0.5040
  925YOPE   C1A13585  11.391  12.673   6.365  0.1591 -0.1983 -0.0389
  925YOPE   D2A13586  11.703  12.515   6.720 -0.1258  0.0703  0.0657
  925YOPE   C3A13587  11.638  12.274   7.072  0.5034  0.0415  0.4250
  925YOPE   C4A13588  11.783  12.121   7.306 -0.0865 -0.0163 -0.2013
  925YOPE   C1B13589  10.501  12.635   6.364  0.0067 -0.1534  0.0608
  925YOPE   C2B13590  10.470  12.661   6.742 -0.0486  0.4625  0.3460
  925YOPE   D3B13591  10.727  12.960   6.917 -0.1981  0.4103 -0.0011
  925YOPE   C4B13592  10.935  13.300   7.032  0.1594 -0.0637  0.1351
  926YOPE   NH313593  13.110  13.239   6.117  0.3183 -0.0438 -0.2363
  926YOPE   PO413594  12.945  12.833   6.087  0.1771  0.3079 -0.1466
  926YOPE   GL113595  12.872  12.910   6.504 -0.3394  0.2437 -0.1332
  926YOPE   GL213596  12.708  13.182   6.477  0.2195  0.0494  0.0621
  926YOPE   C1A13597  12.840  12.930   6.940 -0.1153  0.0218  0.0365
  926YOPE   D2A13598  12.979  13.024   7.381  0.0534 -0.3136  0.0864
  926YOPE   C3A13599  13.068  13.417   7.677 -0.1773 -0.2501 -0.1715
  926YOPE   C4A13600  13.155  13.803   7.510  0.0569  0.0569  0.2131
  926YOPE   C1B13601  13.068  13.344   6.859 -0.0158  0.3337  0.0970
  926YOPE   C2B13602  13.233  13.417   7.207  0.2649 -0.2193 -0.0393
  926YOPE   D3B13603  13.576  13.488   7.488  0.1984 -0.1502 -0.1185
  926YOPE   C4B13604  13.850  13.334   7.738 -0.0075  0.1777 -0.1196
  927YOPE   NH313605  12.234  14.294   5.471  0.1743 -0.3033 -0.2002
  927YOPE   PO413606  12.500  14.675   5.653 -0.0587  0.1123  0.0667
  927YOPE   GL113607  12.282  14.887   5.941 -0.1225  0.0377  0.1794
  927YOPE   GL213608  12.354  15.147   5.884 -0.2436  0.3804 -0.0644
  927YOPE   C1A13609  11.879  14.834   6.100  0.0046  0.2865 -0.2196
  927YOPE   D2A13610  11.659  14.670   6.415 -0.2541  0.2165  0.1136
  927YOPE   C3A13611  11.536  14.717   6.898  0.0633  0.0134  0.1252
  927YOPE   C4A13612  11.336  15.056   7.171 -0.0283  0.0500 -0.2839
  927YOPE   C1B13613  12.555  15.313   6.327  0.1614 -0.0113  0.0206
  927YOPE   C2B13614  12.304  15.470   6.665 -0.0031 -0.0491  0.4744
  927YOPE   D3B13615  12.403  15.734   6.969  0.1140  0.2762  0.3506
  927YOPE   C4B13616  12.211  15.788   7.329  0.0258 -0.0141 -0.0363
  928YOPE   NH313617   4.320  11.087   5.307 -0.2449  0.2601 -0.0314
  928YOPE   PO413618   4.760  10.861   5.122  0.2434 -0.1420 -0.0486
  928YOPE   GL113619   4.634  10.656   5.543 -0.0718  0.0493 -0.1788
  928YOPE   GL213620   4.500  10.280   5.575  0.1275 -0.1811  0.2820
  928YOPE   C1A13621   4.592  10.806   5.927 -0.0040 -0.2508  0.4950
  928YOPE   D2A13622   4.610  10.692   6.373 -0.3707  0.3059  0.0988
  928YOPE   C3A13623   4.385  10.730   6.805  0.0136 -0.2872  0.3402
  928YOPE   C4A13624   4.452  10.917   7.134  0.1705 -0.0166 -0.0302
  928YOPE   C1B13625   4.744  10.293   5.979  0.4380  0.1518  0.0340
  928YOPE   C2B13626   4.780  10.048   6.441 -0.0869 -0.0567 -0.4403
  928YOPE   D3B13627   4.846  10.298   6.828  0.1295  0.2547 -0.2620
  928YOPE   C4B13628   4.558  10.407   7.151  0.2679  0.0609  0.1105
  929YOPE   NH313629  12.804  10.247   5.383  0.0371 -0.0821  0.1080
  929YOPE   PO413630  12.334  10.372   5.340  0.1422  0.2480 -0.1839
  929YOPE   GL113631  12.406  10.237   5.730  0.2786  0.2831  0.0521
  929YOPE   GL213632  12.277   9.973   5.696 -0.0052 -0.1315 -0.0366
  929YOPE   C1A13633  12.298  10.074   6.155  0.1234 -0.0791 -0.1587
  929YOPE   D2A13634  12.031  10.284   6.324  0.0976 -0.2555  0.1546
  929YOPE   C3A13635  11.751  10.311   6.678  0.2163  0.1017  0.2922
  929YOPE   C4A13636  11.411  10.057   6.913 -0.3329 -0.2031  0.0553
  929YOPE   C1B13637  11.874  10.002   5.964  0.1425 -0.2186  0.0716
  929YOPE   C2B13638  11.741   9.848   6.352  0.0114 -0.0706 -0.0251
  929YOPE   D3B13639  11.580   9.705   6.663  0.1039 -0.0090 -0.0823
  929YOPE   C4B13640  11.352   9.459   6.916 -0.1245  0.1020  0.0225
  930YOPE   NH313641   8.889   9.920   4.919 -0.3399  0.1637 -0.2749
  930YOPE   PO413642   8.538  10.119   4.883 -0.0957 -0.0140 -0.0654
  930YOPE   GL113643   8.444  10.116   5.317  0.1523 -0.1447 -0.2088
  930YOPE   GL213644   8.436  10.373   5.488  0.3277 -0.0413  0.0417
  930YOPE   C1A13645   8.195  10.008   5.743 -0.2949  0.0727  0.0530
  930YOPE   D2A13646   7.836  10.047   6.039 -0.0524  0.1603  0.2743
  930YOPE   C3A13647   7.446  10.079   6.221  0.0109 -0.1384 -0.1603
  930YOPE   C4A13648   7.405   9.821   6.617  0.0062  0.0864  0.1804
  930YOPE   C1B13649   8.405  10.667   5.915  0.0426  0.4284  0.1498
  930YOPE   C2B13650   8.374  10.533   6.315 -0.0726 -0.0719 -0.4260
  930YOPE   D3B13651   8.406  10.384   6.729  0.0996  0.0794 -0.2444
  930YOPE   C4B13652   8.661  10.235   6.977 -0.0478  0.2951 -0.1681
  931YOPE   NH313653   2.790  15.632   5.624  0.2450  0.1692  0.1124
  931YOPE   PO413654   2.420  15.706   5.353  0.0453  0.2147 -0.0251
  931YOPE   GL113655   2.310  15.682   5.893  0.2313  0.0492 -0.1724
  931YOPE   GL213656   2.614  15.729   6.088 -0.1520 -0.2292 -0.0586
  931YOPE   C1A13657   2.144  15.482   6.235  0.2440  0.0975 -0.1802
  931YOPE   D2A13658   2.168  15.479   6.721  0.5706  0.1903 -0.1720
  931YOPE   C3A13659   1.945  15.298   6.935  0.2324  0.3019 -0.2421
  931YOPE   C4A13660   1.698  15.370   7.243 -0.1220  0.0489  0.1839
  931YOPE   C1B13661   2.444  16.016   6.307  0.1337 -0.3353  0.2284
  931YOPE   C2B13662   2.390  16.527   6.495 -0.0794 -0.2290 -0.0753
  931YOPE   D3B13663   2.060  16.838   6.563  0.1006  0.1362 -0.2748
  931YOPE   C4B13664   2.216  17.295   6.783  0.2325  0.0939 -0.1372
  932POPC   NC313665  10.175  11.689   5.272  0.0099 -0.3064 -0.0801
  932POPC   PO413666  10.000  12.020   5.538 -0.0091  0.1060  0.1458
  932POPC   GL113667  10.213  11.850   5.861 -0.5301  0.5338  0.0151
  932POPC   GL213668  10.358  11.596   5.769 -0.1563  0.0973 -0.0524
  932POPC   C1A13669  10.446  11.770   6.290 -0.0788  0.1231 -0.0640
  932POPC   D2A13670  10.379  11.639   6.612 -0.0390 -0.2056 -0.1400
  932POPC   C3A13671  10.233  11.158   6.757 -0.0792 -0.0004 -0.1056
  932POPC   C4A13672   9.891  10.941   6.804  0.2746 -0.0214 -0.3424
  932POPC   C1B13673  10.491  11.252   6.091  0.2252 -0.0564  0.0358
  932POPC   C2B13674  10.635  10.951   6.474 -0.0077  0.1355 -0.0976
  932POPC   C3B13675  10.930  10.923   6.707 -0.3220  0.3215  0.2693
  932POPC   C4B13676  11.240  10.611   6.863  0.0649  0.0165  0.1473
  933POPC   NC313677   4.406   2.222   4.682 -0.0263 -0.1893 -0.2869
  933POPC   PO413678   3.989   2.331   4.910  0.3287 -0.1480  0.3048
  933POPC   GL113679   3.564   2.281   5.257 -0.0320  0.0173  0.1092
  933POPC   GL213680   3.455   2.015   5.375  0.1720  0.1889 -0.1082
  933POPC   C1A13681   3.297   2.538   5.621  0.1232 -0.4664  0.2749
  933POPC   D2A13682   3.094   2.535   5.993  0.1255  0.3504 -0.0126
  933POPC   C3A13683   2.804   2.922   6.163  0.0575 -0.0960  0.0318
  933POPC   C4A13684   2.385   3.153   6.174 -0.0327 -0.2257 -0.0530
  933POPC   C1B13685   3.162   2.049   5.648 -0.0341  0.0099  0.1956
  933POPC   C2B13686   3.063   2.035   6.012 -0.2680  0.3747  0.0111
  933POPC   C3B13687   2.920   2.093   6.370 -0.1673  0.1878 -0.2058
  933POPC   C4B13688   2.700   2.065   6.674  0.0782  0.0541  0.2260
  934POPC   NC313689  18.656  10.081   5.125  0.2514 -0.0207 -0.0395
  934POPC   PO413690  18.952  10.338   5.339  0.2078 -0.4535 -0.4511
  934POPC   GL113691  18.961  10.250   5.759  0.0255  0.1092  0.1787
  934POPC   GL213692  19.196  10.074   5.930 -0.0157 -0.1528 -0.0761
  934POPC   C1A13693  18.830  10.169   6.228 -0.0644 -0.0010 -0.0127
  934POPC   D2A13694  18.378  10.201   6.399 -0.2965  0.3963 -0.1086
  934POPC   C3A13695  18.120  10.051   6.758  0.0293 -0.1303  0.0186
  934POPC   C4A13696  17.985  10.103   7.186 -0.1906 -0.2820 -0.4556
  934POPC   C1B13697  19.396  10.201   6.207 -0.0423 -0.0953  0.3804
  934POPC   C2B13698  19.579  10.558   6.415 -0.2482 -0.1443  0.3567
  934POPC   C3B13699  19.673  10.897   6.653 -0.1777 -0.2041  0.0113
  934POPC   C4B13700  19.966  10.978   6.976  0.1353  0.2446 -0.1172
  935POPC   NC313701  14.139  14.738   5.723 -0.1048  0.0706  0.1392
  935POPC   PO413702  14.524  14.480   5.703  0.1633  0.2260 -0.2270
  935POPC   GL113703  14.600  14.688   6.097  0.0975  0.0556  0.3350
  935POPC   GL213704  14.264  14.806   6.242 -0.0097 -0.0706  0.1693
  935POPC   C1A13705  14.759  15.024   6.223  0.0599  0.4077 -0.2883
  935POPC   D2A13706  14.625  15.513   6.291  0.0048  0.0687 -0.1598
  935POPC   C3A13707  14.561  15.710   6.633  0.0052 -0.3201 -0.0173
  935POPC   C4A13708  14.545  15.675   7.046 -0.3997 -0.0792  0.1710
  935POPC   C1B13709  14.369  15.132   6.443  0.2752 -0.0587 -0.1071
  935POPC   C2B13710  14.743  15.216   6.762 -0.0702  0.0498  0.2080
  935POPC   C3B13711  14.756  15.273   7.199 -0.1666  0.1097  0.3528
  935POPC   C4B13712  14.703  15.361   7.664 -0.0610 -0.3691  0.1274
  936POPC   NC313713  13.988   2.813   5.376  0.0250  0.0492 -0.0628
  936POPC   PO413714  13.685   2.479   5.539  0.1006  0.0175  0.0937
  936POPC   GL113715  13.381   2.557   5.916  0.0393  0.1588 -0.0750
  936POPC   GL213716  13.063   2.318   5.874 -0.2153  0.2337 -0.2889
  936POPC   C1A13717  13.292   2.709   6.213  0.0595 -0.0184 -0.1831
  936POPC   D2A13718  13.088   2.988   6.473  0.0314  0.0452  0.0747
  936POPC   C3A13719  12.789   3.007   6.840 -0.0571 -0.0223 -0.0655
  936POPC   C4A13720  12.382   3.262   7.097 -0.1616  0.0688  0.1382
  936POPC   C1B13721  12.820   2.708   6.050 -0.3637 -0.0081  0.1997
  936POPC   C2B13722  12.665   2.776   6.415 -0.2626  0.3263  0.1155
  936POPC   C3B13723  12.369   3.192   6.438 -0.1555  0.1436 -0.2690
  936POPC   C4B13724  12.040   3.336   6.764 -0.0613 -0.3050 -0.0324
  937POPC   NC313725  17.715   9.360   4.897 -0.0429 -0.2203 -0.1159
  937POPC   PO413726  17.555   9.463   5.260  0.1232  0.0938 -0.0030
  937POPC   GL113727  17.703   9.362   5.792 -0.1205  0.0634  0.0497
  937POPC   GL213728  17.460   9.028   5.834 -0.2253  0.1895 -0.0991
  937POPC   C1A13729  17.653   9.316   6.217 -0.1905  0.2593  0.3966
  937POPC   D2A13730  17.774   9.094   6.596  0.0443 -0.1102  0.1932
  937POPC   C3A13731  18.117   8.895   6.516 -0.0796 -0.1480  0.3354
  937POPC   C4A13732  18.441   8.705   6.165 -0.2023 -0.0691 -0.2634
  937POPC   C1B13733  17.700   8.778   6.141  0.0830 -0.0965 -0.0139
  937POPC   C2B13734  17.719   8.521   6.587  0.1630 -0.0328 -0.1170
  937POPC   C3B13735  17.752   8.101   6.649  0.0267  0.0831 -0.3920
  937POPC   C4B13736  17.625   7.790   6.947  0.2323  0.1152  0.2538
  938POPC   NC313737  14.332   4.279   4.581 -0.1109 -0.4547  0.2850
  938POPC   PO413738  14.436   4.035   4.967  0.2924  0.0772 -0.2717
  938POPC   GL113739  14.350   4.143   5.415 -0.1031 -0.1342 -0.0901
  938POPC   GL213740  14.526   4.422   5.443 -0.1881  0.2290 -0.1718
  938POPC   C1A13741  14.175   4.007   5.814 -0.0885 -0.0709 -0.1012
  938POPC   D2A13742  14.074   4.027   6.286 -0.2467 -0.0799 -0.1631
  938POPC   C3A13743  13.896   4.391   6.625 -0.2425  0.0626 -0.0432
  938POPC   C4A13744  13.964   4.439   7.031  0.0774 -0.4143 -0.0734
  938POPC   C1B13745  14.570   4.326   5.913  0.0094 -0.2026  0.2199
  938POPC   C2B13746  14.291   4.496   6.220  0.2705  0.3761 -0.1459
  938POPC   C3B13747  14.423   4.269   6.556 -0.0324  0.1939  0.2146
  938POPC   C4B13748  14.471   4.376   6.994  0.2484 -0.0505  0.0710
  939POPC   NC313749   8.665   6.586   4.160  0.1109  0.1670 -0.2725
  939POPC   PO413750   8.651   6.150   4.453  0.6206 -0.1230 -0.1724
  939POPC   GL113751   8.464   6.309   4.858  0.0295 -0.0685 -0.1060
  939POPC   GL213752   8.707   6.114   5.070  0.1529 -0.0911  0.2371
  939POPC   C1A13753   8.256   6.286   5.147  0.6663 -0.1588  0.0210
  939POPC   D2A13754   7.974   6.445   5.589  0.1223  0.2756  0.1410
  939POPC   C3A13755   7.600   6.521   5.389  0.0168 -0.0258 -0.0587
  939POPC   C4A13756   7.300   6.200   5.296  0.2749  0.0761  0.0852
  939POPC   C1B13757   8.753   6.127   5.551  0.1449  0.0263  0.3048
  939POPC   C2B13758   8.577   6.286   5.927 -0.0450  0.0735 -0.1903
  939POPC   C3B13759   8.549   6.421   6.336  0.2262 -0.0681 -0.5307
  939POPC   C4B13760   8.194   6.684   6.432 -0.2216  0.2890  0.2861
  940POPC   NC313761   1.483   7.437   4.686 -0.1590 -0.2797  0.3213
  940POPC   PO413762   1.349   7.689   4.978  0.2400 -0.0605  0.0846
  940POPC   GL113763   1.120   7.547   5.280 -0.2308 -0.0003 -0.1032
  940POPC   GL213764   1.042   7.783   5.558 -0.1250  0.0586 -0.0261
  940POPC   C1A13765   1.216   7.284   5.648 -0.0784  0.0744  0.0525
  940POPC   D2A13766   1.514   7.028   5.786 -0.2369 -0.0045 -0.0473
  940POPC   C3A13767   1.500   6.777   6.117  0.1190 -0.0646  0.1109
  940POPC   C4A13768   1.455   6.582   6.504  0.0656 -0.0799 -0.1523
  940POPC   C1B13769   0.794   7.685   5.966  0.0888  0.0713 -0.1594
  940POPC   C2B13770   0.628   7.360   6.267  0.0408 -0.0682 -0.1839
  940POPC   C3B13771   0.689   7.283   6.728 -0.2666 -0.3694  0.0889
  940POPC   C4B13772   0.852   7.593   6.946 -0.0083  0.1935 -0.2108
  941POPC   NC313773   6.738  13.543   5.347  0.0088  0.0528  0.1733
  941POPC   PO413774   6.863  13.879   5.365  0.3682  0.2296  0.1038
  941POPC   GL113775   7.123  13.861   5.739 -0.4103  0.0539  0.2154
  941POPC   GL213776   7.488  13.726   5.908  0.2750 -0.4365 -0.0758
  941POPC   C1A13777   7.055  13.659   6.077  0.1389 -0.1364  0.0628
  941POPC   D2A13778   6.984  13.726   6.568 -0.0070 -0.0474 -0.2657
  941POPC   C3A13779   6.486  13.842   6.709 -0.3142 -0.0402 -0.0318
  941POPC   C4A13780   6.268  13.485   6.996  0.0202 -0.1381  0.0746
  941POPC   C1B13781   7.633  13.844   6.307 -0.1392 -0.0320 -0.2406
  941POPC   C2B13782   7.696  13.990   6.687 -0.0104  0.2468  0.1668
  941POPC   C3B13783   7.962  13.799   6.916  0.0093  0.1803  0.0093
  941POPC   C4B13784   8.071  13.775   7.403 -0.0800 -0.2130  0.3323
  942POPC   NC313785  14.230  16.160   5.297 -0.2572 -0.3558 -0.1558
  942POPC   PO413786  14.543  16.399   5.470 -0.1518 -0.0516  0.0343
  942POPC   GL113787  14.512  16.489   5.823 -0.0949 -0.0398 -0.0950
  942POPC   GL213788  14.272  16.426   5.948  0.1946  0.2440  0.1125
  942POPC   C1A13789  14.600  16.500   6.383  0.3259  0.1334  0.1503
  942POPC   D2A13790  14.510  16.690   6.832  0.2290  0.2781 -0.1028
  942POPC   C3A13791  14.179  16.995   6.862 -0.2094 -0.1338  0.4703
  942POPC   C4A13792  14.025  17.273   6.510 -0.3103  0.1957 -0.4069
  942POPC   C1B13793  14.263  16.166   6.330  0.3628 -0.1419 -0.3643
  942POPC   C2B13794  14.448  16.156   6.760 -0.1362  0.0592  0.3381
  942POPC   C3B13795  14.607  16.179   7.118  0.0020 -0.1913 -0.3030
  942POPC   C4B13796  14.623  15.938   7.505 -0.2177  0.0433  0.0681
  943POPC   NC313797   8.360   4.326   4.428  0.1257 -0.0481  0.0055
  943POPC   PO413798   7.920   4.187   4.271  0.0722  0.2296  0.0236
  943POPC   GL113799   8.059   4.074   4.699  0.0153 -0.3761 -0.1841
  943POPC   GL213800   7.780   4.282   4.809 -0.0586  0.1386  0.1963
  943POPC   C1A13801   8.016   3.863   4.995 -0.2422 -0.0350  0.0064
  943POPC   D2A13802   8.154   3.580   5.365 -0.0626 -0.4258  0.3192
  943POPC   C3A13803   8.041   3.657   5.695  0.3596 -0.1743 -0.1050
  943POPC   C4A13804   7.790   3.707   5.994 -0.0711  0.0178  0.1020
  943POPC   C1B13805   7.851   4.379   5.298 -0.0870 -0.1306  0.1052
  943POPC   C2B13806   7.525   4.517   5.688  0.0753  0.0020 -0.2954
  943POPC   C3B13807   7.248   4.430   6.081 -0.5241 -0.2292  0.1817
  943POPC   C4B13808   7.032   4.041   6.054  0.1064  0.1473  0.0884
  944POPC   NC313809   2.975   9.901   5.336  0.1618 -0.0400 -0.1628
  944POPC   PO413810   3.460   9.786   5.346 -0.3365 -0.0301  0.0199
  944POPC   GL113811   3.680   9.548   5.722 -0.1194  0.2469  0.1814
  944POPC   GL213812   3.355   9.478   5.809 -0.0202  0.3400 -0.3441
  944POPC   C1A13813   3.702   9.243   6.144 -0.0890  0.0947 -0.3352
  944POPC   D2A13814   3.968   9.221   6.546  0.0967 -0.0050  0.1742
  944POPC   C3A13815   4.223   8.915   6.703  0.3531 -0.1115 -0.1975
  944POPC   C4A13816   4.545   8.900   7.107 -0.1578  0.0071 -0.1236
  944POPC   C1B13817   3.306   9.491   6.173  0.0781 -0.3044 -0.2754
  944POPC   C2B13818   3.525   9.608   6.687  0.4964 -0.2499  0.0796
  944POPC   C3B13819   3.228   9.561   7.033 -0.3375 -0.1056  0.2390
  944POPC   C4B13820   3.070   9.637   7.493  0.0777  0.1708  0.2537
  945POPC   NC313821  14.709  12.267   5.631 -0.0047  0.0948  0.1524
  945POPC   PO413822  15.133  12.375   5.567  0.1485 -0.1615 -0.0496
  945POPC   GL113823  15.140  12.225   5.965 -0.0604  0.2561  0.1229
  945POPC   GL213824  14.897  12.298   6.187 -0.1296 -0.0731  0.1014
  945POPC   C1A13825  15.426  11.952   6.320  0.0793  0.0447 -0.2179
  945POPC   D2A13826  15.841  11.750   6.542  0.2924 -0.1120 -0.0399
  945POPC   C3A13827  15.800  11.619   7.038 -0.0984  0.0609  0.2372
  945POPC   C4A13828  15.951  11.413   7.390  0.0761 -0.7350 -0.4967
  945POPC   C1B13829  14.854  12.251   6.670  0.1536 -0.1609  0.1194
  945POPC   C2B13830  14.929  12.081   7.003 -0.0769 -0.1659  0.0296
  945POPC   C3B13831  14.923  11.676   7.179  0.3468  0.0151 -0.0232
  945POPC   C4B13832  14.483  11.408   7.172  0.1725  0.0511  0.1843
  946POPC   NC313833   4.102   0.655   4.445 -0.0717  0.2370 -0.3567
  946POPC   PO413834   4.229   0.871   4.848 -0.2009  0.0949 -0.0830
  946POPC   GL113835   4.243   0.911   5.362  0.0117  0.0440 -0.1525
  946POPC   GL213836   4.051   0.921   5.636 -0.1688  0.3392  0.1025
  946POPC   C1A13837   4.519   1.103   5.669  0.0260  0.0006 -0.0395
  946POPC   D2A13838   4.762   1.151   6.087  0.1945  0.1862  0.0345
  946POPC   C3A13839   4.365   1.174   6.294 -0.6451  0.1258 -0.0231
  946POPC   C4A13840   4.067   0.981   6.619 -0.2938 -0.1169 -0.1469
  946POPC   C1B13841   3.934   0.927   5.983 -0.0685  0.2269  0.2788
  946POPC   C2B13842   3.666   0.902   6.340  0.2766  0.0510 -0.1312
  946POPC   C3B13843   3.218   0.956   6.545  0.1236 -0.0153 -0.0463
  946POPC   C4B13844   3.150   1.159   6.974 -0.0958  0.0854  0.0839
  947POPC   NC313845  13.617  12.698   5.364 -0.1638  0.0917 -0.1210
  947POPC   PO413846  13.925  12.920   5.676 -0.1121 -0.2340 -0.1096
  947POPC   GL113847  14.137  13.079   6.092 -0.1339 -0.1544  0.0527
  947POPC   GL213848  13.901  13.000   6.320 -0.4263 -0.1292  0.0969
  947POPC   C1A13849  14.481  13.226   6.418 -0.1363 -0.1019 -0.1322
  947POPC   D2A13850  14.406  13.251   6.750  0.1180 -0.0816  0.0099
  947POPC   C3A13851  14.677  13.027   7.096 -0.1713 -0.0893  0.0790
  947POPC   C4A13852  14.987  12.797   7.354 -0.0696 -0.0776 -0.1689
  947POPC   C1B13853  13.873  12.603   6.410  0.1259  0.1450 -0.0188
  947POPC   C2B13854  14.180  12.506   6.779 -0.3509 -0.2428  0.1417
  947POPC   C3B13855  14.395  12.149   6.836 -0.4363  0.0497  0.2944
  947POPC   C4B13856  14.578  11.786   6.846  0.1271  0.2219 -0.1450
  948POPC   NC313857  15.528   5.510   5.246 -0.2623  0.0187 -0.0431
  948POPC   PO413858  15.800   5.750   4.973 -0.7361  0.2228  0.0323
  948POPC   GL113859  15.886   5.916   5.412 -0.0809 -0.2038 -0.1238
  948POPC   GL213860  15.864   6.292   5.427 -0.1104 -0.4141 -0.1203
  948POPC   C1A13861  16.169   5.769   5.736 -0.1055 -0.1552 -0.0436
  948POPC   D2A13862  16.422   5.644   5.610 -0.1405  0.0153 -0.0238
  948POPC   C3A13863  16.374   5.204   5.770 -0.3409 -0.1296  0.1042
  948POPC   C4A13864  16.347   5.068   6.164  0.0609 -0.0271  0.0196
  948POPC   C1B13865  15.702   6.181   5.856 -0.0122  0.2636  0.1891
  948POPC   C2B13866  15.553   6.225   6.310  0.1790 -0.2345 -0.1805
  948POPC   C3B13867  15.257   6.349   6.382 -0.0303 -0.0118 -0.2838
  948POPC   C4B13868  14.764   6.352   6.215  0.2195 -0.0302  0.0837
  949POPC   NC313869   2.760   5.730   4.075  0.1208  0.0491  0.2935
  949POPC   PO413870   2.740   5.643   4.423 -0.0814 -0.0772  0.0636
  949POPC   GL113871   2.831   5.755   4.887  0.0099  0.1548 -0.2683
  949POPC   GL213872   2.967   6.118   5.051  0.0510 -0.2687 -0.3710
  949POPC   C1A13873   2.859   5.495   5.305  0.0854  0.2214  0.0620
  949POPC   D2A13874   2.763   5.637   5.808  0.1525 -0.0193 -0.1056
  949POPC   C3A13875   3.289   5.696   5.946  0.1282  0.2335 -0.1744
  949POPC   C4A13876   3.621   6.063   6.064  0.2262 -0.1175 -0.2880
  949POPC   C1B13877   2.605   5.978   5.282 -0.2358 -0.3375 -0.1355
  949POPC   C2B13878   2.668   6.076   5.780  0.0307  0.0985 -0.0323
  949POPC   C3B13879   3.069   6.180   5.959 -0.2916  0.1668  0.2578
  949POPC   C4B13880   3.198   6.391   6.266 -0.1710  0.2252  0.0690
  950POPC   NC313881   7.464   1.088   4.368 -0.0136  0.0362 -0.1236
  950POPC   PO413882   7.760   0.750   4.497  0.1424  0.0890  0.0417
  950POPC   GL113883   7.579   1.031   4.817  0.1032  0.1963  0.1398
  950POPC   GL213884   7.501   0.804   5.001 -0.0288  0.1733  0.3278
  950POPC   C1A13885   7.771   1.439   5.189  0.2609  0.1547 -0.4178
  950POPC   D2A13886   7.746   1.353   5.603 -0.0679 -0.2944 -0.2199
  950POPC   C3A13887   7.579   1.481   6.001 -0.0608 -0.2770  0.0580
  950POPC   C4A13888   7.586   1.688   6.392 -0.0993  0.0839 -0.0331
  950POPC   C1B13889   7.466   0.961   5.401  0.1613 -0.2166  0.1037
  950POPC   C2B13890   7.409   0.941   5.880 -0.2819  0.3345  0.1836
  950POPC   C3B13891   7.488   0.985   6.291 -0.4287  0.1876  0.1033
  950POPC   C4B13892   7.245   0.977   6.735  0.0195 -0.0021  0.0030
  951POPC   NC313893   4.153   3.779   4.118 -0.1847 -0.1315 -0.0133
  951POPC   PO413894   4.077   4.028   4.528 -0.0062  0.1591  0.2457
  951POPC   GL113895   4.393   4.110   4.767  0.1138  0.2858 -0.0260
  951POPC   GL213896   4.688   4.305   4.874  0.3139 -0.1144  0.3566
  951POPC   C1A13897   4.363   4.335   5.201  0.1993 -0.1643  0.1917
  951POPC   D2A13898   4.540   4.726   5.345 -0.2308  0.1460 -0.0860
  951POPC   C3A13899   4.452   4.998   5.569 -0.0399 -0.1300  0.2786
  951POPC   C4A13900   4.335   5.422   5.802  0.2655 -0.2585 -0.0910
  951POPC   C1B13901   4.912   4.099   5.218 -0.2747  0.1773 -0.0068
  951POPC   C2B13902   4.763   4.277   5.578 -0.3837  0.0342  0.6638
  951POPC   C3B13903   4.837   4.252   6.061  0.4000 -0.0329  0.1190
  951POPC   C4B13904   4.831   4.579   6.469  0.2537 -0.2738  0.0512
  952POPC   NC313905   2.715  17.451   5.017  0.1487  0.0022  0.3391
  952POPC   PO413906   2.317  17.764   5.055  0.2024  0.2316 -0.3989
  952POPC   GL113907   2.278  18.102   5.326  0.0716  0.1642 -0.3909
  952POPC   GL213908   2.330  17.990   5.611  0.1601  0.1234  0.1929
  952POPC   C1A13909   2.289  18.479   5.642  0.0119  0.0912 -0.0011
  952POPC   D2A13910   2.169  18.820   5.993  0.1016  0.0083  0.0671
  952POPC   C3A13911   2.148  18.760   6.413  0.0432  0.2832  0.0056
  952POPC   C4A13912   2.351  18.694   6.831  0.3911 -0.0198  0.0228
  952POPC   C1B13913   2.278  18.046   6.009  0.0625 -0.2026 -0.0718
  952POPC   C2B13914   2.159  18.243   6.325 -0.0372 -0.0350 -0.2672
  952POPC   C3B13915   2.057  18.230   6.754 -0.0347 -0.1720  0.0755
  952POPC   C4B13916   1.945  18.157   7.198 -0.3947 -0.1714  0.2671
  953POPC   NC313917   6.022  18.029   5.456 -0.2023  0.3209  0.0934
  953POPC   PO413918   5.751  17.660   5.430  0.0249 -0.2723  0.1096
  953POPC   GL113919   5.902  17.642   5.818 -0.1229 -0.0126 -0.1026
  953POPC   GL213920   5.948  17.870   5.926 -0.0431  0.0435 -0.3972
  953POPC   C1A13921   5.656  17.614   6.270  0.0751 -0.2121  0.0051
  953POPC   D2A13922   5.460  17.755   6.571 -0.0839 -0.0997  0.1158
  953POPC   C3A13923   5.201  18.125   6.515  0.0310  0.1570 -0.2686
  953POPC   C4A13924   4.893  18.213   6.761 -0.0966  0.0653  0.0946
  953POPC   C1B13925   5.865  18.129   6.299  0.1210 -0.2393  0.2845
  953POPC   C2B13926   5.667  18.188   6.629 -0.3236 -0.0418 -0.0633
  953POPC   C3B13927   5.506  18.369   6.914 -0.0018 -0.0027  0.0165
  953POPC   C4B13928   5.411  18.682   7.154 -0.0155  0.2034  0.1039
  954POPC   NC313929   6.042   7.577   4.521  0.1626 -0.0168 -0.3675
  954POPC   PO413930   5.572   7.340   4.629 -0.4096  0.2008  0.2593
  954POPC   GL113931   5.397   7.297   5.015 -0.4532 -0.4570 -0.2005
  954POPC   GL213932   5.121   7.252   4.812  0.2257 -0.0479  0.1145
  954POPC   C1A13933   5.284   7.514   5.352 -0.0365 -0.1232  0.2853
  954POPC   D2A13934   5.233   7.426   5.823 -0.0857 -0.0281 -0.0315
  954POPC   C3A13935   5.155   7.655   6.269 -0.1410  0.1905 -0.1231
  954POPC   C4A13936   5.058   7.802   6.610 -0.0552 -0.0343  0.1925
  954POPC   C1B13937   5.007   7.074   5.294 -0.1230  0.1130  0.1498
  954POPC   C2B13938   4.754   7.055   5.696 -0.1622  0.2540 -0.2907
  954POPC   C3B13939   4.914   7.133   6.088  0.0599 -0.1446 -0.2019
  954POPC   C4B13940   4.740   6.847   6.395  0.0350 -0.2861 -0.1754
  955POPC   NC313941   6.550  10.709   5.214 -0.0744 -0.2891  0.1971
  955POPC   PO413942   6.297  10.342   5.100  0.1377 -0.1854  0.2108
  955POPC   GL113943   6.574  10.038   5.300  0.1253 -0.0482 -0.0329
  955POPC   GL213944   6.504   9.674   5.452 -0.0391 -0.3037 -0.1416
  955POPC   C1A13945   6.924   9.960   5.501 -0.0117 -0.3820  0.0051
  955POPC   D2A13946   7.102  10.263   5.753 -0.3639 -0.0840 -0.1393
  955POPC   C3A13947   7.477  10.515   5.878  0.0423  0.0513 -0.2303
  955POPC   C4A13948   7.798  10.530   6.131  0.1771 -0.1577 -0.4415
  955POPC   C1B13949   6.633   9.707   5.947 -0.1064  0.0046 -0.0344
  955POPC   C2B13950   6.717   9.797   6.443 -0.2164  0.1867 -0.1751
  955POPC   C3B13951   6.658   9.929   6.881  0.0308  0.1056  0.2883
  955POPC   C4B13952   6.660   9.820   7.337  0.0422  0.0118 -0.0962
  956POPC   NC313953  11.065   1.529   5.416 -0.0419  0.0359 -0.1344
  956POPC   PO413954  10.960   1.203   5.591  0.3058 -0.4204  0.1504
  956POPC   GL113955  10.742   1.537   5.872 -0.0194  0.1043  0.1509
  956POPC   GL213956  10.907   1.863   5.839  0.4252  0.0499  0.0301
  956POPC   C1A13957  10.475   1.766   6.147  0.0542  0.1887  0.1713
  956POPC   D2A13958  10.293   1.546   6.506 -0.0474  0.1176 -0.0794
  956POPC   C3A13959  10.008   1.611   6.783  0.1862 -0.2701 -0.1328
  956POPC   C4A13960   9.614   1.513   6.982 -0.2236 -0.0466 -0.0449
  956POPC   C1B13961  11.100   1.957   6.261  0.3504  0.1570 -0.0939
  956POPC   C2B13962  11.142   1.962   6.725  0.1467 -0.2950  0.0885
  956POPC   C3B13963  11.242   2.121   7.203 -0.0422  0.0878 -0.0633
  956POPC   C4B13964  11.084   1.900   7.624  0.0554 -0.0069 -0.0690
  957POPC   NC313965  10.817  16.591   5.465 -0.0720  0.2327  0.1043
  957POPC   PO413966  11.180  16.278   5.491  0.4687 -0.0902  0.1036
  957POPC   GL113967  11.123  16.505   5.881 -0.0687 -0.0176 -0.1942
  957POPC   GL213968  10.781  16.696   5.955 -0.1766 -0.2749 -0.0950
  957POPC   C1A13969  11.282  16.773   6.186 -0.0497 -0.0158 -0.2051
  957POPC   D2A13970  10.929  16.961   6.429  0.0389 -0.0331 -0.0995
  957POPC   C3A13971  11.066  17.082   6.838 -0.0510  0.1551  0.1791
  957POPC   C4A13972  11.231  16.845   7.272 -0.1109 -0.0783 -0.0255
  957POPC   C1B13973  10.498  16.805   6.264 -0.0028 -0.2657 -0.0775
  957POPC   C2B13974  10.343  16.752   6.681  0.0319 -0.0684  0.0156
  957POPC   C3B13975  10.224  16.413   6.866  0.0671  0.0940 -0.3417
  957POPC   C4B13976  10.492  16.397   7.163 -0.2174 -0.0720  0.2852
  958POPC   NC313977   9.567  16.074   5.184 -0.0779  0.2220 -0.1570
  958POPC   PO413978   9.567  15.504   5.323  0.3428  0.0227 -0.0216
  958POPC   GL113979   9.751  15.557   5.740 -0.1776 -0.0862  0.2271
  958POPC   GL213980   9.861  15.895   5.785  0.0147 -0.2031 -0.2619
  958POPC   C1A13981  10.091  15.345   6.030  0.2139  0.2520  0.0398
  958POPC   D2A13982  10.059  14.980   6.282  0.1485  0.1182  0.1835
  958POPC   C3A13983  10.148  14.549   6.186 -0.2126 -0.0043  0.3529
  958POPC   C4A13984  10.413  14.161   6.296 -0.1646  0.1342 -0.1337
  958POPC   C1B13985   9.820  15.929   6.177  0.0248 -0.0376  0.0177
  958POPC   C2B13986   9.522  15.793   6.385  0.0888  0.2541  0.2827
  958POPC   C3B13987   9.254  15.886   6.679  0.1132  0.2661  0.1631
  958POPC   C4B13988   8.880  15.862   6.725 -0.0351 -0.2054  0.1698
  959POPC   NC313989   5.291   2.064   4.627 -0.0273  0.2600 -0.1880
  959POPC   PO413990   4.856   1.936   4.490  0.1613 -0.0277  0.0588
  959POPC   GL113991   4.818   1.888   4.862 -0.3107 -0.1675 -0.0923
  959POPC   GL213992   4.945   1.546   4.781 -0.0351 -0.0119 -0.0625
  959POPC   C1A13993   4.905   2.030   5.391 -0.0407  0.1373 -0.1076
  959POPC   D2A13994   5.290   2.223   5.624  0.1575  0.0352 -0.2468
  959POPC   C3A13995   5.042   2.007   5.954  0.0345 -0.0405  0.2471
  959POPC   C4A13996   4.766   2.143   6.231  0.1216  0.1148  0.2714
  959POPC   C1B13997   5.000   1.432   5.340 -0.0590 -0.1507  0.0348
  959POPC   C2B13998   5.135   1.622   5.711 -0.0064  0.1209 -0.1086
  959POPC   C3B13999   5.471   1.810   5.758  0.1145  0.0057  0.0633
  959POPC   C4B14000   5.766   2.117   5.812  0.1271 -0.0762  0.4332
  960POPC   NC314001   6.474   2.146   4.108  0.0028  0.2888  0.0730
  960POPC   PO414002   6.411   2.533   4.071 -0.1088 -0.0820  0.0614
  960POPC   GL114003   6.442   2.656   4.502 -0.3471 -0.0710  0.2068
  960POPC   GL214004   6.554   2.848   4.713 -0.1613 -0.1164 -0.1096
  960POPC   C1A14005   6.141   2.556   4.837 -0.1064 -0.1953 -0.0759
  960POPC   D2A14006   6.103   2.553   5.276 -0.2165 -0.5591 -0.0822
  960POPC   C3A14007   6.049   2.684   5.709  0.2247  0.0800  0.0311
  960POPC   C4A14008   5.942   2.533   6.085 -0.4460  0.0922  0.0141
  960POPC   C1B14009   6.572   2.667   5.116  0.0752  0.0487  0.1526
  960POPC   C2B14010   6.647   2.333   5.330  0.0367  0.0111  0.1749
  960POPC   C3B14011   6.838   2.208   5.603 -0.3824 -0.0024  0.0020
  960POPC   C4B14012   6.761   2.222   6.063 -0.2478 -0.1466 -0.0360
  961POPC   NC314013   4.418   9.526   5.328  0.1180  0.1570 -0.5235
  961POPC   PO414014   4.060   9.250   5.385  0.2644  0.2586  0.0169
  961POPC   GL114015   3.980   9.008   5.804 -0.2136  0.3856  0.3647
  961POPC   GL214016   3.733   8.789   5.936  0.2093  0.1336  0.2300
  961POPC   C1A14017   4.348   8.822   6.127 -0.3393  0.1392 -0.3342
  961POPC   D2A14018   4.476   8.496   6.454 -0.0843 -0.2129  0.2337
  961POPC   C3A14019   4.007   8.429   6.779 -0.0583  0.0973  0.3419
  961POPC   C4A14020   3.635   8.187   6.902 -0.3610  0.0147  0.0230
  961POPC   C1B14021   3.786   8.748   6.369  0.1341 -0.0476  0.0967
  961POPC   C2B14022   3.709   8.874   6.799  0.0395  0.1508  0.0726
  961POPC   C3B14023   3.963   8.792   7.204  0.0528 -0.0039 -0.5045
  961POPC   C4B14024   4.203   9.067   7.395  0.1652  0.2456  0.2839
  962POPC   NC314025  12.831  17.892   5.264  0.0510 -0.1745 -0.1486
  962POPC   PO414026  12.995  18.007   5.703  0.0523  0.1766 -0.0596
  962POPC   GL114027  12.892  18.289   5.977  0.3880  0.3046 -0.2857
  962POPC   GL214028  12.604  18.194   6.154  0.2648  0.2072  0.3698
  962POPC   C1A14029  13.113  18.466   6.322  0.0557 -0.1850  0.0879
  962POPC   D2A14030  13.223  18.419   6.752 -0.1911  0.1714  0.2474
  962POPC   C3A14031  12.805  18.611   7.021 -0.3462  0.1118 -0.0748
  962POPC   C4A14032  12.865  19.124   7.222 -0.1076 -0.1235  0.2786
  962POPC   C1B14033  12.779  17.903   6.483 -0.0514 -0.0536 -0.1946
  962POPC   C2B14034  12.905  17.661   6.863 -0.0898 -0.0964 -0.1150
  962POPC   C3B14035  13.115  17.303   6.791 -0.0777 -0.0162  0.2885
  962POPC   C4B14036  13.315  17.027   7.119 -0.0771  0.3113  0.0013
  963POPC   NC314037  16.284   2.300   5.434 -0.1835 -0.0898 -0.2487
  963POPC   PO414038  16.199   2.732   5.356 -0.0303 -0.0860  0.0210
  963POPC   GL114039  16.297   2.971   5.775 -0.1276  0.0313  0.1333
  963POPC   GL214040  16.549   3.282   5.818 -0.0355  0.2000 -0.0146
  963POPC   C1A14041  16.531   3.006   6.250  0.0890 -0.3130 -0.6093
  963POPC   D2A14042  16.659   3.116   6.655  0.0545 -0.0202 -0.1118
  963POPC   C3A14043  16.750   3.298   7.113  0.1683  0.0711  0.3727
  963POPC   C4A14044  16.546   3.357   7.530 -0.1037  0.0120  0.1955
  963POPC   C1B14045  16.844   2.870   5.916 -0.1373 -0.1223  0.2377
  963POPC   C2B14046  16.755   2.570   6.230  0.1991 -0.1574  0.2982
  963POPC   C3B14047  16.695   2.601   6.673 -0.1077  0.0098  0.3065
  963POPC   C4B14048  16.822   2.723   7.040 -0.0133  0.1685 -0.1982
  964POPC   NC314049   5.078   2.666   4.237  0.2105 -0.2147 -0.2387
  964POPC   PO414050   5.231   2.985   4.546  0.0070  0.1856 -0.0176
  964POPC   GL114051   5.183   2.829   4.947  0.1881  0.1089  0.2218
  964POPC   GL214052   4.904   3.075   5.190 -0.0860  0.1151 -0.0277
  964POPC   C1A14053   5.302   2.454   5.136 -0.0837 -0.1328 -0.1785
  964POPC   D2A14054   5.278   2.016   5.141  0.1204 -0.1506 -0.1057
  964POPC   C3A14055   5.603   1.798   5.154 -0.1030  0.2880 -0.0349
  964POPC   C4A14056   5.964   1.701   5.364 -0.0365 -0.1859  0.0984
  964POPC   C1B14057   5.215   3.348   5.534  0.0033  0.3422  0.1584
  964POPC   C2B14058   5.312   3.419   5.977  0.3108  0.0473  0.2588
  964POPC   C3B14059   5.636   3.398   6.249  0.0648 -0.0649 -0.1577
  964POPC   C4B14060   5.752   3.094   6.585 -0.2164 -0.2400 -0.0298
  965POPC   NC314061   1.411  19.286   4.938 -0.3274 -0.0597  0.3152
  965POPC   PO414062   1.671  19.541   4.947 -0.2778  0.0499 -0.2421
  965POPC   GL114063   1.889  19.553   5.364 -0.0625  0.0114  0.1916
  965POPC   GL214064   2.126  19.436   5.366  0.1583 -0.1444 -0.1334
  965POPC   C1A14065   1.745  19.565   5.770  0.0826  0.1873  0.3258
  965POPC   D2A14066   2.092  19.730   5.980 -0.2235 -0.2139 -0.1055
  965POPC   C3A14067   2.175  19.329   6.283 -0.1809 -0.2156 -0.0744
  965POPC   C4A14068   2.168  19.160   6.671  0.2925  0.1529 -0.3050
  965POPC   C1B14069   2.059  19.211   5.745 -0.3197  0.0774  0.1560
  965POPC   C2B14070   1.759  19.233   6.094  0.0474  0.0098 -0.1258
  965POPC   C3B14071   1.492  19.190   6.516 -0.0356 -0.0136 -0.1442
  965POPC   C4B14072   1.447  19.426   6.836  0.4734  0.2679  0.0672
  966POPC   NC314073   9.509   0.677   5.210 -0.2426 -0.0354 -0.0485
  966POPC   PO414074   9.738   0.371   5.483  0.0029 -0.3016 -0.0870
  966POPC   GL114075   9.438   0.685   5.746  0.2037  0.0932  0.5689
  966POPC   GL214076   9.239   0.913   5.579 -0.2304 -0.2284 -0.3162
  966POPC   C1A14077   9.402   0.932   6.070 -0.2489  0.0738 -0.1244
  966POPC   D2A14078   9.567   1.066   6.298 -0.2246  0.2005  0.0625
  966POPC   C3A14079   9.615   1.451   6.446  0.2545 -0.1457  0.1632
  966POPC   C4A14080   9.457   1.802   6.225  0.2321  0.0057 -0.2407
  966POPC   C1B14081   9.236   1.411   5.612 -0.3279  0.1032  0.0094
  966POPC   C2B14082   9.165   1.611   5.883 -0.2381 -0.0600  0.2569
  966POPC   C3B14083   9.117   2.075   5.918  0.1282  0.1402 -0.1534
  966POPC   C4B14084   9.145   2.527   5.698 -0.0405  0.0727  0.2536
  967POPC   NC314085   4.289   1.179   4.468 -0.0811  0.1065  0.0900
  967POPC   PO414086   3.989   1.555   4.540 -0.1022 -0.2358 -0.0874
  967POPC   GL114087   3.992   1.778   4.893  0.0416  0.2546 -0.0868
  967POPC   GL214088   4.266   1.926   5.080 -0.0970 -0.2274  0.1899
  967POPC   C1A14089   3.879   1.776   5.328  0.0659 -0.0425  0.0862
  967POPC   D2A14090   3.939   2.034   5.679  0.0474  0.0664  0.1525
  967POPC   C3A14091   3.596   2.149   5.922 -0.3115  0.0537 -0.0233
  967POPC   C4A14092   3.602   2.248   6.280  0.0956  0.2583 -0.1321
  967POPC   C1B14093   4.378   1.923   5.482 -0.0182 -0.3039  0.0948
  967POPC   C2B14094   4.630   1.763   5.837  0.0812 -0.1464  0.1328
  967POPC   C3B14095   4.856   1.606   6.270 -0.0745  0.1489 -0.1643
  967POPC   C4B14096   5.132   1.517   6.646  0.2035 -0.4807 -0.1388
  968POPC   NC314097   0.358  19.287   4.749 -0.6072 -0.3197 -0.1427
  968POPC   PO414098   0.384  19.167   5.251  0.3101  0.1059  0.3943
  968POPC   GL114099   0.289  19.210   5.639 -0.0790 -0.4841 -0.1440
  968POPC   GL214100  -0.059  19.204   5.649 -0.0568 -0.0122  0.0501
  968POPC   C1A14101   0.251  19.445   5.980  0.0754 -0.1960 -0.2292
  968POPC   D2A14102   0.207  19.559   6.437 -0.1100  0.3422  0.1083
  968POPC   C3A14103  -0.062  19.488   6.799 -0.1446  0.0840  0.1573
  968POPC   C4A14104  -0.150  19.284   7.179 -0.0781 -0.2272  0.1770
  968POPC   C1B14105  -0.315  19.348   5.998 -0.4190 -0.2467 -0.0420
  968POPC   C2B14106  -0.553  19.371   6.456 -0.1866 -0.0491 -0.1757
  968POPC   C3B14107  -0.562  19.581   6.902 -0.2373  0.0651 -0.0170
  968POPC   C4B14108  -0.338  19.749   7.285 -0.2578 -0.3812  0.0236
  969POPC   NC314109   0.555  13.323   5.547 -0.0105 -0.1086  0.2504
  969POPC   PO414110   0.675  13.720   5.416 -0.2252  0.1362  0.3794
  969POPC   GL114111   0.665  13.767   5.748 -0.2035 -0.3263 -0.2442
  969POPC   GL214112   0.392  13.722   5.824 -0.0207 -0.0416  0.1652
  969POPC   C1A14113   0.715  13.667   6.267 -0.1469  0.3309 -0.0139
  969POPC   D2A14114   0.748  13.563   6.694  0.3606  0.0515 -0.1050
  969POPC   C3A14115   0.741  13.910   7.011  0.1751  0.0206 -0.0809
  969POPC   C4A14116   1.045  14.018   7.251  0.1324 -0.2212 -0.1204
  969POPC   C1B14117   0.306  14.113   5.899 -0.1179  0.2042 -0.2124
  969POPC   C2B14118   0.170  14.337   6.271 -0.3519 -0.0204 -0.1625
  969POPC   C3B14119   0.243  14.797   6.513 -0.0639 -0.0227 -0.1605
  969POPC   C4B14120   0.423  15.178   6.775 -0.0058  0.0293  0.3333
  970POPC   NC314121   1.708  13.767   5.072  0.1427  0.3147  0.0639
  970POPC   PO414122   1.688  13.866   5.493 -0.0472 -0.2654  0.0457
  970POPC   GL114123   1.295  14.088   5.757  0.1538  0.0739  0.0891
  970POPC   GL214124   1.348  14.393   5.866  0.1962  0.1763 -0.2134
  970POPC   C1A14125   0.878  14.202   5.968  0.0559 -0.0084 -0.0065
  970POPC   D2A14126   0.631  14.160   6.300  0.2397 -0.1665  0.1834
  970POPC   C3A14127   0.607  14.392   6.718  0.0611 -0.1679  0.0311
  970POPC   C4A14128   0.757  14.836   6.974 -0.0866  0.0315 -0.1421
  970POPC   C1B14129   1.264  14.405   6.319  0.3651  0.1745  0.0707
  970POPC   C2B14130   1.493  14.565   6.644 -0.2048  0.0329 -0.0895
  970POPC   C3B14131   1.347  14.585   7.165  0.1233  0.2159 -0.4224
  970POPC   C4B14132   1.085  14.759   7.500 -0.0088 -0.2504  0.1662
  971YOPC   NC314133   8.389   8.675   4.652 -0.0356  0.0926  0.1880
  971YOPC   PO414134   8.082   9.034   4.651 -0.1328  0.0448  0.1509
  971YOPC   GL114135   7.990   8.875   5.039  0.3547  0.1161 -0.0110
  971YOPC   GL214136   8.266   8.566   5.097 -0.1799 -0.1076  0.2811
  971YOPC   C1A14137   7.910   8.970   5.433  0.2446 -0.0672 -0.0432
  971YOPC   D2A14138   7.777   8.916   5.823 -0.2226 -0.1212  0.1989
  971YOPC   C3A14139   7.909   8.430   6.081 -0.2176  0.0735  0.0072
  971YOPC   C4A14140   8.000   8.044   5.998 -0.1672 -0.0064  0.1939
  971YOPC   C1B14141   8.563   8.757   5.433  0.1273  0.0613  0.2873
  971YOPC   C2B14142   8.986   8.791   5.683  0.0580 -0.0133  0.1556
  971YOPC   D3B14143   9.056   8.865   6.171  0.2857 -0.1906  0.0584
  971YOPC   C4B14144   9.220   9.002   6.552  0.0026 -0.2205 -0.0916
  972YOPC   NC314145   7.621  13.223   5.138 -0.0059 -0.1896 -0.0349
  972YOPC   PO414146   8.014  13.323   5.307  0.3837 -0.0662 -0.0892
  972YOPC   GL114147   7.753  13.396   5.629  0.2196  0.1390 -0.0771
  972YOPC   GL214148   8.049  13.568   5.843 -0.1733  0.0853  0.0108
  972YOPC   C1A14149   7.828  13.057   5.909  0.3197 -0.2215 -0.1529
  972YOPC   D2A14150   8.099  12.791   6.285  0.3429 -0.1966 -0.2399
  972YOPC   C3A14151   8.345  12.996   6.415 -0.1019  0.0167 -0.2589
  972YOPC   C4A14152   8.693  12.902   6.696 -0.0480  0.0992 -0.1283
  972YOPC   C1B14153   8.230  13.317   6.008  0.2570 -0.0850  0.0607
  972YOPC   C2B14154   8.395  13.003   5.832 -0.0877  0.2045  0.1405
  972YOPC   D3B14155   8.174  12.670   5.806  0.2548 -0.0879  0.0389
  972YOPC   C4B14156   7.816  12.503   5.733 -0.1547  0.1532 -0.1718
  973YOPC   NC314157  19.294  17.319   5.741 -0.2428  0.1226  0.2740
  973YOPC   PO414158  19.448  16.883   5.786 -0.1077 -0.0064  0.4143
  973YOPC   GL114159  19.347  16.898   6.108 -0.0261  0.1550  0.0931
  973YOPC   GL214160  19.325  17.202   6.219  0.0577  0.0601 -0.0376
  973YOPC   C1A14161  19.142  16.859   6.482  0.0680 -0.3066 -0.3071
  973YOPC   D2A14162  19.179  16.772   6.868  0.1739  0.1582  0.0791
  973YOPC   C3A14163  19.311  16.706   7.128  0.1166 -0.2085  0.0089
  973YOPC   C4A14164  19.689  16.590   7.298 -0.0900 -0.0781  0.3332
  973YOPC   C1B14165  19.480  17.194   6.626 -0.0936 -0.0716 -0.0737
  973YOPC   C2B14166  19.307  17.260   7.059 -0.0550 -0.0742 -0.0196
  973YOPC   D3B14167  19.207  17.694   7.179  0.2864  0.2610 -0.0718
  973YOPC   C4B14168  18.805  17.910   7.213  0.0075 -0.1391 -0.0687
  974YOPC   NC314169   0.186  11.719   5.854 -0.2872  0.0528  0.2206
  974YOPC   PO414170   0.051  12.183   5.917 -0.0988  0.2426  0.2294
  974YOPC   GL114171   0.084  12.120   6.321 -0.0514 -0.1540  0.1992
  974YOPC   GL214172   0.340  11.838   6.323  0.0411 -0.0119  0.2063
  974YOPC   C1A14173   0.194  12.266   6.649 -0.2184  0.0745 -0.0570
  974YOPC   D2A14174   0.334  12.614   6.933 -0.1301 -0.2255 -0.1047
  974YOPC   C3A14175   0.796  12.495   7.213  0.2173 -0.1278 -0.4829
  974YOPC   C4A14176   1.199  12.430   7.071 -0.0477 -0.0725 -0.1914
  974YOPC   C1B14177   0.054  11.692   6.662 -0.3144 -0.2204  0.0062
  974YOPC   C2B14178  -0.452  11.646   6.836  0.0842 -0.2611 -0.0837
  974YOPC   D3B14179  -0.516  11.682   7.289 -0.0261 -0.2382 -0.3188
  974YOPC   C4B14180  -0.805  11.791   7.618 -0.0181  0.1495  0.0142
  975YOPC   NC314181   3.756  15.770   5.481  0.3917  0.0485  0.1330
  975YOPC   PO414182   3.908  15.325   5.600 -0.2054 -0.0784  0.4685
  975YOPC   GL114183   3.758  15.121   6.015  0.0817  0.0188  0.1632
  975YOPC   GL214184   3.756  14.833   5.910  0.0850  0.1017 -0.1190
  975YOPC   C1A14185   3.734  15.376   6.365 -0.1432  0.3687  0.3132
  975YOPC   D2A14186   3.449  15.741   6.501 -0.4105 -0.2285 -0.0610
  975YOPC   C3A14187   3.431  15.937   6.873  0.2391 -0.0830 -0.0621
  975YOPC   C4A14188   3.417  15.723   7.223 -0.0237  0.0160 -0.0812
  975YOPC   C1B14189   3.810  14.855   6.441  0.0793 -0.1731  0.1195
  975YOPC   C2B14190   3.848  14.685   6.823 -0.0540  0.0910 -0.1001
  975YOPC   D3B14191   4.268  14.665   7.022 -0.0266  0.1162  0.2227
  975YOPC   C4B14192   4.654  14.898   7.329  0.1508 -0.0882  0.1989
  976YOPC   NC314193  19.446  15.226   5.593  0.1563 -0.1898  0.1828
  976YOPC   PO414194  19.160  15.615   5.490  0.3272 -0.2161 -0.0527
  976YOPC   GL114195  19.159  15.463   5.911 -0.0205  0.3848 -0.0535
  976YOPC   GL214196  19.023  15.238   5.980 -0.0204  0.2865 -0.0921
  976YOPC   C1A14197  19.457  15.659   6.231 -0.1974  0.1428  0.0144
  976YOPC   D2A14198  19.783  15.663   6.592 -0.3321  0.2047  0.0748
  976YOPC   C3A14199  19.637  15.458   7.064 -0.0875  0.0592  0.1829
  976YOPC   C4A14200  19.781  15.545   7.524  0.2658  0.0692 -0.0486
  976YOPC   C1B14201  19.020  14.949   6.311 -0.0699 -0.2655  0.2174
  976YOPC   C2B14202  19.003  14.993   6.743 -0.1198 -0.2098 -0.0860
  976YOPC   D3B14203  19.390  14.921   6.919 -0.3415  0.0035  0.4205
  976YOPC   C4B14204  19.749  14.777   7.017  0.0504  0.0231  0.2491
  977YOPC   NC314205  10.891  10.188   5.407 -0.2019  0.0008 -0.1490
  977YOPC   PO414206  10.874  10.563   5.650 -0.1509  0.4603  0.0231
  977YOPC   GL114207  10.583  10.293   5.801  0.0655  0.1395  0.1170
  977YOPC   GL214208  10.326  10.158   5.831  0.4310  0.2681 -0.0203
  977YOPC   C1A14209  10.382  10.552   6.153  0.0925  0.0740  0.1830
  977YOPC   D2A14210  10.186  10.751   6.467  0.3743 -0.3474  0.1397
  977YOPC   C3A14211   9.758  11.073   6.358  0.1684  0.1313 -0.2066
  977YOPC   C4A14212   9.484  11.245   6.078  0.0453  0.0721 -0.0284
  977YOPC   C1B14213  10.070   9.843   6.040  0.1743  0.0654 -0.2903
  977YOPC   C2B14214  10.171   9.420   6.244  0.0550  0.1340 -0.1578
  977YOPC   D3B14215  10.580   9.236   6.284  0.1169  0.0001 -0.2020
  977YOPC   C4B14216  10.858   8.915   6.097  0.0716 -0.0224  0.4560
  978YOPC   NC314217  10.560  17.404   5.151  0.1065  0.1845 -0.0326
  978YOPC   PO414218  10.365  17.682   5.636 -0.0420  0.0987  0.1931
  978YOPC   GL114219  10.515  17.951   5.961 -0.1199 -0.1705 -0.0633
  978YOPC   GL214220  10.398  18.313   5.918  0.1082  0.0231  0.0193
  978YOPC   C1A14221  10.382  17.937   6.371  0.1451 -0.3048  0.4006
  978YOPC   D2A14222  10.265  18.175   6.723  0.0566 -0.0668  0.0610
  978YOPC   C3A14223  10.077  18.070   7.139  0.1123 -0.0153  0.1143
  978YOPC   C4A14224  10.083  17.833   7.544  0.1063  0.1621  0.1176
  978YOPC   C1B14225  10.425  18.482   6.404 -0.0740  0.3933  0.1639
  978YOPC   C2B14226  10.266  18.739   6.770  0.0845  0.4380 -0.1581
  978YOPC   D3B14227  10.395  18.469   7.098 -0.1287  0.0512 -0.2076
  978YOPC   C4B14228  10.294  18.272   7.480 -0.0241 -0.2490  0.1011
  979YOPC   NC314229  11.026  14.719   4.951 -0.0166 -0.0204 -0.3792
  979YOPC   PO414230  10.746  14.558   5.351  0.2743 -0.0096 -0.1127
  979YOPC   GL114231  10.855  14.608   5.791  0.0061  0.1756  0.2567
  979YOPC   GL214232  10.702  14.850   6.099  0.0866 -0.1681  0.2026
  979YOPC   C1A14233  10.825  14.348   6.156  0.0962  0.0663  0.0052
  979YOPC   D2A14234  10.784  14.256   6.578 -0.2565  0.3211  0.0955
  979YOPC   C3A14235  10.480  13.981   6.853 -0.4212 -0.2114  0.2150
  979YOPC   C4A14236  10.070  14.238   7.127 -0.1066 -0.3580 -0.1844
  979YOPC   C1B14237  10.534  14.726   6.425  0.0802  0.1284  0.0518
  979YOPC   C2B14238  10.159  14.501   6.690  0.1077  0.2183 -0.2524
  979YOPC   D3B14239   9.778  14.628   7.179 -0.0946  0.0349 -0.1617
  979YOPC   C4B14240   9.847  14.419   7.636  0.1075 -0.0221  0.3076
  980YOPC   NC314241  19.442  10.211   5.483 -0.3421 -0.2354  0.0624
  980YOPC   PO414242  19.952  10.204   5.457  0.2218 -0.0954  0.0275
  980YOPC   GL114243  19.945   9.896   5.737  0.1327 -0.3078  0.0280
  980YOPC   GL214244  19.820  10.044   6.106  0.3170  0.0172  0.6070
  980YOPC   C1A14245  19.774   9.553   5.997 -0.1500  0.0808  0.0571
  980YOPC   D2A14246  19.799   9.346   6.453 -0.2273 -0.1076  0.0708
  980YOPC   C3A14247  19.867   8.895   6.482  0.2700  0.1063 -0.3118
  980YOPC   C4A14248  19.662   8.502   6.611 -0.2065 -0.1039  0.1591
  980YOPC   C1B14249  19.708  10.045   6.570  0.0746  0.3524  0.3337
  980YOPC   C2B14250  19.268  10.002   6.623  0.3887 -0.1255  0.1201
  980YOPC   D3B14251  19.037  10.222   6.918 -0.0006 -0.1267 -0.0913
  980YOPC   C4B14252  18.565  10.192   6.861 -0.6859 -0.0153 -0.0152
  981YOPC   NC314253   3.950   9.703   5.266  0.1985 -0.3277  0.2041
  981YOPC   PO414254   4.214  10.007   5.309 -0.1180  0.0161 -0.0825
  981YOPC   GL114255   4.096   9.927   5.725  0.2170 -0.3234  0.0832
  981YOPC   GL214256   3.986  10.255   5.870 -0.0189 -0.2642  0.4120
  981YOPC   C1A14257   4.023   9.619   6.158  0.1803  0.0207 -0.0005
  981YOPC   D2A14258   4.349   9.750   6.547 -0.2442 -0.1083  0.2335
  981YOPC   C3A14259   4.333  10.212   6.716  0.1664 -0.0933  0.0391
  981YOPC   C4A14260   4.014  10.527   6.607  0.0648 -0.0884 -0.0318
  981YOPC   C1B14261   3.690  10.024   5.982  0.2009  0.2002 -0.1523
  981YOPC   C2B14262   3.321  10.138   6.293  0.2088 -0.1169  0.3392
  981YOPC   D3B14263   3.290  10.125   6.674  0.3525 -0.3296 -0.3448
  981YOPC   C4B14264   3.050  10.061   7.012  0.0124  0.1766  0.2260
  982YOPC   NC314265   6.704   7.575   4.389  0.2143  0.5518 -0.1345
  982YOPC   PO414266   6.451   7.755   4.760 -0.1238  0.0031 -0.1581
  982YOPC   GL114267   6.405   7.873   5.111 -0.0619 -0.3146 -0.3583
  982YOPC   GL214268   6.583   8.048   5.154 -0.1666  0.1223 -0.0469
  982YOPC   C1A14269   6.334   7.993   5.582  0.0596  0.0049 -0.2144
  982YOPC   D2A14270   6.110   8.234   5.871  0.1929  0.0756  0.1410
  982YOPC   C3A14271   5.745   8.085   5.928 -0.1574 -0.2135  0.1779
  982YOPC   C4A14272   5.384   8.062   5.597 -0.2606 -0.1416  0.1818
  982YOPC   C1B14273   6.758   8.200   5.499  0.0087  0.0143  0.1374
  982YOPC   C2B14274   7.029   8.147   5.820 -0.0815 -0.1932  0.2124
  982YOPC   D3B14275   7.096   8.194   6.220  0.2915  0.2167  0.0707
  982YOPC   C4B14276   7.149   8.465   6.590 -0.3835 -0.2079 -0.0633
  983YOPC   NC314277  18.020   1.121   5.324  0.1034 -0.1058  0.1855
  983YOPC   PO414278  18.163   0.729   5.500  0.0212 -0.0117  0.1890
  983YOPC   GL114279  18.100   0.852   5.882  0.1852  0.1830 -0.5627
  983YOPC   GL214280  17.924   1.125   5.911 -0.0602 -0.0762 -0.0458
  983YOPC   C1A14281  18.177   0.932   6.331  0.1240  0.0360  0.4961
  983YOPC   D2A14282  17.999   0.986   6.782  0.3381 -0.1445  0.1180
  983YOPC   C3A14283  18.040   0.657   7.105 -0.0007 -0.0341 -0.2721
  983YOPC   C4A14284  18.025   0.345   7.194 -0.2871 -0.1986  0.0632
  983YOPC   C1B14285  18.082   1.396   6.135  0.1628 -0.2945  0.6311
  983YOPC   C2B14286  18.492   1.346   6.418 -0.0886 -0.0064 -0.1464
  983YOPC   D3B14287  18.520   1.104   6.828  0.1086  0.0395 -0.2356
  983YOPC   C4B14288  18.773   1.173   7.130  0.0517  0.1271 -0.0999
  984YOPC   NC314289   9.689  10.105   5.297 -0.0151  0.0485 -0.0701
  984YOPC   PO414290   9.974   9.785   5.442 -0.0404 -0.0211 -0.3927
  984YOPC   GL114291   9.797  10.170   5.760 -0.0094 -0.0389 -0.0936
  984YOPC   GL214292   9.855  10.459   5.622  0.0931 -0.3506 -0.3645
  984YOPC   C1A14293   9.480  10.295   6.222 -0.3684  0.1592  0.2181
  984YOPC   D2A14294   9.164  10.341   6.537 -0.2089 -0.1363 -0.1486
  984YOPC   C3A14295   9.305  10.446   7.002 -0.1790  0.0398  0.1187
  984YOPC   C4A14296   9.530  10.374   7.439 -0.2357 -0.2037 -0.4061
  984YOPC   C1B14297   9.879  10.598   6.102 -0.1790  0.0482  0.2482
  984YOPC   C2B14298   9.954  10.269   6.394  0.0626 -0.0826 -0.1111
  984YOPC   D3B14299   9.649  10.500   6.646 -0.2242 -0.3318  0.3576
  984YOPC   C4B14300   9.266  10.843   6.689 -0.0924 -0.0072  0.3542
  985YOPC   NC314301   4.834  17.587   5.194 -0.2989 -0.2535 -0.0221
  985YOPC   PO414302   4.913  17.959   5.448  0.2086 -0.1993  0.0560
  985YOPC   GL114303   5.017  18.051   5.880 -0.0224  0.0070 -0.0747
  985YOPC   GL214304   5.392  17.939   6.066  0.2580  0.1453 -0.1217
  985YOPC   C1A14305   4.813  18.175   6.246 -0.3082  0.0148  0.0992
  985YOPC   D2A14306   4.513  18.373   6.515 -0.0949 -0.1238 -0.4730
  985YOPC   C3A14307   4.288  18.285   6.777 -0.1738 -0.2025 -0.1659
  985YOPC   C4A14308   4.159  18.233   7.197 -0.1220  0.1133  0.1736
  985YOPC   C1B14309   5.558  18.367   6.016  0.0999 -0.0301 -0.0805
  985YOPC   C2B14310   5.706  18.886   5.848 -0.0154  0.1059 -0.0155
  985YOPC   D3B14311   5.512  19.230   5.818 -0.0516  0.0145  0.3633
  985YOPC   C4B14312   5.540  19.735   5.745  0.0041  0.3066  0.2781
  986YOPC   NC314313   8.853   4.256   4.238 -0.2487  0.2320  0.3477
  986YOPC   PO414314   8.632   3.891   4.338  0.1408 -0.4402  0.1119
  986YOPC   GL114315   8.818   3.792   4.748 -0.0589  0.1279 -0.0236
  986YOPC   GL214316   8.691   4.107   4.807 -0.5168  0.1364 -0.0680
  986YOPC   C1A14317   9.009   3.853   5.115  0.1361  0.2517 -0.0023
  986YOPC   D2A14318   9.371   3.896   5.284 -0.2684 -0.1153  0.2090
  986YOPC   C3A14319   9.312   3.619   5.695 -0.0356 -0.1547  0.0298
  986YOPC   C4A14320   9.283   3.053   5.614 -0.1025 -0.0638  0.1176
  986YOPC   C1B14321   8.534   3.912   5.184 -0.0012  0.2036  0.1972
  986YOPC   C2B14322   8.614   3.717   5.588 -0.1983 -0.2035  0.1853
  986YOPC   D3B14323   8.418   3.846   5.864 -0.1834 -0.1890 -0.1153
  986YOPC   C4B14324   8.186   4.033   6.156  0.2609 -0.2631 -0.2238
  987YOPC   NC314325   7.332   3.229   4.426 -0.0034 -0.0699 -0.0523
  987YOPC   PO414326   7.054   2.904   4.529  0.0349  0.1382 -0.1284
  987YOPC   GL114327   7.100   2.718   4.870 -0.0136 -0.0745 -0.0406
  987YOPC   GL214328   7.429   2.882   4.953  0.3039  0.2886  0.0851
  987YOPC   C1A14329   7.210   2.702   5.310  0.1406  0.1371  0.0659
  987YOPC   D2A14330   7.595   2.703   5.644 -0.0434  0.0878  0.1443
  987YOPC   C3A14331   7.520   2.883   6.002  0.0133  0.2035 -0.4342
  987YOPC   C4A14332   7.263   2.817   6.441 -0.1989  0.0444  0.2654
  987YOPC   C1B14333   7.646   3.110   5.276  0.0690 -0.0318 -0.3972
  987YOPC   C2B14334   8.011   3.082   5.482 -0.0189 -0.1355  0.1510
  987YOPC   D3B14335   8.073   2.746   5.874 -0.0435 -0.4671  0.1722
  987YOPC   C4B14336   7.915   2.574   6.319  0.0097  0.0126 -0.0185
  988YOPC   NC314337   6.819  15.750   5.828  0.0557  0.1226 -0.2781
  988YOPC   PO414338   7.257  15.565   5.814  0.0275  0.0855 -0.1097
  988YOPC   GL114339   7.118  15.894   6.206  0.3323 -0.0463  0.2713
  988YOPC   GL214340   7.218  16.247   6.171 -0.0761 -0.2484  0.1410
  988YOPC   C1A14341   6.800  15.867   6.506  0.1885 -0.1015  0.1973
  988YOPC   D2A14342   6.475  15.728   6.713  0.1495  0.1431  0.0947
  988YOPC   C3A14343   5.989  15.745   6.581 -0.1057  0.3217 -0.1152
  988YOPC   C4A14344   5.666  16.106   6.728  0.2598 -0.0599  0.0738
  988YOPC   C1B14345   7.132  16.256   6.657  0.4068  0.0075 -0.0196
  988YOPC   C2B14346   6.944  15.880   6.987 -0.2392 -0.0543  0.1674
  988YOPC   D3B14347   6.957  15.507   6.811 -0.2439 -0.1177  0.0608
  988YOPC   C4B14348   7.068  15.056   6.858 -0.0265  0.0625 -0.3638
  989YOPC   NC314349  14.923   3.284   4.603 -0.1799 -0.1459  0.3511
  989YOPC   PO414350  14.805   3.283   5.043 -0.2667 -0.2946  0.2120
  989YOPC   GL114351  14.571   3.208   5.451 -0.0588  0.0368  0.2420
  989YOPC   GL214352  14.722   3.137   5.770  0.1828  0.0161  0.1280
  989YOPC   C1A14353  14.252   3.336   5.695 -0.1689 -0.3278  0.1267
  989YOPC   D2A14354  13.797   3.108   5.717 -0.4426 -0.1544  0.0664
  989YOPC   C3A14355  13.654   3.060   6.054  0.3338  0.1387 -0.2845
  989YOPC   C4A14356  13.635   3.016   6.551 -0.0175  0.1177 -0.0178
  989YOPC   C1B14357  14.861   3.123   6.239 -0.0427  0.0073 -0.0884
  989YOPC   C2B14358  14.627   3.113   6.575  0.0250 -0.0185 -0.0429
  989YOPC   D3B14359  14.517   3.081   7.000 -0.4355  0.1139 -0.1086
  989YOPC   C4B14360  14.294   2.723   7.193  0.0945  0.0290 -0.0217
  990YOPC   NC314361   7.629  17.928   4.989  0.1581  0.1786  0.2113
  990YOPC   PO414362   8.056  18.063   5.091 -0.0762 -0.0724 -0.1221
  990YOPC   GL114363   8.030  18.062   5.499  0.2196  0.2059 -0.0225
  990YOPC   GL214364   8.028  17.761   5.671 -0.0807  0.2736  0.2838
  990YOPC   C1A14365   7.899  18.454   5.818 -0.1579 -0.1750 -0.0260
  990YOPC   D2A14366   8.042  18.569   6.113  0.2636 -0.3046  0.0786
  990YOPC   C3A14367   7.785  18.921   6.257 -0.0919  0.0956 -0.4624
  990YOPC   C4A14368   7.490  19.134   6.309 -0.1131 -0.0911 -0.1722
  990YOPC   C1B14369   8.026  18.056   5.988 -0.2288  0.1916 -0.2458
  990YOPC   C2B14370   8.079  18.171   6.400  0.1738 -0.2351  0.0347
  990YOPC   D3B14371   7.857  18.519   6.586  0.0379  0.0518  0.1324
  990YOPC   C4B14372   7.746  18.876   6.797 -0.0191 -0.0210 -0.0608
  991YOPC   NC314373  18.023  12.818   5.149  0.0340 -0.0276 -0.1673
  991YOPC   PO414374  18.340  12.879   5.432 -0.4793 -0.1386  0.3106
  991YOPC   GL114375  18.367  12.643   5.778 -0.1297  0.2012 -0.0835
  991YOPC   GL214376  18.085  12.755   5.904 -0.0469  0.0310 -0.0471
  991YOPC   C1A14377  18.301  12.345   6.223 -0.2074  0.1023 -0.0904
  991YOPC   D2A14378  18.556  11.992   6.217 -0.1870 -0.0223  0.5201
  991YOPC   C3A14379  18.740  11.573   6.277 -0.1422 -0.0394 -0.0835
  991YOPC   C4A14380  18.717  11.197   6.243 -0.0273  0.2447 -0.2648
  991YOPC   C1B14381  17.962  12.935   6.258 -0.1908 -0.0946  0.0418
  991YOPC   C2B14382  17.945  12.908   6.773 -0.2162  0.1092  0.2464
  991YOPC   D3B14383  17.728  13.224   6.988  0.0627  0.0229  0.0256
  991YOPC   C4B14384  17.435  13.570   6.836 -0.1434 -0.1457 -0.2743
  992YOPC   NC314385   5.146   1.080   4.533  0.1539  0.0787  0.2954
  992YOPC   PO414386   4.682   1.061   4.743  0.3968  0.0682  0.2309
  992YOPC   GL114387   4.694   1.119   5.173  0.0736 -0.0732  0.2098
  992YOPC   GL214388   4.952   0.861   5.338 -0.1515  0.0403  0.1336
  992YOPC   C1A14389   4.506   1.467   5.308 -0.1172 -0.0625  0.1946
  992YOPC   D2A14390   4.152   1.428   5.533  0.0762 -0.1156  0.2687
  992YOPC   C3A14391   4.155   1.511   5.941  0.2646 -0.3156 -0.0288
  992YOPC   C4A14392   3.930   1.339   6.278 -0.1073 -0.0177 -0.1834
  992YOPC   C1B14393   5.051   1.102   5.722  0.3356 -0.1414 -0.1701
  992YOPC   C2B14394   5.248   1.234   6.208 -0.1890 -0.0278 -0.0934
  992YOPC   D3B14395   5.641   1.045   6.176 -0.1979  0.1404  0.0561
  992YOPC   C4B14396   5.798   0.597   5.970 -0.0454  0.2070 -0.1378
  993YOPC   NC314397  17.416   0.497   5.333 -0.1421  0.0675 -0.1768
  993YOPC   PO414398  17.792   0.492   5.207  0.0162  0.4180 -0.2467
  993YOPC   GL114399  17.796   0.404   5.676  0.2396  0.0437  0.3387
  993YOPC   GL214400  18.056   0.284   5.860 -0.2597 -0.0089 -0.0697
  993YOPC   C1A14401  17.696  -0.063   5.949 -0.0412  0.0632  0.2295
  993YOPC   D2A14402  17.669  -0.452   5.744  0.1421  0.0743  0.0539
  993YOPC   C3A14403  18.021  -0.656   5.493 -0.2452  0.0391 -0.2359
  993YOPC   C4A14404  18.214  -1.012   5.585  0.0126 -0.0790  0.1485
  993YOPC   C1B14405  18.055   0.234   6.286  0.0565 -0.5180 -0.3911
  993YOPC   C2B14406  18.014   0.358   6.698 -0.0798 -0.0544 -0.0273
  993YOPC   D3B14407  17.689   0.061   6.983  0.1533 -0.0798 -0.0694
  993YOPC   C4B14408  17.883  -0.210   7.162  0.1868 -0.1310  0.0640
  994YOPC   NC314409   5.299  18.356   5.364  0.0335 -0.0601 -0.0415
  994YOPC   PO414410   5.101  18.777   5.495 -0.1921 -0.1510 -0.1326
  994YOPC   GL114411   4.828  18.666   5.841  0.0211 -0.1595 -0.5515
  994YOPC   GL214412   5.019  18.572   6.040 -0.1595  0.1376  0.0425
  994YOPC   C1A14413   4.492  18.726   6.061 -0.1100 -0.1173 -0.1835
  994YOPC   D2A14414   4.129  18.667   6.349  0.1101 -0.0418  0.1173
  994YOPC   C3A14415   4.172  18.821   6.788 -0.0014  0.5612  0.2846
  994YOPC   C4A14416   4.104  18.840   7.220 -0.0273 -0.2064  0.1609
  994YOPC   C1B14417   5.280  18.920   6.166  0.1011 -0.0992  0.2123
  994YOPC   C2B14418   5.619  19.227   6.342 -0.2353 -0.0151 -0.3763
  994YOPC   D3B14419   5.892  19.135   6.417 -0.0058  0.4553 -0.2312
  994YOPC   C4B14420   6.331  18.928   6.469 -0.3187 -0.2704 -0.2276
  995YOPC   NC314421   1.065   0.163   5.163 -0.2718 -0.1370 -0.2225
  995YOPC   PO414422   0.914   0.611   5.174 -0.3706 -0.3326  0.2254
  995YOPC   GL114423   1.029   0.444   5.527  0.1839 -0.3248 -0.2974
  995YOPC   GL214424   1.169   0.335   5.636  0.1363  0.5412  0.1259
  995YOPC   C1A14425   0.717   0.133   5.836 -0.5333  0.1743 -0.0344
  995YOPC   D2A14426   0.967   0.003   6.094 -0.0921  0.3082  0.0434
  995YOPC   C3A14427   1.226   0.323   6.288 -0.1707  0.1404  0.2464
  995YOPC   C4A14428   1.183   0.459   6.730 -0.2169 -0.3771 -0.0801
  995YOPC   C1B14429   1.548   0.444   5.965 -0.1755  0.2060  0.0164
  995YOPC   C2B14430   1.713   0.696   6.269 -0.2949  0.1416  0.0881
  995YOPC   D3B14431   1.572   0.798   6.674  0.0027 -0.0972  0.1446
  995YOPC   C4B14432   1.787   0.922   7.005  0.2500 -0.0085 -0.1758
  996YOPC   NC314433  18.365  14.103   5.557 -0.2419  0.2549  0.3553
  996YOPC   PO414434  18.054  14.299   5.657 -0.0508  0.3163  0.0975
  996YOPC   GL114435  17.965  14.166   6.076 -0.1495  0.0134 -0.0838
  996YOPC   GL214436  17.572  14.073   6.062  0.0140 -0.1410  0.0692
  996YOPC   C1A14437  18.028  13.881   6.400  0.3425 -0.0785 -0.2193
  996YOPC   D2A14438  17.904  13.625   6.795 -0.1017 -0.2819  0.1563
  996YOPC   C3A14439  18.152  13.365   6.632  0.2597  0.0460  0.0613
  996YOPC   C4A14440  18.272  13.485   6.193  0.1025  0.4471 -0.0843
  996YOPC   C1B14441  17.540  14.431   6.336 -0.2170  0.1229 -0.2088
  996YOPC   C2B14442  17.674  14.599   6.682  0.4808 -0.0297  0.1957
  996YOPC   D3B14443  17.971  14.464   6.888 -0.2464  0.1290  0.0046
  996YOPC   C4B14444  18.016  13.980   7.140 -0.1078 -0.2533  0.0982
  997YOPC   NC314445   6.576   9.706   4.867 -0.0062 -0.0036 -0.2487
  997YOPC   PO414446   6.370   9.389   5.073  0.2368  0.1078 -0.2824
  997YOPC   GL114447   6.043   9.444   5.404  0.0701  0.1358  0.0059
  997YOPC   GL214448   5.786   9.206   5.514  0.1056  0.2020  0.0668
  997YOPC   C1A14449   5.960   9.528   5.805 -0.2240  0.0749 -0.1671
  997YOPC   D2A14450   5.975   9.330   6.134 -0.0290 -0.0215  0.1627
  997YOPC   C3A14451   6.014   8.945   6.248  0.1833  0.0961  0.0541
  997YOPC   C4A14452   5.897   8.591   6.189  0.0843  0.1508 -0.0435
  997YOPC   C1B14453   5.524   8.914   5.626  0.0236  0.4978 -0.0683
  997YOPC   C2B14454   5.381   8.563   5.881 -0.2084 -0.3247  0.2038
  997YOPC   D3B14455   5.050   8.397   5.809  0.0149  0.1243  0.1578
  997YOPC   C4B14456   4.697   8.586   5.716 -0.0298  0.1184 -0.1192
  998YOPC   NC314457  15.368   2.170   5.166  0.1935  0.0969 -0.0991
  998YOPC   PO414458  15.824   2.072   5.326  0.1668  0.2056 -0.0625
  998YOPC   GL114459  15.666   2.067   5.640 -0.0804 -0.0541  0.0513
  998YOPC   GL214460  15.891   2.218   5.824  0.1053  0.0761  0.1038
  998YOPC   C1A14461  15.481   1.916   5.944 -0.3460  0.3521 -0.2748
  998YOPC   D2A14462  15.043   1.855   6.094  0.2270 -0.0930 -0.1610
  998YOPC   C3A14463  14.723   2.218   6.114  0.1089 -0.0098 -0.0968
  998YOPC   C4A14464  14.329   2.364   6.193  0.1651 -0.0481  0.0617
  998YOPC   C1B14465  15.702   2.332   6.118 -0.1710 -0.0218  0.3509
  998YOPC   C2B14466  15.690   2.673   6.339 -0.0548  0.0194  0.3202
  998YOPC   D3B14467  15.546   2.682   6.771 -0.1343 -0.0321  0.3888
  998YOPC   C4B14468  15.793   2.707   7.179  0.1825 -0.0879  0.1637
  999YOPC   NC314469   1.425   1.987   4.622  0.1730 -0.1967 -0.0302
  999YOPC   PO414470   1.039   1.901   4.836 -0.0710  0.0254  0.2553
  999YOPC   GL114471   1.085   2.140   5.280 -0.2533 -0.1186  0.0306
  999YOPC   GL214472   1.069   1.838   5.342 -0.4478 -0.0984 -0.1682
  999YOPC   C1A14473   1.449   2.115   5.563  0.0225  0.1080 -0.0957
  999YOPC   D2A14474   1.898   1.994   5.739 -0.1624  0.0713  0.0369
  999YOPC   C3A14475   2.274   2.240   5.707  0.0616 -0.2547  0.1043
  999YOPC   C4A14476   2.614   2.230   5.936  0.0601 -0.0226 -0.0632
  999YOPC   C1B14477   1.017   1.831   5.736 -0.0410 -0.0863 -0.1375
  999YOPC   C2B14478   0.872   1.936   6.128  0.4103  0.2250  0.0745
  999YOPC   D3B14479   0.584   2.161   6.352  0.3688  0.2280  0.0425
  999YOPC   C4B14480   0.459   2.542   6.447 -0.0965  0.2185 -0.0416
 1000YOPC   NC314481   9.681  19.075   4.876 -0.3611 -0.0881 -0.2565
 1000YOPC   PO414482   9.363  18.863   5.091 -0.0018  0.0191  0.0019
 1000YOPC   GL114483   9.358  18.921   5.445  0.0080 -0.0405  0.2511
 1000YOPC   GL214484   9.559  18.878   5.645 -0.0529 -0.2873  0.1767
 1000YOPC   C1A14485   9.013  18.742   5.759 -0.0607  0.2099 -0.1600
 1000YOPC   D2A14486   8.775  18.670   6.204 -0.0743  0.2009 -0.0721
 1000YOPC   C3A14487   8.815  18.912   6.602 -0.1884 -0.1758  0.1121
 1000YOPC   C4A14488   8.880  19.368   6.609  0.2481  0.0613  0.1222
 1000YOPC   C1B14489   9.447  18.867   6.001 -0.2252 -0.0088 -0.0164
 1000YOPC   C2B14490   9.346  19.072   6.400 -0.1060 -0.2478 -0.5135
 1000YOPC   D3B14491   9.296  19.437   6.307  0.1845 -0.2379  0.1267
 1000YOPC   C4B14492   9.405  19.683   6.009  0.0125 -0.1041 -0.2578
 1001YOPC   NC314493  16.887  16.111   5.399 -0.1548  0.1801 -0.1732
 1001YOPC   PO414494  17.280  16.202   5.460 -0.4153 -0.0963 -0.2634
 1001YOPC   GL114495  16.967  16.257   5.890 -0.3636  0.4360  0.3741
 1001YOPC   GL214496  16.712  15.957   5.868  0.2163 -0.2118  0.1986
 1001YOPC   C1A14497  16.921  16.386   6.321  0.0560  0.0646  0.2312
 1001YOPC   D2A14498  16.502  16.466   6.711 -0.2444 -0.0679  0.1939
 1001YOPC   C3A14499  16.364  16.645   7.139 -0.3375 -0.3765 -0.2374
 1001YOPC   C4A14500  16.532  16.522   7.594  0.0588 -0.0511 -0.3129
 1001YOPC   C1B14501  16.994  15.898   6.286 -0.3232  0.4735  0.0271
 1001YOPC   C2B14502  17.233  15.928   6.643 -0.1010  0.0961  0.1648
 1001YOPC   D3B14503  17.323  15.855   7.118 -0.1369  0.1494 -0.2340
 1001YOPC   C4B14504  17.264  15.930   7.541  0.1280 -0.0653  0.0465
 1002YOPC   NC314505  14.205  10.749   5.268 -0.1072 -0.1665  0.1083
 1002YOPC   PO414506  14.086  10.599   5.688  0.1290  0.1514 -0.2572
 1002YOPC   GL114507  14.193  10.367   5.969  0.1259 -0.0467 -0.2486
 1002YOPC   GL214508  14.559  10.518   6.067 -0.0072 -0.0870  0.1170
 1002YOPC   C1A14509  14.405  10.009   6.187  0.0697  0.2874  0.0684
 1002YOPC   D2A14510  14.843   9.780   6.187  0.2267  0.1644  0.1336
 1002YOPC   C3A14511  15.016   9.560   6.678 -0.0371  0.0845 -0.1277
 1002YOPC   C4A14512  15.271   9.236   6.882 -0.0734  0.2739  0.0763
 1002YOPC   C1B14513  14.753  10.262   6.409  0.0932  0.4502  0.3042
 1002YOPC   C2B14514  15.074  10.149   6.649  0.1991  0.3574 -0.2911
 1002YOPC   D3B14515  15.246   9.859   6.352  0.0082  0.2733  0.1737
 1002YOPC   C4B14516  15.356   9.514   6.203 -0.0631  0.1791 -0.1958
 1003YOPC   NC314517   4.629  18.443   5.419 -0.5595 -0.4184 -0.1130
 1003YOPC   PO414518   4.567  18.768   5.307 -0.2197 -0.0652  0.4179
 1003YOPC   GL114519   4.444  18.982   5.605  0.1256  0.1155 -0.1037
 1003YOPC   GL214520   4.135  18.994   5.728  0.2223 -0.2928 -0.0735
 1003YOPC   C1A14521   4.571  19.194   6.083  0.0903 -0.2604  0.0549
 1003YOPC   D2A14522   4.652  19.213   6.448  0.1227 -0.0319 -0.1561
 1003YOPC   C3A14523   5.100  19.116   6.571  0.0783 -0.0362  0.1670
 1003YOPC   C4A14524   5.375  19.158   6.796  0.1909 -0.0296  0.2172
 1003YOPC   C1B14525   4.088  19.101   6.166 -0.2175  0.2425  0.1339
 1003YOPC   C2B14526   3.899  19.132   6.580 -0.0013 -0.1464  0.3551
 1003YOPC   D3B14527   3.515  19.156   6.661  0.4925 -0.1610 -0.0383
 1003YOPC   C4B14528   3.207  18.899   6.977 -0.1436  0.0168  0.0799
 1004YOPC   NC314529   0.057   6.411   4.840 -0.1771 -0.2630  0.0266
 1004YOPC   PO414530   0.134   6.796   5.107 -0.0698 -0.0999 -0.1165
 1004YOPC   GL114531   0.096   6.658   5.542 -0.0807 -0.1780  0.1749
 1004YOPC   GL214532   0.453   6.533   5.675 -0.0788 -0.1560  0.1386
 1004YOPC   C1A14533  -0.047   6.491   5.984 -0.2559 -0.0937 -0.0581
 1004YOPC   D2A14534  -0.219   6.232   6.200 -0.0239  0.3230  0.1103
 1004YOPC   C3A14535   0.042   5.742   6.409  0.0617 -0.1988 -0.2526
 1004YOPC   C4A14536   0.158   5.438   6.638 -0.2360  0.2211  0.0609
 1004YOPC   C1B14537   0.349   6.887   5.913  0.1472  0.1711  0.0472
 1004YOPC   C2B14538   0.166   6.990   6.286  0.0504 -0.1184  0.3112
 1004YOPC   D3B14539   0.034   6.632   6.586 -0.1263  0.1886 -0.2580
 1004YOPC   C4B14540  -0.114   6.098   6.686 -0.0292 -0.0189 -0.1755
 1005YOPC   NC314541  12.615   3.494   4.925  0.4166  0.0249  0.1852
 1005YOPC   PO414542  12.321   3.287   5.199 -0.1384  0.0140  0.2212
 1005YOPC   GL114543  12.425   3.573   5.519 -0.0020 -0.0275 -0.1121
 1005YOPC   GL214544  12.755   3.671   5.460  0.0392 -0.1867 -0.0048
 1005YOPC   C1A14545  12.597   3.633   5.913  0.0193 -0.0123 -0.0499
 1005YOPC   D2A14546  12.414   3.658   6.254 -0.2118  0.1051  0.0365
 1005YOPC   C3A14547  12.192   4.030   6.439  0.0901  0.4198  0.0809
 1005YOPC   C4A14548  12.126   4.266   6.715 -0.2382  0.0419  0.3906
 1005YOPC   C1B14549  12.853   3.272   5.593  0.2065  0.0607 -0.0308
 1005YOPC   C2B14550  12.612   3.111   5.961  0.3933 -0.1408  0.0527
 1005YOPC   D3B14551  12.215   3.272   5.877 -0.1453  0.1458  0.3877
 1005YOPC   C4B14552  11.757   3.356   5.755 -0.2986  0.1170 -0.2164
 1006YOPC   NC314553   4.151  19.268   4.582 -0.3099  0.0614 -0.1717
 1006YOPC   PO414554   3.839  19.408   4.943 -0.1557  0.0889  0.1893
 1006YOPC   GL114555   3.880  19.522   5.352  0.0100  0.0822 -0.2099
 1006YOPC   GL214556   4.184  19.517   5.520  0.2350  0.3773  0.0668
 1006YOPC   C1A14557   3.838  19.362   5.811 -0.3394 -0.0144  0.0242
 1006YOPC   D2A14558   4.063  19.591   6.193  0.0060 -0.4175  0.0582
 1006YOPC   C3A14559   4.251  19.550   6.426  0.0503 -0.2795 -0.2282
 1006YOPC   C4A14560   4.203  19.508   6.790  0.1161  0.0486 -0.1771
 1006YOPC   C1B14561   4.444  19.673   5.895  0.1203 -0.2911 -0.0091
 1006YOPC   C2B14562   4.588  19.851   6.329 -0.1743 -0.2301 -0.2087
 1006YOPC   D3B14563   4.709  19.671   6.652  0.3277  0.0658  0.0981
 1006YOPC   C4B14564   4.644  19.600   7.134  0.0450  0.0974 -0.0388
 1007YOPC   NC314565   8.694   0.522   4.904  0.1200  0.0578 -0.2136
 1007YOPC   PO414566   9.021   0.823   5.033  0.2891  0.3158 -0.4134
 1007YOPC   GL114567   8.777   0.802   5.371  0.1668 -0.2293 -0.2780
 1007YOPC   GL214568   8.816   1.155   5.497  0.0631  0.1083  0.2727
 1007YOPC   C1A14569   8.828   0.525   5.782 -0.0314  0.3943  0.4724
 1007YOPC   D2A14570   8.979   0.697   6.205  0.0885  0.2854  0.1922
 1007YOPC   C3A14571   8.637   0.813   6.396 -0.0950  0.0943 -0.0824
 1007YOPC   C4A14572   8.561   0.883   6.841 -0.0984  0.0017 -0.0524
 1007YOPC   C1B14573   8.956   1.129   5.962  0.1929  0.2157 -0.1634
 1007YOPC   C2B14574   9.185   1.296   6.419 -0.1551 -0.1981 -0.0454
 1007YOPC   D3B14575   9.325   1.174   6.748 -0.0452  0.1340  0.0108
 1007YOPC   C4B14576   9.661   0.930   6.875  0.3480  0.1885 -0.1266
 1008YOPC   NC314577  13.039   6.309   4.792 -0.0628 -0.0112  0.1354
 1008YOPC   PO414578  13.348   6.133   5.124  0.2681 -0.0546 -0.0036
 1008YOPC   GL114579  13.485   6.390   5.401 -0.1627  0.0333  0.0014
 1008YOPC   GL214580  13.373   6.458   5.697 -0.1476  0.2928  0.3307
 1008YOPC   C1A14581  13.846   6.613   5.522 -0.3951 -0.1352  0.2602
 1008YOPC   D2A14582  13.908   6.598   5.952  0.1675  0.0749  0.2497
 1008YOPC   C3A14583  13.559   6.676   6.215 -0.0486  0.1046  0.3179
 1008YOPC   C4A14584  13.334   6.516   6.615  0.4578  0.1370 -0.0793
 1008YOPC   C1B14585  13.008   6.753   5.736  0.0497 -0.1035 -0.2289
 1008YOPC   C2B14586  13.098   6.908   6.163 -0.2104  0.0881 -0.2602
 1008YOPC   D3B14587  12.893   6.764   6.511  0.0696 -0.1539  0.5397
 1008YOPC   C4B14588  12.518   6.919   6.565  0.2227  0.0574 -0.0837
 1009YOPC   NC314589  14.875  13.223   5.594  0.1885  0.0527 -0.1952
 1009YOPC   PO414590  14.548  13.579   5.785  0.0295  0.0940  0.0239
 1009YOPC   GL114591  14.510  13.731   6.128 -0.1700  0.2173 -0.2552
 1009YOPC   GL214592  14.553  14.051   6.148  0.0582 -0.1077 -0.0960
 1009YOPC   C1A14593  14.421  13.791   6.555 -0.4578 -0.0855 -0.0197
 1009YOPC   D2A14594  14.194  13.646   6.972  0.4684  0.0595 -0.2320
 1009YOPC   C3A14595  13.824  13.804   7.132  0.0754 -0.1923  0.2276
 1009YOPC   C4A14596  13.539  14.034   7.320  0.0066  0.2948 -0.2147
 1009YOPC   C1B14597  14.354  14.297   6.558  0.0130  0.0938 -0.2677
 1009YOPC   C2B14598  14.125  14.498   6.852 -0.1895 -0.2266  0.0379
 1009YOPC   D3B14599  13.762  14.715   6.649  0.0154 -0.2928 -0.2250
 1009YOPC   C4B14600  13.238  14.588   6.635 -0.1881 -0.0830 -0.2498
 1010YOPC   NC314601   2.626  18.945   4.486 -0.1099 -0.1900 -0.3661
 1010YOPC   PO414602   2.997  19.275   4.623  0.0633  0.1691 -0.1588
 1010YOPC   GL114603   3.001  19.360   5.070 -0.1518 -0.4095  0.1018
 1010YOPC   GL214604   3.325  19.438   5.142  0.1279 -0.2904  0.2043
 1010YOPC   C1A14605   2.874  19.597   5.337  0.3224  0.2385  0.0148
 1010YOPC   D2A14606   2.878  19.659   5.884 -0.4236  0.1737 -0.1337
 1010YOPC   C3A14607   2.782  19.654   6.329  0.2411 -0.0362 -0.1517
 1010YOPC   C4A14608   2.490  19.562   6.708 -0.1782 -0.1074 -0.0716
 1010YOPC   C1B14609   3.293  19.373   5.580 -0.1597 -0.0074 -0.2839
 1010YOPC   C2B14610   3.368  19.313   6.104 -0.0299  0.3482  0.0435
 1010YOPC   D3B14611   3.088  19.044   6.233 -0.1684  0.2239 -0.2168
 1010YOPC   C4B14612   3.099  18.589   6.281 -0.0988 -0.1067 -0.0022
 1011YOPC   NC314613   8.732  16.406   5.139  0.0882  0.1739  0.1937
 1011YOPC   PO414614   9.165  16.369   5.333 -0.0814  0.1202  0.0673
 1011YOPC   GL114615   8.835  16.164   5.599  0.0794  0.0571  0.0874
 1011YOPC   GL214616   8.737  15.807   5.800 -0.1558 -0.1557  0.1821
 1011YOPC   C1A14617   8.466  16.163   5.913  0.1331 -0.0193 -0.1828
 1011YOPC   D2A14618   8.317  16.528   6.155  0.2030 -0.0918  0.1445
 1011YOPC   C3A14619   8.275  16.527   6.585 -0.3225  0.1116  0.2733
 1011YOPC   C4A14620   8.396  16.724   6.879 -0.3366 -0.2598  0.0288
 1011YOPC   C1B14621   8.734  15.882   6.245 -0.1761  0.3665 -0.1564
 1011YOPC   C2B14622   8.717  16.283   6.513  0.3733  0.4132  0.2408
 1011YOPC   D3B14623   8.686  16.733   6.449  0.0142 -0.1475  0.0727
 1011YOPC   C4B14624   8.597  17.135   6.181 -0.1234 -0.0384 -0.0810
 1012YOPC   NC314625   2.167  14.821   5.206 -0.0235  0.0928 -0.1105
 1012YOPC   PO414626   2.643  14.700   5.401  0.1360 -0.2506  0.0224
 1012YOPC   GL114627   2.452  14.789   5.772  0.1260  0.0424  0.0621
 1012YOPC   GL214628   2.609  14.685   6.066  0.0301  0.0753  0.0342
 1012YOPC   C1A14629   2.179  14.443   6.034  0.0048 -0.2042  0.4413
 1012YOPC   D2A14630   2.320  14.053   6.243  0.3014  0.1435 -0.3685
 1012YOPC   C3A14631   2.118  13.652   6.163 -0.1009 -0.0670 -0.1216
 1012YOPC   C4A14632   2.149  13.279   6.192  0.2539 -0.1897  0.0396
 1012YOPC   C1B14633   2.890  14.893   6.413 -0.0426 -0.1072 -0.0007
 1012YOPC   C2B14634   2.897  15.014   6.773 -0.3346  0.0117 -0.0688
 1012YOPC   D3B14635   2.729  14.633   7.052 -0.0141  0.0697  0.0149
 1012YOPC   C4B14636   2.607  14.235   7.213 -0.1515  0.0540  0.1094
 1013YOPC   NC314637  12.491  18.794   5.551 -0.1017  0.3619  0.1542
 1013YOPC   PO414638  12.878  18.668   5.501 -0.5428  0.2579  0.0501
 1013YOPC   GL114639  12.887  18.810   5.945  0.2815  0.1040  0.0339
 1013YOPC   GL214640  12.692  18.694   6.107 -0.2919 -0.0048  0.0524
 1013YOPC   C1A14641  13.231  19.016   6.226 -0.2113 -0.1198  0.2192
 1013YOPC   D2A14642  13.605  18.947   6.433 -0.2411 -0.0836  0.1250
 1013YOPC   C3A14643  13.547  19.226   6.748  0.1533  0.2505 -0.0683
 1013YOPC   C4A14644  13.713  19.302   7.244  0.4282 -0.0367  0.0976
 1013YOPC   C1B14645  12.641  18.518   6.528 -0.0446 -0.0035  0.0837
 1013YOPC   C2B14646  12.348  18.424   7.000  0.2959 -0.2725 -0.1183
 1013YOPC   D3B14647  11.941  18.658   7.112  0.1700 -0.0399 -0.0590
 1013YOPC   C4B14648  11.524  18.884   7.295 -0.4050  0.1744 -0.2136
 1014YOPC   NC314649   1.294  17.140   5.552 -0.0553  0.2596 -0.2436
 1014YOPC   PO414650   1.585  17.407   5.280  0.1019 -0.1175  0.0641
 1014YOPC   GL114651   1.858  17.179   5.614  0.1200  0.1155  0.1141
 1014YOPC   GL214652   1.733  17.079   5.906  0.1767 -0.3831 -0.0257
 1014YOPC   C1A14653   2.167  17.339   5.808 -0.2875 -0.1655  0.0437
 1014YOPC   D2A14654   2.347  17.576   5.889  0.1192  0.4087  0.0174
 1014YOPC   C3A14655   2.776  17.481   5.992 -0.1563 -0.1133  0.1031
 1014YOPC   C4A14656   3.214  17.646   5.903  0.1285 -0.0735  0.5260
 1014YOPC   C1B14657   1.993  17.228   6.286  0.1185  0.3394  0.2579
 1014YOPC   C2B14658   2.254  17.432   6.348  0.2132 -0.4511 -0.0793
 1014YOPC   D3B14659   2.708  17.503   6.552 -0.1230  0.2773 -0.1053
 1014YOPC   C4B14660   2.889  17.681   6.919 -0.4444  0.1611 -0.4598
 1015YOPC   NC314661   3.232  13.978   5.466 -0.1322 -0.2046 -0.0855
 1015YOPC   PO414662   3.047  13.570   5.483  0.0083  0.0992  0.0265
 1015YOPC   GL114663   2.929  13.826   5.881 -0.1666  0.0109  0.1156
 1015YOPC   GL214664   2.663  13.547   5.791 -0.4281  0.1610 -0.1650
 1015YOPC   C1A14665   2.890  13.871   6.353  0.1094 -0.0570  0.0838
 1015YOPC   D2A14666   3.024  13.754   6.777  0.0230  0.0164  0.3763
 1015YOPC   C3A14667   2.786  13.659   7.160 -0.3077  0.0395 -0.0997
 1015YOPC   C4A14668   2.801  13.558   7.477  0.2170  0.2493 -0.1140
 1015YOPC   C1B14669   2.593  13.508   6.211  0.1651  0.0083  0.0053
 1015YOPC   C2B14670   2.520  13.696   6.681 -0.0050 -0.2003 -0.3104
 1015YOPC   D3B14671   2.194  13.972   6.726 -0.0112 -0.0401 -0.2010
 1015YOPC   C4B14672   2.039  13.878   7.053  0.0747 -0.1601 -0.2063
 1016YOPC   NC314673   5.636  11.601   5.281 -0.1865 -0.4442  0.2075
 1016YOPC   PO414674   5.759  11.151   5.188  0.0857  0.0548  0.0746
 1016YOPC   GL114675   5.674  11.052   5.581  0.1374  0.0907  0.0939
 1016YOPC   GL214676   5.663  10.750   5.744  0.0022 -0.1743  0.3202
 1016YOPC   C1A14677   5.656  11.067   6.066  0.1701  0.1379  0.0709
 1016YOPC   D2A14678   5.960  11.098   6.443  0.2950 -0.1288 -0.2430
 1016YOPC   C3A14679   6.251  10.826   6.554  0.0793 -0.2107  0.2391
 1016YOPC   C4A14680   6.731  10.805   6.601  0.2653  0.1504 -0.3563
 1016YOPC   C1B14681   5.346  10.421   5.779 -0.1985 -0.0724  0.1905
 1016YOPC   C2B14682   5.383  10.286   6.311  0.1511 -0.0085 -0.1003
 1016YOPC   D3B14683   5.347   9.936   6.659 -0.1410 -0.1648 -0.0653
 1016YOPC   C4B14684   5.401   9.611   6.995 -0.2241  0.2085  0.0240
 1017YOPC   NC314685  14.178  14.080   5.825 -0.1791 -0.1356  0.2597
 1017YOPC   PO414686  13.769  13.843   5.953 -0.1121  0.2442 -0.1366
 1017YOPC   GL114687  13.533  13.813   6.257 -0.1493 -0.1146  0.2090
 1017YOPC   GL214688  13.743  13.979   6.494 -0.1636 -0.2703  0.0794
 1017YOPC   C1A14689  13.327  13.718   6.670 -0.0065 -0.1257  0.0493
 1017YOPC   D2A14690  13.112  13.921   6.967 -0.1265  0.2313  0.0970
 1017YOPC   C3A14691  12.716  13.920   7.082 -0.5121  0.0400 -0.0499
 1017YOPC   C4A14692  12.456  13.941   7.488 -0.1293 -0.2678  0.2944
 1017YOPC   C1B14693  13.649  14.209   6.888  0.0699 -0.0944 -0.0925
 1017YOPC   C2B14694  13.595  14.560   7.108 -0.0917  0.0212 -0.0702
 1017YOPC   D3B14695  13.909  14.911   7.174 -0.1660 -0.0078  0.2832
 1017YOPC   C4B14696  14.282  15.185   6.986  0.4419  0.3317 -0.0489
 1018YOPC   NC314697   9.035  17.653   5.161  0.0502 -0.0921  0.1390
 1018YOPC   PO414698   8.672  17.422   5.203 -0.3155  0.3559  0.4400
 1018YOPC   GL114699   8.299  17.315   5.495  0.2388 -0.3175  0.1730
 1018YOPC   GL214700   8.312  17.014   5.737  0.0295  0.3416  0.5161
 1018YOPC   C1A14701   8.298  17.487   5.965 -0.0397 -0.2147 -0.0725
 1018YOPC   D2A14702   8.216  17.715   6.290 -0.1080 -0.3996  0.1419
 1018YOPC   C3A14703   8.320  17.679   6.720  0.2132 -0.3774  0.3938
 1018YOPC   C4A14704   8.253  17.894   7.119 -0.3915  0.1696  0.3142
 1018YOPC   C1B14705   8.518  16.710   5.745  0.0318  0.1296  0.0656
 1018YOPC   C2B14706   8.847  16.535   6.036 -0.3557 -0.2308 -0.0185
 1018YOPC   D3B14707   9.203  16.548   5.860  0.0049 -0.0957  0.1701
 1018YOPC   C4B14708   9.620  16.723   6.066 -0.1917  0.2778 -0.0067
 1019YOPC   NC314709  18.917   1.999   5.296 -0.1161  0.0422  0.2160
 1019YOPC   PO414710  18.748   2.367   5.361  0.0999  0.2323 -0.1528
 1019YOPC   GL114711  18.727   2.216   5.745  0.0652 -0.1002  0.2595
 1019YOPC   GL214712  18.504   2.215   6.017 -0.2818  0.1799 -0.3581
 1019YOPC   C1A14713  18.929   2.030   6.026  0.0225 -0.0982 -0.0646
 1019YOPC   D2A14714  19.289   1.835   6.209 -0.2974 -0.2195 -0.1075
 1019YOPC   C3A14715  19.677   1.810   6.252  0.1276  0.0582  0.0478
 1019YOPC   C4A14716  20.008   1.595   6.253 -0.1943 -0.2884 -0.3817
 1019YOPC   C1B14717  18.655   2.253   6.431 -0.1734 -0.1612  0.1909
 1019YOPC   C2B14718  19.044   2.069   6.738  0.1480  0.0810  0.2855
 1019YOPC   D3B14719  18.923   1.712   6.995  0.1421  0.2827 -0.0954
 1019YOPC   C4B14720  18.568   1.627   7.161 -0.0048  0.2477 -0.3668
 1020YOPC   NC314721  17.562   4.070   5.383 -0.0958 -0.1019 -0.0519
 1020YOPC   PO414722  17.135   4.058   5.455  0.0484 -0.0313  0.0330
 1020YOPC   GL114723  16.984   4.306   5.763  0.2735  0.1636 -0.0033
 1020YOPC   GL214724  16.741   4.022   5.811  0.2466  0.0675  0.0583
 1020YOPC   C1A14725  17.154   4.295   6.220 -0.1378  0.2514 -0.2118
 1020YOPC   D2A14726  17.471   4.349   6.521 -0.1011  0.0761 -0.0214
 1020YOPC   C3A14727  17.678   3.876   6.777  0.0480 -0.1793 -0.3524
 1020YOPC   C4A14728  17.954   3.576   6.846 -0.0384 -0.1250 -0.0989
 1020YOPC   C1B14729  16.660   4.394   6.169  0.3082 -0.1869 -0.0762
 1020YOPC   C2B14730  16.796   4.768   6.244 -0.3292  0.4332  0.0892
 1020YOPC   D3B14731  16.991   5.170   6.313 -0.0980  0.0093  0.0160
 1020YOPC   C4B14732  17.010   5.562   6.570  0.1739  0.0035 -0.2605
 1021YOPC   NC314733  13.472   7.035   4.919 -0.1248 -0.0800  0.1437
 1021YOPC   PO414734  13.838   7.069   5.084  0.1403  0.2737  0.1081
 1021YOPC   GL114735  14.095   7.009   5.578 -0.0134  0.2078 -0.1505
 1021YOPC   GL214736  14.077   7.400   5.702  0.4633 -0.0539 -0.0396
 1021YOPC   C1A14737  14.206   7.109   6.048  0.2149  0.3012  0.0461
 1021YOPC   D2A14738  14.475   7.421   6.271  0.4774  0.1550  0.0261
 1021YOPC   C3A14739  14.432   7.799   6.399 -0.0706  0.2797 -0.1344
 1021YOPC   C4A14740  14.411   8.244   6.286 -0.1667 -0.0313 -0.3367
 1021YOPC   C1B14741  13.631   7.511   5.847  0.1024 -0.0979 -0.0735
 1021YOPC   C2B14742  13.293   7.491   6.139  0.3210 -0.2016  0.1102
 1021YOPC   D3B14743  13.339   7.625   6.511 -0.2656 -0.0818  0.1137
 1021YOPC   C4B14744  13.062   7.869   6.778 -0.0515 -0.2157  0.1039
 1022YOPC   NC314745  11.238   0.458   5.655 -0.1022  0.4273  0.0974
 1022YOPC   PO414746  11.177   0.807   5.458  0.0731 -0.1014  0.0157
 1022YOPC   GL114747  11.288   0.908   5.906  0.0793 -0.1335 -0.2985
 1022YOPC   GL214748  11.044   1.064   6.081 -0.3559 -0.1488  0.2932
 1022YOPC   C1A14749  11.695   0.701   6.195 -0.0152 -0.0516  0.0668
 1022YOPC   D2A14750  11.924   0.620   6.592 -0.1233 -0.4066 -0.0622
 1022YOPC   C3A14751  11.948   0.267   6.867  0.4772 -0.2288 -0.1678
 1022YOPC   C4A14752  11.979   0.254   7.343 -0.2562  0.0491 -0.1995
 1022YOPC   C1B14753  10.597   1.157   6.140 -0.2097 -0.0374  0.0008
 1022YOPC   C2B14754  10.135   1.326   6.125  0.2067  0.1288  0.2199
 1022YOPC   D3B14755   9.961   1.726   6.211  0.0832  0.0121  0.0789
 1022YOPC   C4B14756   9.847   2.094   6.419  0.3158  0.2170  0.1358
 1023YOPC   NC314757   3.851   2.864   4.816  0.0567 -0.1463 -0.0235
 1023YOPC   PO414758   3.513   2.587   4.920  0.2262 -0.4135  0.4471
 1023YOPC   GL114759   3.638   2.829   5.337 -0.1750 -0.1725  0.0703
 1023YOPC   GL214760   3.938   2.655   5.317  0.2204 -0.1363 -0.0885
 1023YOPC   C1A14761   3.918   3.112   5.561 -0.1124  0.3087  0.3745
 1023YOPC   D2A14762   4.197   3.406   5.571  0.2154 -0.3004  0.3708
 1023YOPC   C3A14763   4.551   3.358   5.416 -0.0291  0.0541  0.0889
 1023YOPC   C4A14764   4.868   3.581   5.212 -0.0104  0.0955 -0.0308
 1023YOPC   C1B14765   3.882   2.570   5.723  0.2376 -0.0559  0.0553
 1023YOPC   C2B14766   3.831   2.647   6.148 -0.1014  0.0709 -0.0566
 1023YOPC   D3B14767   4.172   2.865   6.372  0.1607  0.0805  0.1018
 1023YOPC   C4B14768   4.404   2.879   6.699  0.0915 -0.1298  0.2363
 1024YOPC   NC314769  11.040  11.199   5.385  0.2950  0.3020  0.3147
 1024YOPC   PO414770  11.368  10.921   5.455 -0.1861  0.0475 -0.1847
 1024YOPC   GL114771  11.440  10.855   5.949  0.0712  0.1248  0.1614
 1024YOPC   GL214772  11.708  10.771   6.140 -0.2480 -0.2623  0.0186
 1024YOPC   C1A14773  11.170  10.728   6.321  0.0286 -0.0124  0.2443
 1024YOPC   D2A14774  10.890  10.537   6.192  0.3626  0.3962 -0.3723
 1024YOPC   C3A14775  10.727  10.419   6.503 -0.0775 -0.1345  0.2779
 1024YOPC   C4A14776  10.401  10.343   6.712 -0.1694  0.1824 -0.1471
 1024YOPC   C1B14777  11.626  10.754   6.588  0.5089  0.3220 -0.3222
 1024YOPC   C2B14778  11.706  10.906   6.982  0.0743  0.5888 -0.1203
 1024YOPC   D3B14779  11.661  11.273   7.187  0.0336  0.0548  0.0658
 1024YOPC   C4B14780  11.326  11.506   7.442 -0.2106 -0.0802 -0.0972
 1025YOPC   NC314781   9.742  14.142   5.006  0.2811  0.0939  0.0608
 1025YOPC   PO414782   9.565  14.416   5.331  0.0110  0.0704  0.0368
 1025YOPC   GL114783   9.456  14.681   5.590 -0.0210 -0.2560  0.2119
 1025YOPC   GL214784   9.097  14.582   5.561  0.0736 -0.2506  0.1765
 1025YOPC   C1A14785   9.728  15.011   5.876  0.0589 -0.0269 -0.4145
 1025YOPC   D2A14786   9.625  15.265   6.262 -0.0898  0.1225  0.0477
 1025YOPC   C3A14787   9.999  15.464   6.489 -0.3160 -0.3923  0.2509
 1025YOPC   C4A14788  10.271  15.770   6.360  0.1976  0.3731  0.3062
 1025YOPC   C1B14789   8.782  14.779   5.954 -0.2423 -0.1303  0.0324
 1025YOPC   C2B14790   8.612  14.905   6.316 -0.1378 -0.0402  0.1115
 1025YOPC   D3B14791   8.693  14.706   6.692 -0.0901  0.3147 -0.0164
 1025YOPC   C4B14792   8.364  14.662   6.977 -0.2142  0.0396  0.0691
 1026YOPC   NC314793   5.621   5.850   3.975 -0.0505 -0.2247 -0.1730
 1026YOPC   PO414794   5.584   5.972   4.355 -0.5985 -0.1308 -0.1424
 1026YOPC   GL114795   5.886   6.193   4.673  0.1443  0.1589 -0.1848
 1026YOPC   GL214796   5.596   6.347   4.792 -0.0460  0.0327 -0.1238
 1026YOPC   C1A14797   6.052   6.354   5.145 -0.1901  0.1192  0.2450
 1026YOPC   D2A14798   5.677   6.358   5.548  0.1400  0.1006 -0.1998
 1026YOPC   C3A14799   5.767   6.661   5.822  0.0357  0.2331  0.0735
 1026YOPC   C4A14800   5.575   6.978   6.013 -0.2303 -0.1428  0.0673
 1026YOPC   C1B14801   5.695   5.993   5.095  0.1076 -0.2031 -0.3134
 1026YOPC   C2B14802   5.916   5.916   5.511 -0.1640  0.1414 -0.1405
 1026YOPC   D3B14803   5.961   5.489   5.751 -0.1225 -0.1132 -0.0484
 1026YOPC   C4B14804   6.179   5.378   6.028  0.0388  0.2242  0.0226
 1027YOPC   NC314805   8.054   2.062   4.325  0.3917  0.0468  0.2683
 1027YOPC   PO414806   7.713   2.154   4.629 -0.1682  0.1867 -0.2957
 1027YOPC   GL114807   7.557   2.323   5.039 -0.0102  0.1359  0.0934
 1027YOPC   GL214808   7.696   2.495   5.148  0.0290 -0.3007 -0.0498
 1027YOPC   C1A14809   7.447   2.281   5.496 -0.1100 -0.0090  0.0990
 1027YOPC   D2A14810   7.386   2.394   5.944 -0.4908 -0.2237  0.0343
 1027YOPC   C3A14811   7.617   2.141   6.145  0.0732  0.2139 -0.1723
 1027YOPC   C4A14812   8.016   1.991   6.135  0.1498  0.1711 -0.0940
 1027YOPC   C1B14813   7.965   2.843   4.948  0.1810  0.2316  0.1758
 1027YOPC   C2B14814   8.285   3.136   4.793 -0.0707 -0.2135  0.0474
 1027YOPC   D3B14815   8.489   3.297   5.213  0.3374 -0.3726  0.2132
 1027YOPC   C4B14816   8.808   3.289   5.378  0.1213  0.0137 -0.1393
 1028YOPC   NC314817  16.913  18.562   5.237  0.0005 -0.1322 -0.1548
 1028YOPC   PO414818  16.974  18.989   5.362  0.0472  0.1143 -0.1050
 1028YOPC   GL114819  17.108  19.234   5.630  0.3190  0.0438 -0.1248
 1028YOPC   GL214820  17.377  19.440   5.454 -0.0888  0.0335 -0.3423
 1028YOPC   C1A14821  17.204  19.049   6.059  0.0282 -0.1541  0.1194
 1028YOPC   D2A14822  17.116  19.064   6.545  0.0431 -0.3110 -0.3700
 1028YOPC   C3A14823  17.543  18.966   6.827 -0.0002 -0.1541  0.2840
 1028YOPC   C4A14824  17.968  18.728   6.951 -0.0827 -0.1482 -0.1289
 1028YOPC   C1B14825  17.771  19.382   5.405  0.0332  0.4029  0.0875
 1028YOPC   C2B14826  18.134  19.288   5.653 -0.0511 -0.0336 -0.0426
 1028YOPC   D3B14827  18.322  19.328   6.066  0.1039 -0.1207 -0.1533
 1028YOPC   C4B14828  18.709  19.167   6.116  0.0381 -0.1468  0.2109
 1029YOPC   NC314829   4.591   5.670   4.404  0.1223  0.1232 -0.2665
 1029YOPC   PO414830   4.113   5.611   4.595 -0.1419  0.3294 -0.1623
 1029YOPC   GL114831   3.830   5.662   4.887  0.0331  0.2134 -0.0150
 1029YOPC   GL214832   3.659   5.875   4.703 -0.1017 -0.3590  0.1830
 1029YOPC   C1A14833   3.783   5.773   5.222  0.0549 -0.1549  0.1225
 1029YOPC   D2A14834   3.487   5.436   5.482  0.0824 -0.2556  0.0359
 1029YOPC   C3A14835   3.113   5.237   5.722  0.0129  0.0512 -0.3682
 1029YOPC   C4A14836   2.632   5.179   5.650 -0.4195  0.1049  0.1428
 1029YOPC   C1B14837   3.320   5.758   5.084 -0.1060  0.1244 -0.0625
 1029YOPC   C2B14838   3.158   5.812   5.454  0.2038  0.1791  0.3800
 1029YOPC   D3B14839   3.405   6.088   5.628 -0.3062 -0.2248 -0.0569
 1029YOPC   C4B14840   3.415   6.511   5.714  0.2557 -0.2151  0.1128
 1030YOPC   NC314841  16.703  19.403   5.403  0.2159  0.3585 -0.2071
 1030YOPC   PO414842  16.970  19.745   5.483  0.1409 -0.3602  0.2377
 1030YOPC   GL114843  16.848  19.738   5.851 -0.1013  0.0785 -0.0549
 1030YOPC   GL214844  16.724  19.994   6.002  0.0961  0.1286 -0.2009
 1030YOPC   C1A14845  17.043  19.608   6.240  0.0215 -0.2526 -0.2092
 1030YOPC   D2A14846  17.051  19.621   6.632  0.2351 -0.0765 -0.0501
 1030YOPC   C3A14847  17.211  19.390   7.010 -0.1791 -0.1197  0.0009
 1030YOPC   C4A14848  17.368  19.158   7.380  0.4911  0.3229  0.0704
 1030YOPC   C1B14849  16.960  20.094   6.297  0.0120 -0.2493 -0.0288
 1030YOPC   C2B14850  17.281  20.074   6.532 -0.0727  0.4424 -0.1910
 1030YOPC   D3B14851  17.604  20.250   6.814 -0.0097  0.0965  0.0258
 1030YOPC   C4B14852  17.751  20.591   7.164  0.2054 -0.1170 -0.2083
 1031YOPC   NC314853   0.200  18.124   5.581  0.0354  0.1181  0.1028
 1031YOPC   PO414854  -0.201  18.372   5.522 -0.4882 -0.1779  0.3375
 1031YOPC   GL114855  -0.172  18.560   5.872  0.1386 -0.0079  0.3251
 1031YOPC   GL214856  -0.471  18.667   5.927  0.4771 -0.0517 -0.0392
 1031YOPC   C1A14857   0.058  18.884   5.998 -0.0969 -0.0201  0.3225
 1031YOPC   D2A14858  -0.054  19.105   6.355  0.1652 -0.2763 -0.1529
 1031YOPC   C3A14859  -0.281  19.027   6.767  0.0727  0.0877  0.2316
 1031YOPC   C4A14860  -0.250  18.789   7.180  0.0743 -0.0904 -0.2258
 1031YOPC   C1B14861  -0.412  18.777   6.308  0.0567 -0.0555 -0.0914
 1031YOPC   C2B14862  -0.613  18.600   6.674  0.1419 -0.0123  0.0911
 1031YOPC   D3B14863  -0.211  18.292   6.747 -0.0580  0.0808 -0.1899
 1031YOPC   C4B14864  -0.110  18.119   7.162 -0.0690  0.0781  0.1783
 1032YOPC   NC314865  14.550   1.727   5.269 -0.0199  0.2095 -0.0184
 1032YOPC   PO414866  14.595   2.106   5.496 -0.0838 -0.2210 -0.1291
 1032YOPC   GL114867  14.850   2.526   5.571 -0.1313 -0.2679 -0.2839
 1032YOPC   GL214868  15.194   2.572   5.485 -0.2412  0.1718 -0.2831
 1032YOPC   C1A14869  14.821   2.657   5.969 -0.0044 -0.2913  0.0365
 1032YOPC   D2A14870  14.734   2.680   6.362  0.2087  0.0800  0.1900
 1032YOPC   C3A14871  15.073   2.881   6.670 -0.0176  0.0700 -0.0311
 1032YOPC   C4A14872  15.178   2.756   7.149  0.3918 -0.0654  0.0320
 1032YOPC   C1B14873  15.194   2.358   5.931 -0.2419  0.0459 -0.3343
 1032YOPC   C2B14874  15.209   2.532   6.359  0.0667  0.0068  0.0449
 1032YOPC   D3B14875  14.957   2.284   6.512  0.0657  0.1415 -0.0080
 1032YOPC   C4B14876  14.517   2.113   6.577  0.0484 -0.0839 -0.1873
 1033YOPC   NC314877  13.880   8.348   5.197  0.4098  0.3427  0.2233
 1033YOPC   PO414878  14.259   8.476   5.310 -0.3744  0.4768  0.0788
 1033YOPC   GL114879  14.529   8.513   5.659  0.2723  0.1979 -0.2465
 1033YOPC   GL214880  14.325   8.276   5.735 -0.1573  0.0384 -0.2531
 1033YOPC   C1A14881  14.358   8.697   6.062  0.0142  0.2645  0.2207
 1033YOPC   D2A14882  14.564   8.706   6.526  0.1845 -0.1553  0.3447
 1033YOPC   C3A14883  14.704   8.385   6.685  0.1998  0.0638  0.1168
 1033YOPC   C4A14884  14.836   8.000   6.645 -0.0989  0.2819 -0.1309
 1033YOPC   C1B14885  14.232   7.770   5.958  0.0479 -0.2123  0.1693
 1033YOPC   C2B14886  13.936   7.527   6.304  0.0338  0.1735  0.0222
 1033YOPC   D3B14887  13.799   7.801   6.650 -0.1014  0.2009  0.0786
 1033YOPC   C4B14888  13.931   8.158   6.794 -0.0521  0.1139 -0.0406
 1034YOPC   NC314889   2.695   2.137   4.104  0.0750 -0.1607  0.0570
 1034YOPC   PO414890   2.728   2.089   4.560 -0.0448 -0.4606  0.1700
 1034YOPC   GL114891   2.840   2.221   5.026 -0.1886 -0.0112 -0.0890
 1034YOPC   GL214892   3.069   2.313   5.179 -0.1083 -0.2608 -0.4185
 1034YOPC   C1A14893   2.648   2.002   5.400  0.0833  0.0476  0.1564
 1034YOPC   D2A14894   2.348   1.773   5.555  0.1780  0.0692  0.0590
 1034YOPC   C3A14895   2.333   1.390   5.656  0.0029 -0.0825  0.4475
 1034YOPC   C4A14896   2.390   0.964   5.621 -0.1099 -0.1084 -0.1399
 1034YOPC   C1B14897   2.695   2.518   5.472  0.1107  0.1595  0.0242
 1034YOPC   C2B14898   2.365   2.717   5.664  0.0293 -0.0691  0.0369
 1034YOPC   D3B14899   2.397   2.646   6.149  0.3077 -0.3635 -0.0281
 1034YOPC   C4B14900   2.701   2.505   6.423 -0.0603  0.1319  0.0113
 1035YOPC   NC314901  19.016  13.466   5.765  0.2206  0.0959 -0.0845
 1035YOPC   PO414902  19.459  13.450   5.557 -0.2528 -0.1875  0.2291
 1035YOPC   GL114903  19.654  13.261   5.918 -0.1055  0.0788 -0.3344
 1035YOPC   GL214904  19.365  13.151   5.966 -0.0126 -0.3177 -0.0117
 1035YOPC   C1A14905  19.752  13.334   6.288  0.0413  0.1137 -0.6014
 1035YOPC   D2A14906  19.823  13.281   6.720 -0.0667 -0.2144 -0.0591
 1035YOPC   C3A14907  19.562  13.410   7.020  0.2529 -0.3981  0.0009
 1035YOPC   C4A14908  19.199  13.672   7.032  0.0013 -0.0586  0.2916
 1035YOPC   C1B14909  19.248  13.137   6.300  0.4444 -0.1486  0.0899
 1035YOPC   C2B14910  19.314  13.397   6.585 -0.0436 -0.0941  0.0497
 1035YOPC   D3B14911  19.060  13.862   6.587 -0.0378  0.0983  0.2283
 1035YOPC   C4B14912  18.722  13.908   6.361 -0.0465  0.0831 -0.0726
 1036YOPC   NC314913   0.935   5.344   4.472  0.3489 -0.1311 -0.1859
 1036YOPC   PO414914   1.223   5.576   4.782 -0.0719 -0.2974 -0.0901
 1036YOPC   GL114915   1.292   5.709   5.311 -0.1528  0.0026 -0.0622
 1036YOPC   GL214916   1.019   5.802   5.550 -0.1151 -0.1799  0.0298
 1036YOPC   C1A14917   1.437   5.701   5.800  0.1875 -0.0263  0.1063
 1036YOPC   D2A14918   1.242   5.700   6.099  0.1725  0.0476 -0.4979
 1036YOPC   C3A14919   1.350   5.673   6.552 -0.1963  0.1349  0.1935
 1036YOPC   C4A14920   1.718   5.597   6.841  0.0823 -0.2212  0.2257
 1036YOPC   C1B14921   0.790   5.949   5.842  0.1925  0.2992 -0.1672
 1036YOPC   C2B14922   0.558   5.754   6.223  0.1412  0.0423 -0.0823
 1036YOPC   D3B14923   0.605   5.559   6.524 -0.0159  0.2282  0.2133
 1036YOPC   C4B14924   0.505   5.089   6.678  0.2890 -0.0828  0.1843
 1037YOPC   NC314925   1.216  14.665   5.485 -0.2830 -0.0252 -0.3316
 1037YOPC   PO414926   1.159  15.018   5.411  0.0831  0.2988  0.1698
 1037YOPC   GL114927   0.884  15.093   5.744  0.3593  0.2925 -0.3560
 1037YOPC   GL214928   0.933  14.780   5.950  0.3696  0.1167  0.4273
 1037YOPC   C1A14929   0.657  15.203   6.112  0.0751 -0.0770 -0.2331
 1037YOPC   D2A14930   0.709  15.489   6.357 -0.0870  0.1270 -0.2763
 1037YOPC   C3A14931   0.769  15.445   6.832 -0.1194  0.4330  0.2249
 1037YOPC   C4A14932   0.711  15.591   7.285  0.0877 -0.0151  0.2764
 1037YOPC   C1B14933   1.193  14.964   6.129 -0.1262  0.0449 -0.1529
 1037YOPC   C2B14934   1.522  15.157   6.279  0.0766 -0.0924  0.1275
 1037YOPC   D3B14935   1.627  15.011   6.654  0.0407  0.0716  0.0147
 1037YOPC   C4B14936   1.767  14.811   7.021  0.1044 -0.0236  0.0607
 1038YOPC   NC314937   6.318  18.447   4.711 -0.3548 -0.0696 -0.1271
 1038YOPC   PO414938   6.294  18.455   5.171  0.1504  0.1077  0.0331
 1038YOPC   GL114939   6.283  18.417   5.592 -0.0772  0.3634 -0.1629
 1038YOPC   GL214940   6.052  18.377   5.840  0.0377  0.2334 -0.2310
 1038YOPC   C1A14941   6.492  18.446   6.005  0.3619  0.1594 -0.1596
 1038YOPC   D2A14942   6.972  18.540   5.954 -0.0548 -0.1173  0.1045
 1038YOPC   C3A14943   7.230  18.915   5.982  0.0663  0.0825  0.3406
 1038YOPC   C4A14944   7.600  18.980   5.783  0.0920 -0.2247  0.0529
 1038YOPC   C1B14945   5.903  18.675   6.223 -0.0959  0.2055  0.3094
 1038YOPC   C2B14946   5.543  18.765   6.580 -0.2072  0.1496  0.2405
 1038YOPC   D3B14947   5.106  18.597   6.654 -0.0260 -0.2144  0.1226
 1038YOPC   C4B14948   4.723  18.785   6.677  0.1868  0.0811 -0.4747
 1039YOPC   NC314949   9.710  16.963   5.183  0.1482 -0.0208 -0.1371
 1039YOPC   PO414950   9.938  16.699   5.366  0.0426  0.1917 -0.0834
 1039YOPC   GL114951  10.096  16.512   5.763 -0.3111 -0.0517  0.0008
 1039YOPC   GL214952  10.348  16.704   5.718 -0.2787 -0.0647  0.0727
 1039YOPC   C1A14953  10.061  16.473   6.335  0.2056  0.1951 -0.0092
 1039YOPC   D2A14954   9.798  16.764   6.581  0.0047 -0.2740  0.1554
 1039YOPC   C3A14955  10.078  17.151   6.540 -0.1364  0.0844  0.1355
 1039YOPC   C4A14956  10.401  17.334   6.303  0.0651  0.0553  0.0944
 1039YOPC   C1B14957  10.072  16.907   6.102 -0.0185  0.2071  0.4291
 1039YOPC   C2B14958   9.716  17.162   6.161 -0.0422  0.1088  0.1836
 1039YOPC   D3B14959   9.239  16.999   6.207 -0.0683  0.1834 -0.2035
 1039YOPC   C4B14960   9.157  16.636   6.413  0.0730  0.0080 -0.0765
 1040YOPC   NC314961  14.229   5.200   4.635 -0.2647  0.0766 -0.1627
 1040YOPC   PO414962  14.134   5.381   5.045 -0.1944  0.0067 -0.1137
 1040YOPC   GL114963  13.875   5.648   5.289  0.2054  0.3661 -0.2137
 1040YOPC   GL214964  14.031   5.571   5.619  0.0580  0.2360  0.0247
 1040YOPC   C1A14965  13.747   5.963   5.628 -0.0665 -0.0674 -0.3058
 1040YOPC   D2A14966  13.416   5.892   5.861 -0.0875 -0.2163 -0.0975
 1040YOPC   C3A14967  12.972   5.875   5.862  0.1504  0.1774 -0.0241
 1040YOPC   C4A14968  12.519   5.858   5.726  0.0020  0.0919  0.1389
 1040YOPC   C1B14969  13.586   5.407   5.708 -0.1067  0.1115 -0.1784
 1040YOPC   C2B14970  13.536   5.084   6.067  0.2147  0.0732  0.1435
 1040YOPC   D3B14971  13.561   5.218   6.413 -0.0984  0.1016 -0.2855
 1040YOPC   C4B14972  13.293   5.450   6.760  0.0448  0.0047 -0.1193
 1041YOPC   NC314973  13.440   5.658   5.126  0.0835 -0.0531  0.0183
 1041YOPC   PO414974  13.107   5.302   5.211  0.1132 -0.1542 -0.0046
 1041YOPC   GL114975  13.176   5.210   5.530  0.3100 -0.2640 -0.1637
 1041YOPC   GL214976  12.834   5.132   5.571 -0.1665  0.0314 -0.0428
 1041YOPC   C1A14977  13.105   5.359   5.919  0.2331 -0.2608 -0.0530
 1041YOPC   D2A14978  13.269   5.589   6.212 -0.1464  0.2383  0.0295
 1041YOPC   C3A14979  12.942   5.767   6.450  0.0563 -0.2067  0.1062
 1041YOPC   C4A14980  12.555   5.935   6.710  0.4572  0.0383  0.3717
 1041YOPC   C1B14981  12.653   4.920   5.953 -0.1302  0.2124  0.0472
 1041YOPC   C2B14982  12.283   5.075   6.220  0.3095 -0.1642 -0.3400
 1041YOPC   D3B14983  12.308   5.133   6.728 -0.0835 -0.0071 -0.0996
 1041YOPC   C4B14984  12.048   5.231   7.019  0.0517  0.0853  0.2653
 1042YOPC   NC314985   8.441  17.836   5.332 -0.2655 -0.2547 -0.1303
 1042YOPC   PO414986   8.519  18.334   5.287 -0.1047 -0.1548  0.2505
 1042YOPC   GL114987   8.442  18.249   5.687 -0.1831  0.2679  0.1663
 1042YOPC   GL214988   8.532  17.898   5.823 -0.1817  0.0873  0.2736
 1042YOPC   C1A14989   8.480  18.315   6.137 -0.1831  0.0638  0.0037
 1042YOPC   D2A14990   8.546  18.123   6.559  0.0571  0.1565 -0.1601
 1042YOPC   C3A14991   8.631  18.486   6.807  0.0469  0.2312 -0.4235
 1042YOPC   C4A14992   8.577  18.655   7.129  0.2360  0.3147  0.0163
 1042YOPC   C1B14993   8.690  17.762   6.142  0.0813  0.3362 -0.0684
 1042YOPC   C2B14994   9.033  17.799   6.424  0.0544  0.2372 -0.0901
 1042YOPC   D3B14995   8.863  17.578   6.769  0.0160  0.0223 -0.3677
 1042YOPC   C4B14996   9.100  17.328   7.077  0.2290  0.1599  0.0694
 1043YOPC   NC314997   1.023   9.333   4.950 -0.1128 -0.1900  0.1290
 1043YOPC   PO414998   1.033   9.167   5.316  0.0378 -0.3383 -0.2420
 1043YOPC   GL114999   1.130   9.247   5.747 -0.1455 -0.1170  0.1943
 1043YOPC   GL215000   1.112   9.521   5.831  0.1191  0.0294 -0.0888
 1043YOPC   C1A15001   1.382   9.093   6.139 -0.3777 -0.2533  0.1322
 1043YOPC   D2A15002   1.670   8.949   6.376 -0.0586 -0.2816 -0.0407
 1043YOPC   C3A15003   1.634   8.837   6.673 -0.1914 -0.1267  0.0378
 1043YOPC   C4A15004   2.054   8.685   6.857  0.1278 -0.2558 -0.3135
 1043YOPC   C1B15005   0.888   9.771   5.946 -0.1942  0.0067  0.0534
 1043YOPC   C2B15006   0.858   9.992   6.269  0.2933  0.0789  0.1895
 1043YOPC   D3B15007   1.151  10.015   6.657 -0.3569 -0.0286  0.0840
 1043YOPC   C4B15008   1.508  10.278   6.797 -0.0685 -0.0367  0.1014
 1044YOPC   NC315009  19.068  12.213   5.446 -0.1459  0.0077 -0.0149
 1044YOPC   PO415010  19.290  12.564   5.440 -0.2334 -0.0206 -0.0153
 1044YOPC   GL115011  19.223  12.626   5.866 -0.1181  0.0684  0.2730
 1044YOPC   GL215012  18.908  12.806   6.025 -0.0565 -0.2833  0.1576
 1044YOPC   C1A15013  19.225  12.635   6.320 -0.1384 -0.0455  0.1079
 1044YOPC   D2A15014  19.037  12.514   6.756 -0.0904 -0.0856  0.2076
 1044YOPC   C3A15015  18.671  12.562   6.836  0.0838 -0.0437 -0.1634
 1044YOPC   C4A15016  18.329  12.275   6.684  0.2097  0.1673 -0.0437
 1044YOPC   C1B15017  18.517  12.991   6.241  0.3287 -0.3239 -0.0230
 1044YOPC   C2B15018  18.369  12.836   6.543 -0.0189  0.0572 -0.0277
 1044YOPC   D3B15019  18.452  13.039   6.920 -0.0554 -0.0099 -0.0599
 1044YOPC   C4B15020  18.102  12.916   7.264  0.3078 -0.0093  0.0173
 1045YOPC   NC315021  13.426   0.878   5.850  0.1984 -0.1168 -0.0169
 1045YOPC   PO415022  13.867   0.939   5.901  0.1665 -0.1089  0.2271
 1045YOPC   GL115023  13.671   0.909   6.259 -0.0804  0.0249  0.0410
 1045YOPC   GL215024  13.918   0.930   6.511 -0.1295 -0.0509  0.0245
 1045YOPC   C1A15025  13.429   0.996   6.580  0.1657  0.3761 -0.1104
 1045YOPC   D2A15026  12.992   1.090   6.805 -0.0579 -0.2195  0.0286
 1045YOPC   C3A15027  13.153   1.251   7.141 -0.1922  0.0664  0.3706
 1045YOPC   C4A15028  13.322   1.625   7.161 -0.0001  0.1805 -0.3126
 1045YOPC   C1B15029  13.773   0.910   6.981  0.0117 -0.1098  0.0515
 1045YOPC   C2B15030  13.638   1.185   7.265 -0.0620  0.0220  0.0168
 1045YOPC   D3B15031  13.359   1.082   7.576 -0.0689  0.0405 -0.1697
 1045YOPC   C4B15032  12.904   0.990   7.607  0.0889  0.2474  0.1889
 1046YOPC   NC315033  17.969   3.292   5.291 -0.2149 -0.3048 -0.5436
 1046YOPC   PO415034  18.002   2.902   5.484  0.2345 -0.0954  0.0277
 1046YOPC   GL115035  18.192   3.056   5.728 -0.2951  0.2072  0.0867
 1046YOPC   GL215036  18.358   3.256   5.676 -0.3454 -0.0205  0.0890
 1046YOPC   C1A15037  18.420   2.975   6.052  0.2228 -0.1325  0.1984
 1046YOPC   D2A15038  18.512   2.702   6.435  0.5546 -0.0861 -0.3062
 1046YOPC   C3A15039  18.206   2.512   6.770  0.2647 -0.0437 -0.0533
 1046YOPC   C4A15040  17.850   2.574   7.064 -0.3224  0.1420 -0.0129
 1046YOPC   C1B15041  18.545   3.514   6.105 -0.1325 -0.0340  0.1798
 1046YOPC   C2B15042  18.485   3.766   6.509 -0.1069 -0.3960  0.2784
 1046YOPC   D3B15043  18.257   3.954   6.796  0.0218  0.0733  0.0682
 1046YOPC   C4B15044  17.944   3.956   7.185 -0.0715  0.3020 -0.3125
 1047YOPC   NC315045   1.651  11.639   5.187 -0.0405  0.0651 -0.1449
 1047YOPC   PO415046   1.425  11.245   5.411  0.1769  0.1609  0.1201
 1047YOPC   GL115047   1.532  11.154   5.882  0.1974 -0.1733  0.0841
 1047YOPC   GL215048   1.324  11.350   6.032  0.2575 -0.1169 -0.1093
 1047YOPC   C1A15049   1.841  11.427   6.174 -0.3555  0.1457  0.1055
 1047YOPC   D2A15050   2.019  11.574   6.574 -0.2748  0.0878 -0.1287
 1047YOPC   C3A15051   2.496  11.472   6.637  0.0944 -0.0545  0.0122
 1047YOPC   C4A15052   2.773  11.528   6.321 -0.2767 -0.0187 -0.0844
 1047YOPC   C1B15053   1.118  11.539   6.321  0.2103  0.1621 -0.0102
 1047YOPC   C2B15054   0.825  11.839   6.533 -0.0428  0.2748 -0.3296
 1047YOPC   D3B15055   0.596  11.770   6.838 -0.2459  0.2530 -0.0603
 1047YOPC   C4B15056   0.269  11.441   7.023 -0.4235  0.0246  0.3298
 1048YOPC   NC315057   7.162  19.346   4.715 -0.0024 -0.1247 -0.0235
 1048YOPC   PO415058   7.569  19.400   4.816  0.3643 -0.1814 -0.1995
 1048YOPC   GL115059   7.709  19.518   5.177 -0.0526  0.3938  0.0910
 1048YOPC   GL215060   7.724  19.852   5.166 -0.0286  0.1763  0.2596
 1048YOPC   C1A15061   7.836  19.514   5.514  0.0633  0.1524 -0.2487
 1048YOPC   D2A15062   7.817  19.418   6.026 -0.1135 -0.2067  0.1676
 1048YOPC   C3A15063   7.559  19.632   6.307 -0.4031 -0.0614  0.1257
 1048YOPC   C4A15064   7.320  19.574   6.694 -0.2353 -0.0713 -0.0134
 1048YOPC   C1B15065   7.526  19.907   5.527 -0.0939 -0.2621  0.0265
 1048YOPC   C2B15066   7.397  19.489   5.704 -0.1609 -0.4187  0.3816
 1048YOPC   D3B15067   7.166  19.565   6.036 -0.1377  0.0342  0.1713
 1048YOPC   C4B15068   6.764  19.759   6.114 -0.1047 -0.2114  0.1878
 1049YOPC   NC315069   1.094  16.046   5.265 -0.1782  0.0457 -0.2850
 1049YOPC   PO415070   0.713  15.949   5.277 -0.2511 -0.1604  0.1047
 1049YOPC   GL115071   0.594  16.061   5.753 -0.1012 -0.3267  0.1704
 1049YOPC   GL215072   0.628  16.322   6.033 -0.2757  0.1045  0.1751
 1049YOPC   C1A15073   0.469  15.830   6.140 -0.0389 -0.0509 -0.2685
 1049YOPC   D2A15074   0.278  16.108   6.401 -0.1493 -0.2274  0.2591
 1049YOPC   C3A15075   0.083  16.543   6.465 -0.1335  0.0597 -0.0918
 1049YOPC   C4A15076   0.215  16.819   6.829 -0.2055 -0.1085 -0.1011
 1049YOPC   C1B15077   0.604  16.511   6.488  0.1417  0.3376  0.1990
 1049YOPC   C2B15078   0.542  16.470   6.913 -0.0628  0.0036 -0.5390
 1049YOPC   D3B15079   0.815  16.323   7.241 -0.0045  0.1677  0.0998
 1049YOPC   C4B15080   0.857  16.065   7.447 -0.1675  0.0940 -0.0346
 1050YOPC   NC315081   1.695   5.685   4.481 -0.0938  0.1069 -0.0129
 1050YOPC   PO415082   2.086   5.921   4.666 -0.1462  0.0148 -0.2275
 1050YOPC   GL115083   2.027   5.833   5.035  0.1913 -0.0707 -0.0131
 1050YOPC   GL215084   2.081   5.578   5.216 -0.0137  0.5219  0.1888
 1050YOPC   C1A15085   1.817   5.907   5.452 -0.0881  0.2188  0.0760
 1050YOPC   D2A15086   1.931   5.995   5.869 -0.5161 -0.1683 -0.0244
 1050YOPC   C3A15087   1.745   5.859   6.219 -0.2988  0.1801 -0.2267
 1050YOPC   C4A15088   2.065   5.901   6.449 -0.1815 -0.0083 -0.0459
 1050YOPC   C1B15089   2.293   5.690   5.545 -0.2148  0.2268  0.0982
 1050YOPC   C2B15090   2.325   5.739   6.036 -0.0978  0.2530  0.2625
 1050YOPC   D3B15091   2.755   5.779   6.242  0.1287 -0.1189 -0.0514
 1050YOPC   C4B15092   2.884   5.510   6.656 -0.2224 -0.0407  0.1916
 1051YOPC   NC315093   5.879  15.370   5.155  0.6072  0.3086  0.1828
 1051YOPC   PO415094   5.565  15.319   5.504 -0.1854 -0.0643  0.0517
 1051YOPC   GL115095   5.541  15.218   5.924 -0.1084 -0.0993 -0.0105
 1051YOPC   GL215096   5.340  14.991   6.122 -0.1620 -0.2604  0.1014
 1051YOPC   C1A15097   5.718  15.231   6.242 -0.0026 -0.1252  0.0343
 1051YOPC   D2A15098   5.615  15.072   6.624  0.1403 -0.0231 -0.2882
 1051YOPC   C3A15099   5.208  15.261   6.776  0.0933 -0.1284 -0.0567
 1051YOPC   C4A15100   4.826  15.302   6.509  0.1206  0.1867  0.1000
 1051YOPC   C1B15101   5.202  15.471   6.276  0.1508  0.2371  0.2159
 1051YOPC   C2B15102   5.114  15.864   6.555  0.1727  0.1627 -0.2391
 1051YOPC   D3B15103   4.857  16.028   6.983  0.2976  0.1812  0.2259
 1051YOPC   C4B15104   4.908  16.238   7.409 -0.3072  0.1276 -0.1184
 1052YOPC   NC315105  12.307  10.796   5.665 -0.1626  0.1445 -0.0999
 1052YOPC   PO415106  12.718  10.630   5.676  0.0844 -0.0477 -0.3083
 1052YOPC   GL115107  12.959  10.824   6.091  0.0402  0.4815 -0.0013
 1052YOPC   GL215108  12.634  11.073   6.233  0.1108  0.3977  0.1359
 1052YOPC   C1A15109  13.283  10.909   6.398  0.4869 -0.0143 -0.2107
 1052YOPC   D2A15110  13.351  11.207   6.829  0.2490  0.3373  0.1357
 1052YOPC   C3A15111  13.513  11.041   7.240 -0.0084  0.0520 -0.3094
 1052YOPC   C4A15112  13.352  10.745   7.458 -0.1090  0.1735  0.0543
 1052YOPC   C1B15113  12.512  10.944   6.703  0.1281 -0.1893  0.0159
 1052YOPC   C2B15114  12.203  10.674   6.744 -0.3034 -0.3303  0.0315
 1052YOPC   D3B15115  12.217  10.230   6.796 -0.3248 -0.0405  0.0079
 1052YOPC   C4B15116  11.998   9.958   6.871  0.0330 -0.1797  0.3041
 1053YOPC   NC315117  19.122   4.258   5.290 -0.0424  0.3885  0.2013
 1053YOPC   PO415118  19.466   4.109   5.223 -0.3125 -0.0844  0.1037
 1053YOPC   GL115119  19.497   3.915   5.595 -0.2611 -0.0229 -0.4323
 1053YOPC   GL215120  19.653   4.131   5.729 -0.3973 -0.1676  0.1431
 1053YOPC   C1A15121  19.691   3.565   5.846  0.0242 -0.0882 -0.3111
 1053YOPC   D2A15122  19.693   3.257   6.316 -0.0253 -0.0360  0.3683
 1053YOPC   C3A15123  20.039   3.330   6.615  0.4080 -0.0881  0.0610
 1053YOPC   C4A15124  20.485   3.184   6.741  0.3172  0.1945  0.2800
 1053YOPC   C1B15125  20.020   4.265   5.958 -0.1240 -0.2389  0.0378
 1053YOPC   C2B15126  20.445   4.619   6.084 -0.0957  0.0497  0.1998
 1053YOPC   D3B15127  20.925   4.574   5.891  0.2784 -0.1028  0.1350
 1053YOPC   C4B15128  21.266   4.547   5.518  0.3718 -0.0520  0.0881
 1054YOPC   NC315129   7.626  14.827   4.789 -0.0029 -0.1653 -0.0698
 1054YOPC   PO415130   7.781  14.923   5.135 -0.3545  0.0660 -0.1425
 1054YOPC   GL115131   7.922  15.013   5.476  0.1755 -0.0445 -0.1803
 1054YOPC   GL215132   8.179  14.956   5.532  0.1782  0.1045 -0.0654
 1054YOPC   C1A15133   7.807  14.905   6.003  0.0137 -0.2037 -0.3847
 1054YOPC   D2A15134   7.615  15.043   6.301  0.1731  0.0302 -0.0638
 1054YOPC   C3A15135   7.224  14.784   6.370  0.0840 -0.1390 -0.0242
 1054YOPC   C4A15136   6.826  14.511   6.273  0.5231  0.2471  0.3717
 1054YOPC   C1B15137   8.269  15.166   6.010  0.3848 -0.0088  0.2558
 1054YOPC   C2B15138   8.095  15.048   6.364  0.3511  0.1057  0.1213
 1054YOPC   D3B15139   8.174  15.069   6.800  0.2225 -0.1548 -0.3431
 1054YOPC   C4B15140   8.079  15.190   7.167  0.0760  0.0311  0.0627
 1055YOPC   NC315141  18.335  10.622   4.688  0.0956  0.2770  0.1218
 1055YOPC   PO415142  18.351  10.484   5.109 -0.0845  0.1814 -0.3267
 1055YOPC   GL115143  18.350  10.469   5.588 -0.0952 -0.1149  0.3926
 1055YOPC   GL215144  18.342  10.133   5.659 -0.2308 -0.0569 -0.1418
 1055YOPC   C1A15145  18.546  10.452   5.982 -0.0638  0.0850 -0.0764
 1055YOPC   D2A15146  18.575  10.650   6.370  0.0496  0.4271 -0.2776
 1055YOPC   C3A15147  18.314  10.916   6.692  0.3054  0.1320 -0.0128
 1055YOPC   C4A15148  17.911  11.015   6.873 -0.1662  0.2274 -0.0951
 1055YOPC   C1B15149  18.643   9.893   5.843  0.0576 -0.3197 -0.0187
 1055YOPC   C2B15150  18.513   9.717   6.191  0.0261 -0.2837 -0.2717
 1055YOPC   D3B15151  18.731   9.762   6.475 -0.0216  0.1787  0.0804
 1055YOPC   C4B15152  18.934   9.719   6.933  0.1205 -0.0460  0.6241
 1056YOPC   NC315153   9.553  12.848   5.236 -0.0696  0.4418 -0.1519
 1056YOPC   PO415154   9.390  13.238   5.387 -0.0981  0.1487 -0.0968
 1056YOPC   GL115155   9.315  13.073   5.701 -0.0302 -0.3340  0.1392
 1056YOPC   GL215156   9.522  12.891   5.794 -0.0930  0.2125 -0.0064
 1056YOPC   C1A15157   9.074  12.888   5.952  0.3578  0.1295  0.2819
 1056YOPC   D2A15158   9.019  12.837   6.297 -0.1567 -0.1667  0.2778
 1056YOPC   C3A15159   9.391  12.659   6.586 -0.2188  0.1118  0.1687
 1056YOPC   C4A15160   9.512  12.780   6.986  0.1361 -0.1308  0.0483
 1056YOPC   C1B15161   9.640  12.584   6.060  0.2431 -0.2684  0.0832
 1056YOPC   C2B15162   9.631  12.269   6.342 -0.0633 -0.0419 -0.1472
 1056YOPC   D3B15163   9.636  12.298   6.865 -0.1022  0.1925  0.7434
 1056YOPC   C4B15164   9.268  12.294   6.998  0.0205  0.0808  0.2413
 1057YOPC   NC315165   7.863   9.450   4.973  0.2985  0.0770 -0.3279
 1057YOPC   PO415166   7.583   9.188   4.799  0.0336 -0.0366  0.1510
 1057YOPC   GL115167   7.431   9.210   5.179 -0.2713 -0.3635  0.2000
 1057YOPC   GL215168   7.211   8.962   5.337 -0.0078 -0.2182 -0.0563
 1057YOPC   C1A15169   7.460   9.237   5.643 -0.2571  0.0715 -0.2281
 1057YOPC   D2A15170   7.330   9.006   5.896  0.0321 -0.1689  0.1386
 1057YOPC   C3A15171   7.484   8.819   6.243 -0.3346  0.2713 -0.0508
 1057YOPC   C4A15172   7.438   8.843   6.706 -0.0463 -0.0240  0.2298
 1057YOPC   C1B15173   7.444   8.664   5.516  0.1164 -0.4174  0.1411
 1057YOPC   C2B15174   7.489   8.522   5.831 -0.0644  0.1169  0.1287
 1057YOPC   D3B15175   7.461   8.097   5.927  0.1658  0.2111  0.0950
 1057YOPC   C4B15176   7.601   7.661   6.182 -0.1430  0.1130 -0.0858
 1058YOPC   NC315177  19.287  11.365   5.809  0.0874  0.1441 -0.2016
 1058YOPC   PO415178  19.069  11.792   5.615  0.1472  0.1448  0.1318
 1058YOPC   GL115179  19.112  11.985   6.035 -0.1397  0.0802  0.3806
 1058YOPC   GL215180  18.925  12.258   5.937 -0.0781  0.0300  0.1156
 1058YOPC   C1A15181  19.121  12.055   6.455 -0.0627 -0.0820 -0.5349
 1058YOPC   D2A15182  18.752  12.041   6.736 -0.0871  0.1221  0.0828
 1058YOPC   C3A15183  18.939  12.162   7.102 -0.0430 -0.3797 -0.1400
 1058YOPC   C4A15184  18.983  12.181   7.602 -0.1735 -0.0855  0.3034
 1058YOPC   C1B15185  18.754  12.474   6.361  0.0060  0.0821  0.2407
 1058YOPC   C2B15186  18.853  12.912   6.576 -0.2060 -0.1426 -0.0663
 1058YOPC   D3B15187  19.070  13.162   7.047 -0.0086 -0.1322 -0.0173
 1058YOPC   C4B15188  19.302  13.185   7.356 -0.1884 -0.1152  0.1001
 1059YOPC   NC315189   3.285   1.229   4.405 -0.0032  0.0882  0.2337
 1059YOPC   PO415190   3.122   1.372   4.858  0.4052  0.1208 -0.1747
 1059YOPC   GL115191   2.946   1.505   5.328 -0.1370  0.3615 -0.3199
 1059YOPC   GL215192   3.243   1.552   5.490 -0.1965 -0.2967 -0.1232
 1059YOPC   C1A15193   2.746   1.639   5.743 -0.2479  0.2507  0.0550
 1059YOPC   D2A15194   2.669   1.692   6.081  0.2235  0.2022 -0.2434
 1059YOPC   C3A15195   2.393   1.599   6.531  0.1126  0.0061  0.1247
 1059YOPC   C4A15196   2.046   1.552   6.832  0.0633 -0.1303 -0.1891
 1059YOPC   C1B15197   3.009   1.195   5.806 -0.0485  0.2435 -0.0698
 1059YOPC   C2B15198   3.374   0.950   5.978  0.5229 -0.2419  0.0199
 1059YOPC   D3B15199   3.566   0.781   5.653  0.3236 -0.3917 -0.1436
 1059YOPC   C4B15200   3.482   0.361   5.519  0.4510 -0.1484  0.1455
 1060YOPC   NC315201   8.661  12.547   5.029  0.0817 -0.0595 -0.2025
 1060YOPC   PO415202   8.235  12.557   5.072 -0.0062 -0.3792  0.2640
 1060YOPC   GL115203   8.265  12.339   5.444  0.1521  0.1910 -0.0119
 1060YOPC   GL215204   8.112  12.106   5.333 -0.0810  0.1717 -0.0275
 1060YOPC   C1A15205   8.280  12.183   5.872  0.0628 -0.2070  0.1630
 1060YOPC   D2A15206   7.996  12.336   6.133  0.1701 -0.1464 -0.3182
 1060YOPC   C3A15207   7.790  12.454   6.576 -0.1646  0.1629 -0.0459
 1060YOPC   C4A15208   7.586  12.645   6.914  0.0886 -0.1512 -0.1029
 1060YOPC   C1B15209   7.770  12.044   5.592  0.1335  0.1744 -0.1869
 1060YOPC   C2B15210   7.717  12.002   5.965  0.1296 -0.2310 -0.1182
 1060YOPC   D3B15211   7.540  12.057   6.344  0.0085  0.1368 -0.4182
 1060YOPC   C4B15212   7.305  12.332   6.588 -0.2473 -0.2520 -0.0434
 1061YOPC   NC315213  19.228  16.338   5.639  0.1627  0.1627  0.0908
 1061YOPC   PO415214  19.704  16.321   5.604  0.5054  0.2530  0.1531
 1061YOPC   GL115215  19.649  16.418   5.969 -0.2666 -0.2256  0.0095
 1061YOPC   GL215216  19.888  16.796   6.096  0.3387 -0.0558  0.3886
 1061YOPC   C1A15217  19.293  16.117   6.257 -0.0368  0.1342 -0.1136
 1061YOPC   D2A15218  19.147  16.296   6.560  0.1963 -0.1343 -0.0632
 1061YOPC   C3A15219  18.742  16.546   6.558 -0.0196 -0.1323  0.5742
 1061YOPC   C4A15220  18.405  16.758   6.721 -0.1029 -0.2434 -0.3246
 1061YOPC   C1B15221  19.820  17.237   6.242 -0.1444 -0.3291 -0.2499
 1061YOPC   C2B15222  19.935  17.514   6.536 -0.1055  0.0529 -0.0479
 1061YOPC   D3B15223  20.338  17.618   6.636  0.0616  0.1465  0.0744
 1061YOPC   C4B15224  20.851  17.725   6.652 -0.2707 -0.2075  0.0239
 1062YOPC   NC315225  16.076   9.967   5.088  0.0985 -0.3245  0.0505
 1062YOPC   PO415226  15.898   9.945   5.582  0.2579  0.1385 -0.1528
 1062YOPC   GL115227  16.032  10.034   6.076 -0.3170 -0.0871 -0.1216
 1062YOPC   GL215228  16.135   9.802   6.180  0.3064  0.0752 -0.0012
 1062YOPC   C1A15229  16.146  10.143   6.579  0.1763  0.4264 -0.2211
 1062YOPC   D2A15230  16.083   9.912   6.929  0.0193 -0.1356  0.1183
 1062YOPC   C3A15231  16.279   9.595   6.917 -0.0058 -0.2964 -0.0004
 1062YOPC   C4A15232  16.640   9.754   6.749  0.2924  0.0940  0.5270
 1062YOPC   C1B15233  16.142   9.438   6.441 -0.0359 -0.0461 -0.0491
 1062YOPC   C2B15234  15.740   9.210   6.589 -0.0488 -0.0009  0.4782
 1062YOPC   D3B15235  15.782   9.292   6.983  0.4077 -0.0847 -0.1201
 1062YOPC   C4B15236  15.815   9.452   7.404  0.1488  0.2631  0.1625
 1063YOPC   NC315237  14.765   6.637   5.128 -0.2949 -0.0822  0.2781
 1063YOPC   PO415238  15.080   6.888   4.944 -0.2416 -0.4950 -0.1625
 1063YOPC   GL115239  15.080   6.924   5.401 -0.0337  0.0516 -0.2013
 1063YOPC   GL215240  15.351   7.048   5.617 -0.0707  0.0959  0.1138
 1063YOPC   C1A15241  14.910   6.704   5.804 -0.1674  0.0644 -0.2041
 1063YOPC   D2A15242  14.771   6.851   6.149  0.0421  0.3385  0.1172
 1063YOPC   C3A15243  14.923   6.709   6.532  0.0175 -0.2856 -0.0509
 1063YOPC   C4A15244  15.144   6.633   6.814 -0.0942 -0.0759  0.2696
 1063YOPC   C1B15245  15.113   7.276   5.940 -0.1021 -0.2347 -0.3137
 1063YOPC   C2B15246  14.925   7.248   6.429 -0.1435 -0.1327  0.2769
 1063YOPC   D3B15247  14.746   7.507   6.668 -0.1591  0.1008 -0.0156
 1063YOPC   C4B15248  14.618   7.515   7.063 -0.0709 -0.1577  0.2987
 1064YOPC   NC315249   0.680  18.672   5.310  0.1316 -0.0137 -0.2017
 1064YOPC   PO415250   0.641  18.410   5.686  0.1133 -0.1574  0.1993
 1064YOPC   GL115251   0.543  18.483   6.152  0.3621 -0.2816 -0.0268
 1064YOPC   GL215252   0.226  18.268   6.051 -0.4094  0.0955  0.2170
 1064YOPC   C1A15253   0.760  18.484   6.497  0.2455  0.0669  0.2123
 1064YOPC   D2A15254   0.733  18.731   6.898  0.2428 -0.0279  0.2264
 1064YOPC   C3A15255   0.817  19.153   7.002 -0.2601 -0.0315 -0.1372
 1064YOPC   C4A15256   1.067  19.588   7.093 -0.0730 -0.0044  0.0091
 1064YOPC   C1B15257   0.061  18.457   6.312  0.0897  0.3193  0.1423
 1064YOPC   C2B15258   0.219  18.603   6.748  0.1052  0.1577  0.2393
 1064YOPC   D3B15259   0.570  18.297   6.960  0.1167 -0.0222 -0.3185
 1064YOPC   C4B15260   0.614  17.943   7.188 -0.3188 -0.1473 -0.0529
 1065YOPC   NC315261   2.714   7.328   4.377 -0.0010 -0.2557  0.0960
 1065YOPC   PO415262   2.815   7.067   4.800 -0.1814  0.0559  0.3686
 1065YOPC   GL115263   2.899   6.956   5.214 -0.2711  0.0673 -0.1428
 1065YOPC   GL215264   3.193   7.228   5.302 -0.0391 -0.0212 -0.0607
 1065YOPC   C1A15265   2.973   6.898   5.651 -0.1605 -0.0184 -0.2414
 1065YOPC   D2A15266   3.290   7.052   5.971  0.1809  0.1010  0.1530
 1065YOPC   C3A15267   3.535   7.456   5.973  0.1513 -0.2084 -0.2789
 1065YOPC   C4A15268   4.066   7.574   6.095  0.0796 -0.3282  0.0060
 1065YOPC   C1B15269   3.455   6.926   5.386  0.1971  0.1036  0.3474
 1065YOPC   C2B15270   3.833   6.751   5.597 -0.0636 -0.3135 -0.1115
 1065YOPC   D3B15271   4.017   6.484   5.869 -0.3629  0.0710 -0.0680
 1065YOPC   C4B15272   4.298   6.375   6.238 -0.1380  0.1282  0.2495
 1066YOPC   NC315273   7.417  14.625   5.330 -0.0906 -0.1864  0.2370
 1066YOPC   PO415274   7.876  14.431   5.284 -0.1153 -0.0638  0.1387
 1066YOPC   GL115275   7.917  14.461   5.643  0.0161  0.3383  0.1090
 1066YOPC   GL215276   7.576  14.433   5.731  0.0762  0.2913  0.1823
 1066YOPC   C1A15277   8.290  14.607   6.005 -0.2159  0.0696 -0.2242
 1066YOPC   D2A15278   8.421  14.391   6.316  0.4328  0.0525  0.1064
 1066YOPC   C3A15279   8.290  14.228   6.729 -0.0326 -0.0695 -0.1137
 1066YOPC   C4A15280   8.215  14.211   7.107 -0.0535  0.2569 -0.2373
 1066YOPC   C1B15281   7.294  14.220   6.028 -0.0791 -0.3471 -0.0692
 1066YOPC   C2B15282   7.354  14.314   6.520 -0.1377 -0.4405  0.2789
 1066YOPC   D3B15283   7.238  14.057   6.883  0.1437  0.0298 -0.2117
 1066YOPC   C4B15284   7.091  14.215   7.312 -0.3114 -0.1246  0.1306
 1067YOPC   NC315285   8.282  11.194   5.129  0.2834 -0.2224  0.0899
 1067YOPC   PO415286   8.435  11.644   5.311 -0.0388 -0.1073 -0.0993
 1067YOPC   GL115287   8.332  11.691   5.728  0.0985 -0.1848  0.0887
 1067YOPC   GL215288   7.992  11.581   5.747 -0.1665 -0.2214 -0.2695
 1067YOPC   C1A15289   8.194  11.766   6.146  0.0772  0.0596 -0.4006
 1067YOPC   D2A15290   8.027  12.033   6.581 -0.0227  0.0220 -0.1421
 1067YOPC   C3A15291   8.506  12.074   6.854 -0.0426 -0.1280 -0.0108
 1067YOPC   C4A15292   8.768  12.326   6.880 -0.0261  0.0770  0.2884
 1067YOPC   C1B15293   7.719  11.503   5.997  0.2948  0.1150  0.0793
 1067YOPC   C2B15294   7.317  11.352   6.199 -0.0169 -0.0678 -0.4624
 1067YOPC   D3B15295   7.033  11.086   6.106  0.0183  0.0587 -0.1042
 1067YOPC   C4B15296   7.058  10.709   5.969  0.0200  0.1854 -0.1955
 1068YOPC   NC315297  15.737  19.459   5.404  0.0070 -0.3013 -0.3128
 1068YOPC   PO415298  16.013  19.783   5.565 -0.2058 -0.1118 -0.2602
 1068YOPC   GL115299  16.093  20.025   5.942  0.0353  0.0251 -0.0636
 1068YOPC   GL215300  16.319  20.296   5.986 -0.3285 -0.2722  0.0798
 1068YOPC   C1A15301  15.835  20.337   6.232 -0.1599 -0.1048  0.1464
 1068YOPC   D2A15302  15.756  20.584   6.679  0.0676 -0.0650  0.0408
 1068YOPC   C3A15303  15.779  20.147   6.912 -0.1127 -0.0824  0.0846
 1068YOPC   C4A15304  15.869  19.907   7.208  0.2014  0.3361  0.1562
 1068YOPC   C1B15305  16.559  20.429   6.353 -0.1342 -0.1991  0.3821
 1068YOPC   C2B15306  16.734  20.744   6.679 -0.0146 -0.2303 -0.0128
 1068YOPC   D3B15307  17.142  20.889   6.804 -0.1090 -0.2315 -0.2093
 1068YOPC   C4B15308  17.476  20.747   6.824  0.0462  0.0127 -0.1274
 1069YOPC   NC315309  16.634   7.760   5.213  0.2452  0.3567  0.2325
 1069YOPC   PO415310  17.061   7.697   5.427 -0.2233  0.1070  0.1020
 1069YOPC   GL115311  16.737   7.603   5.720  0.2712 -0.0207 -0.0790
 1069YOPC   GL215312  16.649   7.330   5.832  0.1210  0.0960 -0.1703
 1069YOPC   C1A15313  16.190   7.623   5.777 -0.1549  0.1460 -0.2395
 1069YOPC   D2A15314  15.772   7.545   5.689  0.0253 -0.4595 -0.2794
 1069YOPC   C3A15315  15.554   7.419   6.053  0.0849  0.0802 -0.1546
 1069YOPC   C4A15316  15.390   7.551   6.433 -0.0017 -0.1268 -0.2474
 1069YOPC   C1B15317  16.960   6.980   5.950 -0.2863  0.2141  0.0089
 1069YOPC   C2B15318  17.050   6.797   6.315 -0.1979  0.0074 -0.1612
 1069YOPC   D3B15319  17.082   6.356   6.360  0.1870 -0.0664  0.0281
 1069YOPC   C4B15320  16.859   5.915   6.293  0.0316 -0.2650 -0.1755
 1070YOPC   NC315321   2.654   4.528   4.831  0.0068 -0.0147 -0.2201
 1070YOPC   PO415322   3.061   4.814   4.712 -0.0536 -0.2509  0.2039
 1070YOPC   GL115323   3.221   4.940   5.109 -0.5962 -0.0664  0.1065
 1070YOPC   GL215324   2.904   4.882   5.199  0.1563  0.3616 -0.4807
 1070YOPC   C1A15325   3.510   4.674   5.357 -0.0269 -0.4827 -0.0559
 1070YOPC   D2A15326   3.314   4.370   5.628 -0.1706 -0.0182 -0.1770
 1070YOPC   C3A15327   3.567   4.283   5.995  0.0581 -0.0258 -0.1951
 1070YOPC   C4A15328   3.921   4.103   6.096  0.1571  0.4215 -0.4107
 1070YOPC   C1B15329   2.961   4.767   5.550  0.1900  0.1549  0.2213
 1070YOPC   C2B15330   2.854   4.420   5.781  0.1231 -0.0426 -0.2775
 1070YOPC   D3B15331   2.591   4.155   6.071  0.4329  0.0917  0.1868
 1070YOPC   C4B15332   2.682   3.887   6.429  0.0067  0.2378  0.2239
 1071YOPC   NC315333   0.694  14.648   5.396  0.2758 -0.1081  0.4509
 1071YOPC   PO415334   0.343  14.976   5.338  0.2291 -0.1717 -0.0941
 1071YOPC   GL115335   0.367  15.003   5.743  0.0771 -0.0844 -0.1082
 1071YOPC   GL215336  -0.055  14.841   5.976  0.0853 -0.1652  0.2208
 1071YOPC   C1A15337   0.468  14.776   6.034  0.0368  0.0505 -0.0134
 1071YOPC   D2A15338   0.777  14.754   6.431  0.2602  0.4148 -0.4548
 1071YOPC   C3A15339   1.063  15.033   6.617 -0.1932 -0.3011  0.5145
 1071YOPC   C4A15340   1.329  15.301   6.869  0.1730  0.1269  0.0547
 1071YOPC   C1B15341  -0.016  15.174   6.304  0.0911  0.2819  0.1961
 1071YOPC   C2B15342  -0.023  15.339   6.628  0.1003  0.2822 -0.1139
 1071YOPC   D3B15343  -0.121  15.864   6.728 -0.0857 -0.2371  0.4317
 1071YOPC   C4B15344   0.070  16.244   6.840  0.1577  0.1898  0.2797
 1072YOPC   NC315345  16.447   9.054   5.057  0.2194  0.2379  0.0022
 1072YOPC   PO415346  15.997   9.015   5.273  0.1745  0.0891  0.0649
 1072YOPC   GL115347  15.897   8.920   5.692  0.0143  0.3512 -0.3229
 1072YOPC   GL215348  16.099   8.831   5.846 -0.0986  0.2622  0.0811
 1072YOPC   C1A15349  15.547   8.934   5.978 -0.0719  0.0467 -0.4019
 1072YOPC   D2A15350  15.330   8.985   6.418  0.1060 -0.0895  0.2454
 1072YOPC   C3A15351  15.230   8.685   6.686  0.2115 -0.1338  0.2934
 1072YOPC   C4A15352  15.172   8.380   6.752 -0.1553  0.3309 -0.5410
 1072YOPC   C1B15353  16.044   8.877   6.328 -0.3338 -0.0637 -0.0124
 1072YOPC   C2B15354  15.676   8.653   6.418 -0.0742 -0.1474 -0.1337
 1072YOPC   D3B15355  15.688   8.380   6.695 -0.4161 -0.2580  0.1859
 1072YOPC   C4B15356  15.568   8.319   7.179 -0.0024  0.1867  0.3702
 1073YOPC   NC315357  16.370  17.621   5.711 -0.0124  0.1886  0.0984
 1073YOPC   PO415358  16.693  17.811   5.519  0.1398  0.0256 -0.2851
 1073YOPC   GL115359  16.791  17.832   5.928 -0.2120 -0.3685 -0.1285
 1073YOPC   GL215360  16.518  17.862   6.194  0.0006  0.3624 -0.1987
 1073YOPC   C1A15361  17.027  18.013   6.408  0.3601  0.1257  0.1749
 1073YOPC   D2A15362  17.269  17.929   6.810 -0.1615  0.1359 -0.1881
 1073YOPC   C3A15363  17.349  18.329   7.017 -0.2225 -0.1636  0.0091
 1073YOPC   C4A15364  17.598  18.653   7.226  0.0942  0.2203  0.0467
 1073YOPC   C1B15365  16.609  18.340   6.168  0.0011 -0.0784  0.0275
 1073YOPC   C2B15366  16.719  18.725   6.313 -0.2419 -0.3019  0.4935
 1073YOPC   D3B15367  16.587  18.841   6.722 -0.2402 -0.0285 -0.1326
 1073YOPC   C4B15368  16.244  19.136   6.976 -0.2030  0.2405 -0.2974
 1074YOPC   NC315369   0.153   8.966   4.920 -0.2126 -0.2992 -0.5171
 1074YOPC   PO415370   0.186   9.247   5.262  0.0205 -0.0087  0.1545
 1074YOPC   GL115371   0.151   9.183   5.666  0.2182  0.3641 -0.0788
 1074YOPC   GL215372   0.439   9.069   5.824  0.1223 -0.1442 -0.2964
 1074YOPC   C1A15373  -0.099   9.145   5.917  0.0417  0.0013 -0.2155
 1074YOPC   D2A15374  -0.174   9.203   6.348  0.1316  0.1114  0.1225
 1074YOPC   C3A15375  -0.088   8.924   6.679  0.1838  0.2591 -0.1995
 1074YOPC   C4A15376  -0.457   8.744   6.729  0.1074  0.2132  0.0745
 1074YOPC   C1B15377   0.768   9.081   6.136 -0.0095  0.0825 -0.3442
 1074YOPC   C2B15378   0.930   9.040   6.592 -0.2296  0.1172  0.1790
 1074YOPC   D3B15379   0.613   9.291   6.865 -0.0520  0.1599 -0.1512
 1074YOPC   C4B15380   0.336   9.541   7.099 -0.0965  0.5484 -0.2332
 1075YOPC   NC315381  11.020   4.208   4.837  0.2108  0.1081  0.0907
 1075YOPC   PO415382  10.779   3.838   4.937 -0.0338 -0.2021  0.1398
 1075YOPC   GL115383  11.098   3.853   5.204 -0.0089 -0.3775  0.1934
 1075YOPC   GL215384  11.220   4.125   5.269 -0.2520 -0.3668 -0.3004
 1075YOPC   C1A15385  10.946   3.982   5.628 -0.0046 -0.0655  0.0477
 1075YOPC   D2A15386  10.724   4.305   5.896  0.1729  0.0896  0.1203
 1075YOPC   C3A15387  10.783   4.679   5.979  0.1461 -0.2618 -0.1036
 1075YOPC   C4A15388  10.514   4.956   6.174 -0.0352  0.2280 -0.0701
 1075YOPC   C1B15389  11.498   3.906   5.532 -0.2270  0.4378  0.1057
 1075YOPC   C2B15390  11.432   3.819   5.967  0.0871  0.1473 -0.0101
 1075YOPC   D3B15391  11.320   3.661   6.316 -0.3742  0.0654  0.3046
 1075YOPC   C4B15392  11.112   3.842   6.592 -0.1863  0.1063 -0.0703
 1076YOPC   NC315393  11.510  15.545   5.192  0.1109 -0.1197  0.1993
 1076YOPC   PO415394  11.588  15.917   5.331 -0.2940 -0.0677  0.0068
 1076YOPC   GL115395  11.634  16.119   5.739 -0.1529  0.2472  0.3410
 1076YOPC   GL215396  11.927  15.955   5.935  0.1549 -0.0512  0.2204
 1076YOPC   C1A15397  11.568  16.365   6.138 -0.2830  0.0471  0.0403
 1076YOPC   D2A15398  11.760  16.743   6.434  0.2165 -0.1294 -0.0400
 1076YOPC   C3A15399  11.568  17.144   6.323 -0.3033 -0.1477 -0.2934
 1076YOPC   C4A15400  11.364  17.437   6.527  0.2307  0.2648  0.0462
 1076YOPC   C1B15401  11.987  16.065   6.232 -0.0221  0.1394 -0.1135
 1076YOPC   C2B15402  12.119  15.975   6.608  0.2235 -0.1530  0.1377
 1076YOPC   D3B15403  11.828  15.712   6.796  0.0254 -0.1240 -0.3276
 1076YOPC   C4B15404  11.480  15.551   6.695  0.2590  0.2912  0.3300
 1077YOPC   NC315405  10.919   7.487   5.059  0.0560 -0.1569  0.0756
 1077YOPC   PO415406  11.153   7.274   4.860 -0.0317  0.0282 -0.0895
 1077YOPC   GL115407  10.906   6.936   5.210  0.3473 -0.1258  0.2134
 1077YOPC   GL215408  10.673   7.109   5.353  0.2828  0.2554 -0.4593
 1077YOPC   C1A15409  11.062   6.609   5.420  0.2755 -0.2356  0.0363
 1077YOPC   D2A15410  11.367   6.482   5.601  0.3532  0.0022  0.2268
 1077YOPC   C3A15411  11.459   6.513   6.064  0.1570 -0.0354  0.2752
 1077YOPC   C4A15412  11.365   6.275   6.368 -0.0285 -0.2322  0.1190
 1077YOPC   C1B15413  10.528   6.707   5.537  0.1085  0.2513 -0.2003
 1077YOPC   C2B15414  10.536   6.265   5.681  0.1670  0.0222 -0.2926
 1077YOPC   D3B15415  10.877   6.131   5.413  0.1239 -0.2846 -0.2167
 1077YOPC   C4B15416  11.156   5.896   5.230  0.2961  0.1453 -0.1342
 1078YOPC   NC315417  14.283  17.664   5.738 -0.2291 -0.1754  0.0240
 1078YOPC   PO415418  14.222  17.222   5.546  0.2301 -0.5698  0.2176
 1078YOPC   GL115419  14.468  17.009   5.936 -0.1811  0.0982 -0.1998
 1078YOPC   GL215420  14.243  16.953   6.171  0.0041 -0.1674 -0.0677
 1078YOPC   C1A15421  14.565  17.094   6.471  0.3103  0.0006 -0.3290
 1078YOPC   D2A15422  14.711  17.218   6.924 -0.0308  0.0848  0.1301
 1078YOPC   C3A15423  14.551  17.541   7.203 -0.1190  0.0502 -0.2985
 1078YOPC   C4A15424  14.699  17.684   7.549 -0.0041  0.1586 -0.1669
 1078YOPC   C1B15425  14.107  16.695   6.349  0.1927  0.1263 -0.0269
 1078YOPC   C2B15426  14.008  16.411   6.687  0.0714 -0.1238  0.3122
 1078YOPC   D3B15427  14.004  16.581   7.063 -0.0262 -0.1881  0.0591
 1078YOPC   C4B15428  13.814  16.287   7.286 -0.1288 -0.2863 -0.0407
 1079YOPC   NC315429  17.210   3.139   5.050 -0.0035  0.2181  0.0439
 1079YOPC   PO415430  16.909   3.416   5.275  0.0751  0.2951 -0.0520
 1079YOPC   GL115431  17.120   3.243   5.608  0.1029  0.1901 -0.2363
 1079YOPC   GL215432  16.953   3.572   5.785 -0.0324 -0.1048  0.3396
 1079YOPC   C1A15433  17.213   3.238   6.057 -0.3086  0.0759 -0.1925
 1079YOPC   D2A15434  17.368   3.006   6.366 -0.1620  0.1864 -0.2865
 1079YOPC   C3A15435  17.223   2.613   6.415  0.0120  0.2707  0.2320
 1079YOPC   C4A15436  17.022   2.289   6.692 -0.2729 -0.2894 -0.1683
 1079YOPC   C1B15437  16.871   3.545   6.153  0.1711  0.0970 -0.1251
 1079YOPC   C2B15438  16.990   3.487   6.622 -0.2225  0.2759 -0.1071
 1079YOPC   D3B15439  17.165   3.095   6.853  0.0769 -0.1132 -0.0794
 1079YOPC   C4B15440  17.392   2.677   6.908 -0.0200 -0.1248 -0.0094
 1080YOPC   NC315441   2.306  11.191   5.491 -0.1483  0.0129  0.2589
 1080YOPC   PO415442   2.729  10.947   5.347 -0.0188 -0.0039  0.0535
 1080YOPC   GL115443   2.542  10.931   5.833  0.1091  0.1217 -0.0222
 1080YOPC   GL215444   2.274  10.812   5.759 -0.0189  0.0010 -0.2349
 1080YOPC   C1A15445   2.682  10.984   6.185  0.0084 -0.0584 -0.0680
 1080YOPC   D2A15446   2.907  11.102   6.464 -0.0571 -0.0072  0.1047
 1080YOPC   C3A15447   3.273  10.900   6.585 -0.1783 -0.0338  0.4556
 1080YOPC   C4A15448   3.519  10.586   6.799  0.2171 -0.0314  0.2189
 1080YOPC   C1B15449   1.939  10.931   6.081 -0.0873  0.0869 -0.2805
 1080YOPC   C2B15450   1.607  10.790   6.242 -0.0903  0.3354  0.1011
 1080YOPC   D3B15451   1.569  10.298   6.254 -0.1244 -0.1559 -0.0110
 1080YOPC   C4B15452   1.892  10.043   6.526  0.1418  0.3099  0.0462
 1081YOPC   NC315453   8.269  14.215   5.189 -0.3927 -0.0058  0.0586
 1081YOPC   PO415454   8.693  14.015   5.262  0.0452 -0.0921  0.1567
 1081YOPC   GL115455   8.892  13.826   5.716  0.0045  0.0541  0.1069
 1081YOPC   GL215456   9.179  13.556   5.764 -0.0995 -0.3561  0.0275
 1081YOPC   C1A15457   8.875  13.780   6.209 -0.3638  0.0843 -0.0259
 1081YOPC   D2A15458   8.699  13.972   6.566 -0.0219 -0.0429 -0.4354
 1081YOPC   C3A15459   8.748  14.176   6.970  0.3691  0.1161  0.0547
 1081YOPC   C4A15460   9.050  14.297   7.253 -0.1486  0.2200  0.0764
 1081YOPC   C1B15461   9.180  13.343   6.194 -0.3164  0.1369  0.1132
 1081YOPC   C2B15462   9.280  13.195   6.650 -0.0425  0.0859  0.2170
 1081YOPC   D3B15463   9.207  13.189   7.081 -0.1660 -0.2062 -0.0417
 1081YOPC   C4B15464   8.958  13.224   7.424 -0.2131  0.0640  0.0670
 1082YOPC   NC315465   3.921  17.361   4.871  0.0995  0.1658  0.0762
 1082YOPC   PO415466   3.649  17.140   5.133 -0.3770  0.0783  0.0293
 1082YOPC   GL115467   3.714  17.105   5.617  0.0375 -0.1830  0.1503
 1082YOPC   GL215468   4.029  16.991   5.594 -0.3913  0.1622 -0.0668
 1082YOPC   C1A15469   3.521  17.191   6.064  0.4058  0.2607  0.0744
 1082YOPC   D2A15470   3.219  17.479   6.343 -0.1764 -0.2860  0.5236
 1082YOPC   C3A15471   3.397  17.882   6.391 -0.0453  0.2749 -0.1020
 1082YOPC   C4A15472   3.545  18.315   6.175  0.2220  0.2762 -0.0548
 1082YOPC   C1B15473   4.076  17.076   5.975 -0.3984  0.2274 -0.1280
 1082YOPC   C2B15474   3.875  17.154   6.392 -0.0522 -0.0184  0.0544
 1082YOPC   D3B15475   3.417  17.129   6.602 -0.0719  0.2145 -0.0507
 1082YOPC   C4B15476   3.286  17.305   7.011 -0.4063 -0.1580 -0.2696
 1083YOPC   NC315477  16.044   1.274   5.365 -0.1013  0.1061 -0.0470
 1083YOPC   PO415478  15.582   1.397   5.486  0.1056 -0.2242  0.1299
 1083YOPC   GL115479  15.722   1.464   5.872  0.0696 -0.4565  0.0408
 1083YOPC   GL215480  15.645   1.252   6.165 -0.0022 -0.2649 -0.0213
 1083YOPC   C1A15481  15.920   1.746   6.131  0.2675  0.1518 -0.1280
 1083YOPC   D2A15482  15.875   1.945   6.506  0.4165  0.3620 -0.0951
 1083YOPC   C3A15483  15.759   1.735   6.844 -0.2241  0.1788  0.2608
 1083YOPC   C4A15484  15.469   1.440   6.990 -0.2452 -0.1417  0.4652
 1083YOPC   C1B15485  15.487   1.613   6.366  0.4898  0.0258  0.0574
 1083YOPC   C2B15486  15.360   2.020   6.415  0.0597 -0.1073 -0.1029
 1083YOPC   D3B15487  15.417   2.135   6.771 -0.0445  0.0435  0.3400
 1083YOPC   C4B15488  15.759   2.226   6.983  0.0761  0.1939  0.2377
 1084YOPC   NC315489   6.689   0.821   4.374  0.1807  0.0196 -0.1333
 1084YOPC   PO415490   6.429   1.144   4.679  0.3211 -0.3108  0.0138
 1084YOPC   GL115491   6.447   1.325   5.063 -0.2005 -0.1090 -0.1526
 1084YOPC   GL215492   6.159   1.111   5.229 -0.1646 -0.0623  0.0754
 1084YOPC   C1A15493   6.416   1.383   5.558  0.0578 -0.1343  0.0906
 1084YOPC   D2A15494   6.295   1.696   5.804 -0.0116 -0.2595 -0.2126
 1084YOPC   C3A15495   6.370   1.820   6.235 -0.1185 -0.0397 -0.0806
 1084YOPC   C4A15496   6.622   1.514   6.516  0.1212  0.3126 -0.0164
 1084YOPC   C1B15497   6.415   0.852   5.409 -0.0765  0.3497  0.0608
 1084YOPC   C2B15498   6.337   0.617   5.763  0.0885 -0.0023  0.0640
 1084YOPC   D3B15499   6.138   0.927   6.009  0.2417  0.1084  0.0362
 1084YOPC   C4B15500   6.136   1.233   6.372  0.0162  0.2356  0.2748
 1085YOPC   NC315501  12.930  16.478   5.708  0.1142 -0.0238  0.2114
 1085YOPC   PO415502  12.516  16.500   5.538  0.0658  0.0939 -0.0228
 1085YOPC   GL115503  12.474  16.397   5.944 -0.1378 -0.1818 -0.0549
 1085YOPC   GL215504  12.083  16.454   5.890  0.1990  0.1219  0.1476
 1085YOPC   C1A15505  12.444  16.173   6.257 -0.1147 -0.0928 -0.2240
 1085YOPC   D2A15506  12.572  15.799   6.421  0.3573  0.0599 -0.0188
 1085YOPC   C3A15507  12.895  15.694   6.775 -0.1410  0.0789 -0.2396
 1085YOPC   C4A15508  13.194  15.509   7.049  0.1956 -0.0567  0.0773
 1085YOPC   C1B15509  12.299  16.601   6.357  0.0024  0.1114  0.1223
 1085YOPC   C2B15510  12.276  16.748   6.811 -0.4111 -0.0812  0.0682
 1085YOPC   D3B15511  11.869  16.763   7.131  0.1877  0.0643 -0.0812
 1085YOPC   C4B15512  11.610  17.078   7.429 -0.0716  0.2408  0.0916
 1086YOPC   NC315513  17.322   8.238   5.492 -0.1166 -0.0782 -0.1419
 1086YOPC   PO415514  17.574   8.477   5.250 -0.1426  0.1861 -0.0352
 1086YOPC   GL115515  17.814   8.626   5.679  0.0005  0.1790  0.0439
 1086YOPC   GL215516  17.971   8.827   5.669  0.0656  0.0325  0.0335
 1086YOPC   C1A15517  18.055   8.491   5.997 -0.1338  0.0537  0.2112
 1086YOPC   D2A15518  18.208   8.308   6.379 -0.0869 -0.3378  0.0511
 1086YOPC   C3A15519  18.542   8.602   6.727 -0.0740  0.2562 -0.1746
 1086YOPC   C4A15520  18.275   8.696   7.083 -0.0272 -0.3974  0.0701
 1086YOPC   C1B15521  18.148   9.059   6.051 -0.1457  0.0495  0.3553
 1086YOPC   C2B15522  18.155   9.383   6.427 -0.0365  0.2575  0.0027
 1086YOPC   D3B15523  18.409   9.630   6.803  0.3329  0.0935  0.1241
 1086YOPC   C4B15524  18.264   9.682   7.176 -0.0535 -0.3187 -0.1558
 1087YOPC   NC315525  10.531  19.037   5.213 -0.0377 -0.2395 -0.0445
 1087YOPC   PO415526  10.646  19.230   5.698  0.2025  0.1750  0.0543
 1087YOPC   GL115527  10.632  18.886   6.041 -0.2829  0.0891 -0.1825
 1087YOPC   GL215528  10.412  18.955   6.210 -0.2197 -0.1252  0.0879
 1087YOPC   C1A15529  10.841  18.755   6.404  0.0523  0.1106 -0.3201
 1087YOPC   D2A15530  10.747  18.729   6.776  0.6299 -0.0047  0.5537
 1087YOPC   C3A15531  11.082  18.567   7.090 -0.1865  0.2260  0.0201
 1087YOPC   C4A15532  10.806  18.546   7.457  0.0115 -0.1653 -0.4342
 1087YOPC   C1B15533  10.246  19.317   6.505 -0.2806  0.3069  0.0475
 1087YOPC   C2B15534  10.107  19.252   6.909 -0.2229  0.0539  0.3006
 1087YOPC   D3B15535  10.063  19.546   7.211  0.0642 -0.0430  0.1649
 1087YOPC   C4B15536   9.832  19.634   7.475  0.1749 -0.1158  0.1975
 1088YOPC   NC315537   6.014   7.212   4.900  0.0071 -0.0211  0.5249
 1088YOPC   PO415538   6.389   7.221   4.609  0.0940 -0.0237  0.2335
 1088YOPC   GL115539   6.452   7.414   5.101  0.0968  0.3987  0.0288
 1088YOPC   GL215540   6.154   7.415   5.336 -0.2472  0.0766 -0.3014
 1088YOPC   C1A15541   6.650   7.581   5.395 -0.4840 -0.0383 -0.0116
 1088YOPC   D2A15542   6.627   7.675   5.870  0.1114  0.2250 -0.0478
 1088YOPC   C3A15543   6.524   8.032   6.115  0.3160  0.0834  0.0499
 1088YOPC   C4A15544   6.131   8.143   6.408  0.0599 -0.2812 -0.0909
 1088YOPC   C1B15545   6.563   7.183   5.567 -0.1461 -0.0499 -0.3202
 1088YOPC   C2B15546   6.539   6.735   5.688  0.1198  0.0882 -0.1980
 1088YOPC   D3B15547   6.149   6.443   5.719 -0.2148  0.2047  0.2415
 1088YOPC   C4B15548   6.016   6.101   5.943 -0.2512 -0.2334  0.0425
 1089YOPC   NC315549  12.912   4.862   5.135  0.2839  0.0189  0.0426
 1089YOPC   PO415550  12.859   4.428   5.051  0.0714 -0.2429 -0.2341
 1089YOPC   GL115551  13.162   4.437   5.380  0.2410  0.0940  0.2556
 1089YOPC   GL215552  13.070   4.720   5.539 -0.6237  0.0932 -0.0940
 1089YOPC   C1A15553  13.292   4.337   5.903 -0.0199 -0.1497  0.1537
 1089YOPC   D2A15554  13.245   4.382   6.356 -0.1726  0.1800 -0.0584
 1089YOPC   C3A15555  13.107   4.619   6.662  0.1041 -0.1901 -0.1132
 1089YOPC   C4A15556  13.089   4.949   6.900  0.0883 -0.0448 -0.2355
 1089YOPC   C1B15557  13.108   4.793   5.911  0.2448  0.1357  0.0511
 1089YOPC   C2B15558  13.093   4.995   6.289  0.0535  0.0031 -0.0898
 1089YOPC   D3B15559  12.693   4.926   6.499  0.0895 -0.1185  0.2055
 1089YOPC   C4B15560  12.487   4.667   6.827  0.1470  0.0784 -0.0867
 1090YOPC   NC315561   7.213   7.459   4.175  0.2182  0.4920  0.2362
 1090YOPC   PO415562   7.418   7.699   4.511  0.0744  0.0432 -0.0317
 1090YOPC   GL115563   7.509   7.564   4.902  0.3877  0.1006  0.0675
 1090YOPC   GL215564   7.376   7.283   5.042  0.2261 -0.2614  0.1759
 1090YOPC   C1A15565   7.750   7.667   5.308  0.0034  0.0415 -0.1248
 1090YOPC   D2A15566   7.844   7.658   5.737  0.1645 -0.1146 -0.3086
 1090YOPC   C3A15567   8.076   7.430   6.038  0.2073 -0.0737 -0.0977
 1090YOPC   C4A15568   8.374   7.173   6.112 -0.0003 -0.1403 -0.1446
 1090YOPC   C1B15569   7.599   7.020   5.354  0.0326  0.2944 -0.1099
 1090YOPC   C2B15570   7.813   7.165   5.626 -0.0810  0.3454  0.0993
 1090YOPC   D3B15571   8.141   6.951   5.682 -0.0809 -0.1888  0.1872
 1090YOPC   C4B15572   8.329   6.690   5.950  0.0073  0.0274 -0.1649
 1091YOPC   NC315573   3.744  11.921   5.116  0.5009  0.4572  0.1013
 1091YOPC   PO415574   3.316  11.867   5.175 -0.1291 -0.0829  0.2078
 1091YOPC   GL115575   3.251  11.728   5.567  0.1146 -0.2411  0.0111
 1091YOPC   GL215576   3.304  12.083   5.636 -0.0664 -0.0899  0.1018
 1091YOPC   C1A15577   3.100  11.717   6.054 -0.2006  0.0123 -0.1253
 1091YOPC   D2A15578   3.219  12.002   6.422  0.0614  0.0602  0.2184
 1091YOPC   C3A15579   3.503  11.890   6.739 -0.2063  0.1791 -0.3429
 1091YOPC   C4A15580   3.788  11.485   6.924  0.3217  0.3595  0.0325
 1091YOPC   C1B15581   3.484  12.221   6.057 -0.1120  0.1151  0.4621
 1091YOPC   C2B15582   3.684  12.265   6.450  0.4359 -0.1766 -0.0597
 1091YOPC   D3B15583   3.773  12.786   6.586 -0.0716  0.1543 -0.0282
 1091YOPC   C4B15584   4.131  12.937   6.810  0.1838  0.2323  0.1379
 1092YOPC   NC315585   3.873   8.110   4.915  0.3360 -0.0819 -0.0185
 1092YOPC   PO415586   4.082   8.307   5.210 -0.1041  0.2565 -0.2851
 1092YOPC   GL115587   3.757   8.366   5.458 -0.0232  0.1580  0.1325
 1092YOPC   GL215588   3.534   8.566   5.296 -0.0991 -0.3518  0.2178
 1092YOPC   C1A15589   3.675   8.177   5.767 -0.1494 -0.1451 -0.2253
 1092YOPC   D2A15590   3.419   7.917   6.181 -0.0333 -0.2566  0.3490
 1092YOPC   C3A15591   3.240   8.105   6.503  0.2237  0.1210  0.1868
 1092YOPC   C4A15592   3.198   8.090   6.917  0.5855 -0.1651  0.1646
 1092YOPC   C1B15593   3.313   8.565   5.673 -0.1836 -0.0610 -0.2510
 1092YOPC   C2B15594   3.447   8.417   6.178  0.3616  0.0795  0.0322
 1092YOPC   D3B15595   3.390   8.550   6.586 -0.0335 -0.1751 -0.0641
 1092YOPC   C4B15596   2.996   8.555   6.809  0.0922  0.2300  0.0698
 1093YOPC   NC315597  14.944  18.228   5.177 -0.3232  0.1987  0.2154
 1093YOPC   PO415598  14.777  18.454   5.640 -0.0392  0.1133  0.4244
 1093YOPC   GL115599  14.681  18.533   6.082 -0.1907  0.2022  0.3471
 1093YOPC   GL215600  14.430  18.703   5.995  0.0017 -0.1924 -0.1333
 1093YOPC   C1A15601  14.494  18.278   6.421 -0.0029 -0.2131 -0.0830
 1093YOPC   D2A15602  14.347  18.421   6.862  0.1661 -0.2419  0.0407
 1093YOPC   C3A15603  14.397  18.530   7.309 -0.0039 -0.1585  0.0550
 1093YOPC   C4A15604  14.567  18.803   7.627 -0.0483 -0.1112 -0.0386
 1093YOPC   C1B15605  14.516  18.817   6.452  0.0258  0.2411 -0.0851
 1093YOPC   C2B15606  14.518  19.233   6.623 -0.1583  0.1146  0.1003
 1093YOPC   D3B15607  14.345  19.414   6.919 -0.1522 -0.2086 -0.2082
 1093YOPC   C4B15608  14.125  19.545   7.297  0.1386  0.1806  0.2114
 1094YOPC   NC315609   9.411   4.918   4.424  0.1578  0.0648  0.1743
 1094YOPC   PO415610   8.890   5.005   4.592 -0.4861  0.1930 -0.2968
 1094YOPC   GL115611   8.683   4.748   4.836 -0.1510  0.0253 -0.2563
 1094YOPC   GL215612   8.718   4.912   5.144  0.0979  0.0551 -0.1541
 1094YOPC   C1A15613   8.369   4.372   5.047  0.0134 -0.0316 -0.1345
 1094YOPC   D2A15614   8.275   4.180   5.497  0.0559 -0.2207 -0.1556
 1094YOPC   C3A15615   7.880   4.128   5.723 -0.1614 -0.2086  0.1832
 1094YOPC   C4A15616   7.710   4.172   6.167  0.0898 -0.3837  0.1323
 1094YOPC   C1B15617   9.064   4.805   5.480  0.1916  0.0094  0.0133
 1094YOPC   C2B15618   9.269   4.514   5.750 -0.1880  0.0278  0.0188
 1094YOPC   D3B15619   9.205   4.093   5.847  0.1404 -0.2399  0.0115
 1094YOPC   C4B15620   9.465   3.895   6.146 -0.1637 -0.0362  0.1895
 1095YOPC   NC315621   4.325  12.208   4.840  0.3562  0.3298  0.1062
 1095YOPC   PO415622   4.239  11.862   5.158 -0.3430  0.0715  0.1129
 1095YOPC   GL115623   3.979  11.992   5.511 -0.2261 -0.1408  0.1355
 1095YOPC   GL215624   4.087  11.908   5.789  0.1993  0.0968 -0.0396
 1095YOPC   C1A15625   3.817  12.358   5.734  0.1519 -0.0946  0.0637
 1095YOPC   D2A15626   3.868  12.546   6.084 -0.1998 -0.3389 -0.2065
 1095YOPC   C3A15627   4.062  12.934   6.219 -0.0471  0.2998  0.0566
 1095YOPC   C4A15628   3.953  13.385   6.262  0.1889  0.2068 -0.0753
 1095YOPC   C1B15629   4.114  11.970   6.299 -0.1380  0.1553 -0.0345
 1095YOPC   C2B15630   3.999  11.904   6.696 -0.0682 -0.3765  0.0916
 1095YOPC   D3B15631   4.215  11.722   6.976 -0.1166  0.1656 -0.1054
 1095YOPC   C4B15632   4.471  11.733   7.334  0.0477 -0.0593 -0.0782
 1096YOPC   NC315633   5.373   3.449   3.892 -0.2174 -0.4516 -0.0596
 1096YOPC   PO415634   5.394   3.912   4.161 -0.0129 -0.1519  0.0227
 1096YOPC   GL115635   5.530   3.991   4.586  0.0747  0.2051  0.0252
 1096YOPC   GL215636   5.266   4.095   4.756  0.2972 -0.2076 -0.0150
 1096YOPC   C1A15637   5.779   4.014   4.922 -0.4270  0.2354 -0.2335
 1096YOPC   D2A15638   5.779   4.101   5.344  0.3666  0.1051 -0.1524
 1096YOPC   C3A15639   6.089   3.976   5.490  0.0224 -0.2853 -0.1819
 1096YOPC   C4A15640   6.468   3.890   5.677  0.0641 -0.1541  0.2701
 1096YOPC   C1B15641   5.346   3.878   5.128 -0.0027 -0.2523 -0.0214
 1096YOPC   C2B15642   5.596   3.620   5.348  0.2876  0.1123  0.4220
 1096YOPC   D3B15643   5.774   3.652   5.800  0.0990 -0.1487  0.2347
 1096YOPC   C4B15644   5.949   3.966   6.117 -0.0957 -0.1831 -0.0561
 1097YOPC   NC315645  11.869  12.988   5.745 -0.0941  0.0590  0.2246
 1097YOPC   PO415646  12.233  12.645   5.797  0.2074  0.0413  0.1082
 1097YOPC   GL115647  11.961  12.782   6.178 -0.3340 -0.0159 -0.0836
 1097YOPC   GL215648  11.739  12.998   6.249 -0.1490  0.1221 -0.1735
 1097YOPC   C1A15649  12.083  12.798   6.607 -0.0484  0.0832  0.0350
 1097YOPC   D2A15650  12.302  13.014   6.922  0.0595 -0.0840 -0.2559
 1097YOPC   C3A15651  12.457  13.053   7.281  0.0053 -0.0065  0.0464
 1097YOPC   C4A15652  12.694  13.457   7.250  0.4649  0.1312  0.1220
 1097YOPC   C1B15653  11.665  13.319   6.532 -0.3878  0.3166 -0.2156
 1097YOPC   C2B15654  11.547  13.663   6.884  0.0190  0.0014 -0.0227
 1097YOPC   D3B15655  11.274  13.649   7.238  0.0339 -0.2071 -0.1620
 1097YOPC   C4B15656  10.946  13.867   7.533 -0.3348 -0.0511  0.0497
 1098YOPC   NC315657  12.392   4.306   5.005  0.2016 -0.1736  0.0768
 1098YOPC   PO415658  12.496   3.932   5.127  0.0007 -0.2555  0.3028
 1098YOPC   GL115659  12.536   4.138   5.463 -0.1747  0.0351  0.1626
 1098YOPC   GL215660  12.144   4.069   5.519  0.0016  0.1672 -0.2188
 1098YOPC   C1A15661  12.822   4.335   5.745  0.1697  0.0387 -0.0078
 1098YOPC   D2A15662  12.771   4.499   6.177 -0.0675  0.1968  0.0040
 1098YOPC   C3A15663  12.357   4.481   6.333  0.4504 -0.1662  0.0172
 1098YOPC   C4A15664  11.901   4.662   6.303 -0.2152  0.3231  0.1015
 1098YOPC   C1B15665  12.033   3.791   5.946  0.0062  0.1390  0.1292
 1098YOPC   C2B15666  11.879   3.583   6.273 -0.1716  0.0516 -0.1446
 1098YOPC   D3B15667  11.680   3.894   6.628  0.1858  0.0226 -0.0443
 1098YOPC   C4B15668  11.677   4.396   6.821 -0.1230 -0.1726  0.3198
 1099YOPC   NC315669   4.639  15.487   5.394 -0.1217  0.0691  0.0766
 1099YOPC   PO415670   5.091  15.530   5.484  0.2628  0.1276 -0.0109
 1099YOPC   GL115671   5.243  15.658   5.850 -0.0397 -0.1336  0.0588
 1099YOPC   GL215672   5.104  15.990   6.045  0.0178  0.1605 -0.4611
 1099YOPC   C1A15673   5.564  15.768   6.203 -0.3118 -0.2306 -0.1679
 1099YOPC   D2A15674   5.521  15.607   6.609 -0.0257  0.0576  0.0471
 1099YOPC   C3A15675   5.375  15.735   7.040 -0.3193 -0.2901  0.0953
 1099YOPC   C4A15676   5.362  16.167   7.237 -0.0303 -0.1869  0.0200
 1099YOPC   C1B15677   4.943  16.205   6.306 -0.0870 -0.1981  0.2284
 1099YOPC   C2B15678   4.800  16.602   6.086 -0.3014 -0.2018  0.0841
 1099YOPC   D3B15679   4.942  17.104   6.119 -0.1697  0.2897 -0.3914
 1099YOPC   C4B15680   5.286  17.460   6.038  0.3103 -0.1215 -0.2417
 1100YOPC   NC315681   4.172  14.108   5.613  0.0465 -0.1243 -0.0790
 1100YOPC   PO415682   4.427  14.477   5.675  0.0094  0.0029  0.0392
 1100YOPC   GL115683   4.492  14.272   6.101  0.3216 -0.2962 -0.1833
 1100YOPC   GL215684   4.468  13.961   6.026  0.0801 -0.0118 -0.3066
 1100YOPC   C1A15685   4.587  14.248   6.538  0.1087 -0.0999 -0.0190
 1100YOPC   D2A15686   4.593  14.277   6.958 -0.0287  0.2261 -0.3130
 1100YOPC   C3A15687   4.698  13.979   7.331 -0.0326  0.2644  0.2871
 1100YOPC   C4A15688   5.152  13.823   7.185 -0.2178 -0.1361 -0.5227
 1100YOPC   C1B15689   4.801  13.823   6.451  0.1077 -0.1322  0.1978
 1100YOPC   C2B15690   4.623  13.416   6.627  0.1404  0.0934 -0.0029
 1100YOPC   D3B15691   4.330  13.344   6.638  0.1178 -0.3500  0.3046
 1100YOPC   C4B15692   3.870  13.336   6.738 -0.0177  0.3778  0.0726
 1101YOPC   NC315693   9.770   2.904   4.381 -0.1310 -0.0449  0.1464
 1101YOPC   PO415694   9.824   2.651   4.773 -0.2983  0.0250  0.6326
 1101YOPC   GL115695   9.430   2.591   5.030  0.0607 -0.3288  0.0740
 1101YOPC   GL215696   9.005   2.696   4.869 -0.2100 -0.0424 -0.2309
 1101YOPC   C1A15697   9.415   2.329   5.353  0.1931 -0.2463  0.1110
 1101YOPC   D2A15698   9.623   2.077   5.795 -0.1701  0.0668 -0.0782
 1101YOPC   C3A15699   9.743   1.648   5.723  0.0217  0.1966  0.2625
 1101YOPC   C4A15700   9.656   1.363   5.888 -0.0811 -0.0179  0.1756
 1101YOPC   C1B15701   8.901   2.768   5.316  0.1788 -0.2515  0.0263
 1101YOPC   C2B15702   8.614   2.512   5.702  0.0470 -0.3737  0.0078
 1101YOPC   D3B15703   8.485   2.102   5.574  0.2467 -0.1237  0.1700
 1101YOPC   C4B15704   8.333   1.900   5.804  0.2355  0.2718  0.0769
 1102YOPC   NC315705  18.095  11.903   5.219 -0.3008  0.0960 -0.1289
 1102YOPC   PO415706  18.368  11.575   5.577 -0.4159 -0.3308  0.1094
 1102YOPC   GL115707  18.263  11.574   6.071 -0.0322  0.1144  0.2201
 1102YOPC   GL215708  18.047  11.819   6.171  0.0691  0.1359  0.1862
 1102YOPC   C1A15709  18.293  11.515   6.517 -0.0974  0.2679  0.1994
 1102YOPC   D2A15710  18.447  11.689   6.936  0.1283 -0.0100 -0.2157
 1102YOPC   C3A15711  18.492  12.003   7.155  0.1376 -0.2758  0.1169
 1102YOPC   C4A15712  18.039  12.062   7.383 -0.2775  0.2123 -0.0524
 1102YOPC   C1B15713  17.837  11.443   6.354  0.0526 -0.0240 -0.3923
 1102YOPC   C2B15714  18.005  11.117   6.332 -0.0996  0.2718  0.2202
 1102YOPC   D3B15715  18.218  10.837   6.126  0.0013  0.1697 -0.1259
 1102YOPC   C4B15716  18.537  10.965   5.835  0.2013 -0.0938  0.0956
 1103YOPC   NC315717   0.222   1.722   4.996 -0.0049  0.0540  0.1512
 1103YOPC   PO415718   0.114   2.085   5.268  0.2417  0.1128  0.1531
 1103YOPC   GL115719   0.318   2.182   5.576 -0.5018 -0.0511  0.0149
 1103YOPC   GL215720   0.517   2.494   5.528 -0.0146 -0.0580 -0.0259
 1103YOPC   C1A15721   0.506   1.850   5.800 -0.1981 -0.1219  0.0870
 1103YOPC   D2A15722   0.743   1.385   5.750  0.2681  0.0668 -0.0731
 1103YOPC   C3A15723   1.118   1.419   6.033 -0.2901 -0.1037  0.0260
 1103YOPC   C4A15724   1.356   1.561   6.326 -0.1217  0.1923 -0.1625
 1103YOPC   C1B15725   0.422   2.539   5.948  0.0725 -0.0994 -0.0149
 1103YOPC   C2B15726   0.094   2.233   6.090  0.0642 -0.3042  0.0173
 1103YOPC   D3B15727   0.091   2.156   6.572  0.0133  0.0486  0.0682
 1103YOPC   C4B15728  -0.122   2.184   7.073 -0.1854  0.1548 -0.0672
 1104YOPC   NC315729  18.247  15.744   5.499  0.0681 -0.1717 -0.1172
 1104YOPC   PO415730  17.919  16.069   5.501 -0.3246 -0.1053 -0.2505
 1104YOPC   GL115731  17.976  16.172   5.857 -0.2866  0.1049 -0.4342
 1104YOPC   GL215732  17.785  16.390   6.063  0.0391  0.2882  0.1132
 1104YOPC   C1A15733  17.949  15.937   6.317 -0.1411  0.0363 -0.0844
 1104YOPC   D2A15734  17.759  15.970   6.608 -0.0215 -0.2588  0.1211
 1104YOPC   C3A15735  17.946  16.009   7.031  0.2494  0.0425 -0.0645
 1104YOPC   C4A15736  18.114  16.427   7.079 -0.1956 -0.2025 -0.1176
 1104YOPC   C1B15737  17.797  16.442   6.514 -0.1341 -0.1126 -0.3313
 1104YOPC   C2B15738  17.502  16.378   6.812  0.2609  0.1872  0.1345
 1104YOPC   D3B15739  17.421  16.683   7.053  0.0390  0.0138  0.3276
 1104YOPC   C4B15740  17.378  16.761   7.484  0.2170  0.0727 -0.1708
 1105YOPC   NC315741   8.793   5.646   4.515  0.1609 -0.2094 -0.0342
 1105YOPC   PO415742   9.214   5.446   4.393  0.3141 -0.0397  0.0853
 1105YOPC   GL115743   9.056   5.415   4.866 -0.1250 -0.3121 -0.0634
 1105YOPC   GL215744   8.775   5.535   5.014  0.1308  0.2864 -0.3240
 1105YOPC   C1A15745   9.167   5.261   5.293  0.0276  0.1779  0.0896
 1105YOPC   D2A15746   8.956   5.318   5.730 -0.0555 -0.1226  0.1795
 1105YOPC   C3A15747   8.723   4.968   5.798  0.2612 -0.1091  0.2508
 1105YOPC   C4A15748   8.525   4.849   5.998 -0.3658  0.0656 -0.0904
 1105YOPC   C1B15749   9.025   5.752   5.363 -0.0079 -0.1835 -0.1282
 1105YOPC   C2B15750   9.083   5.864   5.806  0.0074 -0.3245  0.1790
 1105YOPC   D3B15751   8.875   5.936   6.236  0.0558  0.1070  0.0224
 1105YOPC   C4B15752   8.636   5.862   6.530  0.0150  0.1560  0.0782
 1106YOPC   NC315753  11.636   9.031   5.431  0.1795 -0.4664  0.2571
 1106YOPC   PO415754  11.528   8.876   4.990 -0.2312  0.2171 -0.1236
 1106YOPC   GL115755  11.325   8.698   5.413  0.4435 -0.0161  0.1635
 1106YOPC   GL215756  11.623   8.543   5.512  0.0521 -0.0167 -0.2970
 1106YOPC   C1A15757  11.219   8.669   5.883 -0.2544 -0.0710 -0.4230
 1106YOPC   D2A15758  11.302   8.617   6.323  0.0637 -0.2104  0.1294
 1106YOPC   C3A15759  11.265   8.378   6.740 -0.3159  0.1141  0.0087
 1106YOPC   C4A15760  10.804   8.499   6.961 -0.1516  0.0947 -0.0582
 1106YOPC   C1B15761  11.465   8.238   5.684  0.0333  0.2420  0.0362
 1106YOPC   C2B15762  11.670   7.892   5.775 -0.1262  0.0288  0.0324
 1106YOPC   D3B15763  11.500   7.686   6.068  0.1237  0.2804  0.2097
 1106YOPC   C4B15764  11.207   7.731   6.367  0.0626 -0.0276  0.0953
 1107YOPC   NC315765  13.351  17.172   5.366  0.1922 -0.1378  0.2030
 1107YOPC   PO415766  13.323  17.672   5.590  0.2839 -0.1306  0.4993
 1107YOPC   GL115767  13.083  17.562   5.935  0.1420 -0.0405  0.3382
 1107YOPC   GL215768  12.752  17.685   6.060  0.2124  0.1268  0.3122
 1107YOPC   C1A15769  13.196  17.613   6.393  0.0615  0.1711  0.1004
 1107YOPC   D2A15770  13.374  17.928   6.582 -0.1465  0.0415  0.1122
 1107YOPC   C3A15771  13.294  17.930   6.952  0.1931 -0.0585 -0.4294
 1107YOPC   C4A15772  12.948  18.098   7.161  0.0215  0.2353  0.1371
 1107YOPC   C1B15773  12.669  17.412   6.470 -0.0278  0.0413  0.1223
 1107YOPC   C2B15774  12.431  17.250   6.896 -0.0208  0.0080  0.0569
 1107YOPC   D3B15775  12.753  17.162   7.069  0.0172  0.0501  0.3439
 1107YOPC   C4B15776  12.740  16.803   7.142  0.2080 -0.3635  0.1961
 1108YOPC   NC315777   5.082  15.944   5.206 -0.0076 -0.1937 -0.1178
 1108YOPC   PO415778   5.236  16.231   5.500 -0.1629  0.0557  0.0213
 1108YOPC   GL115779   5.325  16.508   5.851  0.0888  0.0194  0.1504
 1108YOPC   GL215780   5.257  16.777   5.934 -0.0125 -0.1273 -0.2917
 1108YOPC   C1A15781   5.411  16.354   6.338  0.0238 -0.2585  0.1040
 1108YOPC   D2A15782   5.305  16.403   6.765 -0.0719 -0.0029  0.2277
 1108YOPC   C3A15783   5.130  16.635   7.135 -0.1912  0.3550 -0.0143
 1108YOPC   C4A15784   4.805  16.852   7.353 -0.1768 -0.2099  0.1545
 1108YOPC   C1B15785   5.507  17.008   6.244  0.0507  0.2610 -0.2364
 1108YOPC   C2B15786   5.289  17.244   6.521 -0.0225  0.2240 -0.1764
 1108YOPC   D3B15787   5.304  17.442   6.909  0.2114 -0.1650  0.3343
 1108YOPC   C4B15788   5.433  17.940   7.153 -0.1699 -0.2310  0.1930
 1109YOPC   NC315789   5.426  13.800   5.545  0.0836  0.4082 -0.1114
 1109YOPC   PO415790   5.837  13.904   5.572 -0.0389  0.1982 -0.1678
 1109YOPC   GL115791   6.021  13.704   5.938  0.0795  0.0645  0.1245
 1109YOPC   GL215792   6.113  13.821   6.124  0.0049  0.0165 -0.0886
 1109YOPC   C1A15793   5.806  13.518   6.334 -0.3999 -0.0609 -0.0111
 1109YOPC   D2A15794   5.908  13.426   6.687 -0.0711  0.0970  0.0001
 1109YOPC   C3A15795   5.983  13.842   6.854  0.0330  0.0409 -0.0091
 1109YOPC   C4A15796   6.017  14.103   6.631 -0.0104  0.1233 -0.1556
 1109YOPC   C1B15797   5.727  13.978   6.243  0.0107 -0.1519  0.0159
 1109YOPC   C2B15798   5.528  14.048   6.549 -0.0269 -0.2235  0.5396
 1109YOPC   D3B15799   5.600  14.233   6.875  0.0038 -0.0800  0.0108
 1109YOPC   C4B15800   5.508  14.370   7.347 -0.2699  0.2501 -0.1047
 1110YOPC   NC315801   6.883   4.211   4.358  0.0574 -0.0526 -0.1344
 1110YOPC   PO415802   6.603   4.671   4.385 -0.0643 -0.4316 -0.1247
 1110YOPC   GL115803   6.762   4.767   4.684 -0.1879  0.1807  0.1932
 1110YOPC   GL215804   6.799   5.064   4.841  0.2496 -0.0915  0.2338
 1110YOPC   C1A15805   6.802   4.660   5.161  0.2310 -0.0773  0.0437
 1110YOPC   D2A15806   7.112   4.792   5.511  0.1463 -0.1435  0.2219
 1110YOPC   C3A15807   7.095   5.020   5.922 -0.2885 -0.3786 -0.3223
 1110YOPC   C4A15808   7.001   4.836   6.212  0.2130 -0.0603 -0.3723
 1110YOPC   C1B15809   6.939   5.190   5.172  0.0783  0.2283 -0.1342
 1110YOPC   C2B15810   6.949   5.349   5.492 -0.0954 -0.0630  0.0466
 1110YOPC   D3B15811   7.386   5.249   5.612  0.3668  0.4415 -0.1527
 1110YOPC   C4B15812   7.690   5.062   5.839  0.3942 -0.1821  0.0020
 1111YOPC   NC315813  17.490   7.799   5.171  0.2562 -0.3138  0.1379
 1111YOPC   PO415814  17.727   7.948   5.437 -0.1718 -0.1302  0.1149
 1111YOPC   GL115815  18.127   7.990   5.674  0.4086  0.2850  0.1276
 1111YOPC   GL215816  18.400   7.701   5.622  0.1637 -0.1271  0.1073
 1111YOPC   C1A15817  18.213   7.794   6.090  0.1144 -0.2032  0.0229
 1111YOPC   D2A15818  18.106   7.749   6.531  0.0322  0.0906  0.0148
 1111YOPC   C3A15819  18.516   7.638   6.854  0.1637 -0.0424 -0.0007
 1111YOPC   C4A15820  18.585   7.174   7.124 -0.1436  0.4168 -0.0623
 1111YOPC   C1B15821  18.466   7.395   5.987  0.1865  0.1463  0.0906
 1111YOPC   C2B15822  18.146   7.336   6.188 -0.0659  0.0723 -0.1800
 1111YOPC   D3B15823  18.062   7.062   6.427  0.1639  0.1386  0.2912
 1111YOPC   C4B15824  17.924   6.619   6.181 -0.3189  0.1217  0.1780
 1112YOPC   NC315825  15.182   4.717   4.697 -0.0424 -0.2443  0.1559
 1112YOPC   PO415826  14.966   4.906   5.016 -0.2393  0.0704  0.1056
 1112YOPC   GL115827  15.045   4.921   5.534  0.2335 -0.0744  0.2603
 1112YOPC   GL215828  14.950   5.239   5.691  0.0143  0.1285  0.0866
 1112YOPC   C1A15829  15.075   4.668   5.828 -0.1692  0.0492 -0.2858
 1112YOPC   D2A15830  14.990   4.254   6.235  0.0470 -0.3202 -0.0802
 1112YOPC   C3A15831  15.094   4.264   6.627 -0.0209 -0.1787 -0.3694
 1112YOPC   C4A15832  15.280   4.452   6.935 -0.1151  0.2500 -0.1508
 1112YOPC   C1B15833  15.251   5.619   5.814 -0.0891 -0.0510  0.1397
 1112YOPC   C2B15834  15.578   5.500   6.011  0.2677  0.0847 -0.1146
 1112YOPC   D3B15835  15.897   5.830   6.178  0.2238 -0.4787 -0.2400
 1112YOPC   C4B15836  16.040   6.205   6.308  0.3505  0.1040  0.1575
 1113YOPC   NC315837   7.294   2.337   4.494 -0.3546 -0.0696 -0.3511
 1113YOPC   PO415838   7.407   2.005   4.244  0.0751 -0.0506 -0.2900
 1113YOPC   GL115839   7.165   1.887   4.620 -0.1495  0.3300 -0.4153
 1113YOPC   GL215840   7.383   1.816   4.861  0.1588  0.0749  0.1534
 1113YOPC   C1A15841   6.860   1.779   4.918 -0.3013  0.1866  0.2169
 1113YOPC   D2A15842   6.735   1.796   5.376  0.0407  0.0023 -0.1087
 1113YOPC   C3A15843   6.833   1.722   5.824  0.1744 -0.0027 -0.0952
 1113YOPC   C4A15844   6.905   1.695   6.147  0.0346  0.1931  0.3089
 1113YOPC   C1B15845   7.387   1.844   5.219 -0.2526  0.0321  0.0599
 1113YOPC   C2B15846   7.606   1.818   5.638 -0.2323 -0.1834 -0.3486
 1113YOPC   D3B15847   7.250   1.920   5.838  0.0228 -0.0141  0.2488
 1113YOPC   C4B15848   7.163   2.148   6.319  0.1802  0.1566 -0.3101
 1114YOPC   NC315849   3.022   3.618   4.878  0.0910 -0.0799 -0.0730
 1114YOPC   PO415850   3.310   3.783   5.012 -0.2341 -0.0992  0.0474
 1114YOPC   GL115851   3.701   3.880   5.087  0.0188 -0.2282  0.0321
 1114YOPC   GL215852   3.898   3.759   4.869  0.1894 -0.0605  0.1176
 1114YOPC   C1A15853   3.801   4.096   5.410 -0.0492  0.3189 -0.2786
 1114YOPC   D2A15854   3.898   4.441   5.651  0.1236 -0.1279 -0.0012
 1114YOPC   C3A15855   4.365   4.525   5.757 -0.1177 -0.1979 -0.1686
 1114YOPC   C4A15856   4.617   4.702   5.975  0.1429  0.0334 -0.0322
 1114YOPC   C1B15857   4.253   3.802   5.196  0.3162  0.1552  0.2203
 1114YOPC   C2B15858   4.379   3.903   5.643  0.1320 -0.0539  0.2245
 1114YOPC   D3B15859   4.484   3.889   6.026 -0.2619 -0.4026  0.1721
 1114YOPC   C4B15860   4.683   4.048   6.504 -0.0021 -0.3083  0.0001
 1115YOPC   NC315861  13.647  19.278   5.823 -0.0055  0.2316  0.1298
 1115YOPC   PO415862  14.115  19.511   5.940  0.2517 -0.0896  0.0489
 1115YOPC   GL115863  14.144  19.491   6.367  0.1860 -0.1845 -0.5805
 1115YOPC   GL215864  13.979  19.737   6.635  0.0324  0.0350  0.1474
 1115YOPC   C1A15865  14.524  19.701   6.535 -0.3197  0.0471 -0.1666
 1115YOPC   D2A15866  14.856  20.084   6.669  0.0731 -0.0730 -0.0395
 1115YOPC   C3A15867  14.873  20.459   6.470  0.1185 -0.4080 -0.3072
 1115YOPC   C4A15868  15.243  20.686   6.486  0.2945  0.2179  0.1046
 1115YOPC   C1B15869  13.729  19.793   7.045 -0.2252  0.1865 -0.0965
 1115YOPC   C2B15870  13.464  19.865   7.319 -0.1522  0.1337 -0.1555
 1115YOPC   D3B15871  13.314  19.414   7.519 -0.0443  0.0543 -0.0488
 1115YOPC   C4B15872  13.238  19.071   7.822  0.0671 -0.2262 -0.4608
 1116YOPC   NC315873  10.264   8.961   4.828 -0.0883 -0.0301 -0.0288
 1116YOPC   PO415874  10.169   8.505   4.917  0.0111  0.1925  0.1511
 1116YOPC   GL115875  10.026   8.405   5.362  0.0169  0.1466 -0.0582
 1116YOPC   GL215876   9.922   8.086   5.356  0.0921  0.0185 -0.0504
 1116YOPC   C1A15877  10.515   8.346   5.448 -0.0166 -0.2924 -0.1172
 1116YOPC   D2A15878  10.854   8.494   5.657 -0.0538  0.2503 -0.1417
 1116YOPC   C3A15879  10.906   8.950   5.623  0.1718 -0.0807  0.1976
 1116YOPC   C4A15880  10.912   9.433   5.706  0.0780 -0.1155  0.1894
 1116YOPC   C1B15881  10.292   7.971   5.656  0.3264 -0.3006  0.1098
 1116YOPC   C2B15882  10.536   8.188   6.021 -0.3705  0.0697 -0.0744
 1116YOPC   D3B15883  10.470   8.672   5.864  0.1562 -0.2363 -0.0369
 1116YOPC   C4B15884  10.421   9.109   5.790 -0.2200  0.1595  0.0877
 1117YOPC   NC315885  11.920   2.972   4.838 -0.0258 -0.4384  0.3080
 1117YOPC   PO415886  11.531   3.127   4.883 -0.1294 -0.1435  0.3009
 1117YOPC   GL115887  11.324   3.253   5.306 -0.1052 -0.3260 -0.2060
 1117YOPC   GL215888  11.356   2.989   5.596 -0.0845 -0.1772 -0.0871
 1117YOPC   C1A15889  11.050   3.499   5.662 -0.4216  0.1390 -0.0937
 1117YOPC   D2A15890  10.945   3.515   6.064 -0.3336 -0.2605 -0.0758
 1117YOPC   C3A15891  10.626   3.356   6.290 -0.1439 -0.3137 -0.0202
 1117YOPC   C4A15892  10.381   3.074   6.440 -0.1523 -0.0475 -0.2086
 1117YOPC   C1B15893  11.209   3.020   6.041 -0.0942  0.0713  0.0131
 1117YOPC   C2B15894  11.292   2.795   6.488 -0.1892  0.3165 -0.0305
 1117YOPC   D3B15895  11.303   2.967   6.835  0.0213 -0.1254 -0.2464
 1117YOPC   C4B15896  11.099   3.076   7.142  0.1942  0.0455  0.1336
 1118YOPC   NC315897  14.327  18.245   5.762  0.0320 -0.0720  0.0557
 1118YOPC   PO415898  14.000  18.481   5.739 -0.0809 -0.0562 -0.2569
 1118YOPC   GL115899  14.030  18.445   6.149 -0.1852  0.1954 -0.4061
 1118YOPC   GL215900  13.719  18.477   6.326 -0.0244  0.0394 -0.1312
 1118YOPC   C1A15901  14.042  18.105   6.611 -0.3523  0.1377 -0.0534
 1118YOPC   D2A15902  13.863  17.966   6.947 -0.0956 -0.1035  0.0770
 1118YOPC   C3A15903  14.243  17.980   7.286 -0.2248  0.2415  0.1620
 1118YOPC   C4A15904  14.596  18.163   7.553 -0.1053  0.4191 -0.0347
 1118YOPC   C1B15905  14.046  18.715   6.564  0.3680 -0.2916 -0.3768
 1118YOPC   C2B15906  14.019  19.015   6.765 -0.1182 -0.0890 -0.1216
 1118YOPC   D3B15907  14.089  19.019   7.153  0.2928  0.0724  0.0061
 1118YOPC   C4B15908  14.103  19.029   7.592 -0.0805 -0.2318 -0.1207
 1119YOPC   NC315909   8.816   7.384   4.557 -0.1347 -0.1985  0.2197
 1119YOPC   PO415910   8.611   7.780   4.514 -0.1554 -0.2063 -0.2796
 1119YOPC   GL115911   8.519   7.798   4.907 -0.0412 -0.2047 -0.0694
 1119YOPC   GL215912   8.298   8.082   4.897  0.0982 -0.0766 -0.2391
 1119YOPC   C1A15913   8.419   7.548   5.195  0.1257 -0.0875 -0.0795
 1119YOPC   D2A15914   8.574   7.128   5.372 -0.2233 -0.0144 -0.4122
 1119YOPC   C3A15915   8.612   6.946   5.701 -0.0272 -0.1169  0.0100
 1119YOPC   C4A15916   8.775   6.771   6.004 -0.0445 -0.0098  0.0743
 1119YOPC   C1B15917   8.222   8.023   5.298  0.2252 -0.2300 -0.2260
 1119YOPC   C2B15918   8.267   7.791   5.618  0.0978  0.0629  0.1248
 1119YOPC   D3B15919   8.652   7.450   5.773  0.1106  0.0237  0.0726
 1119YOPC   C4B15920   8.861   7.283   6.066  0.0276  0.0225  0.0797
 1120YOPC   NC315921  12.196   6.471   4.946  0.0631  0.2209  0.0106
 1120YOPC   PO415922  12.624   6.353   5.062 -0.0742  0.2183  0.0086
 1120YOPC   GL115923  12.439   6.289   5.466 -0.0621 -0.2418  0.0016
 1120YOPC   GL215924  12.197   6.054   5.441 -0.2629  0.0368 -0.1600
 1120YOPC   C1A15925  12.575   6.335   5.897 -0.1014 -0.2195  0.2214
 1120YOPC   D2A15926  12.614   6.082   6.251  0.1473 -0.2747 -0.1444
 1120YOPC   C3A15927  12.270   5.845   6.316  0.2070 -0.0244 -0.2138
 1120YOPC   C4A15928  12.044   5.678   6.673 -0.1058 -0.1983 -0.1292
 1120YOPC   C1B15929  12.078   5.743   5.815 -0.0590  0.3969  0.2317
 1120YOPC   C2B15930  11.930   5.477   6.230 -0.0278 -0.0714 -0.1189
 1120YOPC   D3B15931  11.753   5.109   6.365  0.3800 -0.2494  0.0074
 1120YOPC   C4B15932  11.964   4.803   6.742  0.1766 -0.3262  0.2970
 1121YOPC   NC315933   9.425  10.976   5.265  0.1141  0.0775 -0.1522
 1121YOPC   PO415934   9.348  10.608   5.356  0.3862 -0.2091  0.0537
 1121YOPC   GL115935   9.236  10.673   5.716  0.2156  0.2071 -0.0961
 1121YOPC   GL215936   8.916  10.631   5.797  0.0884  0.0145 -0.2592
 1121YOPC   C1A15937   9.335  10.756   6.164  0.0861  0.0419  0.0793
 1121YOPC   D2A15938   8.958  11.026   6.298  0.1013  0.2546 -0.1267
 1121YOPC   C3A15939   8.606  11.006   6.278  0.0029 -0.0790 -0.0282
 1121YOPC   C4A15940   8.356  10.924   6.716 -0.0193  0.0542 -0.1245
 1121YOPC   C1B15941   8.865  10.580   6.215 -0.3341  0.2404  0.2940
 1121YOPC   C2B15942   8.785  10.698   6.657  0.1069  0.0659  0.1815
 1121YOPC   D3B15943   8.860  10.668   6.971 -0.0774 -0.2108 -0.1386
 1121YOPC   C4B15944   9.002  10.460   7.376 -0.0025  0.2298  0.0646
 1122YOPC   NC315945   7.072  16.483   5.350  0.1025 -0.0700  0.2122
 1122YOPC   PO415946   7.070  16.734   5.685 -0.0923  0.1780  0.0678
 1122YOPC   GL115947   6.942  16.671   6.067  0.0601 -0.2183 -0.2517
 1122YOPC   GL215948   7.064  16.784   6.243 -0.0435  0.2976  0.1106
 1122YOPC   C1A15949   6.680  16.532   6.503 -0.1981 -0.0179 -0.3548
 1122YOPC   D2A15950   6.647  16.294   6.893 -0.1000 -0.3576 -0.2534
 1122YOPC   C3A15951   6.408  16.045   7.063  0.1348  0.0680 -0.1237
 1122YOPC   C4A15952   6.517  15.866   7.459  0.0462  0.0975  0.0356
 1122YOPC   C1B15953   7.144  16.840   6.649 -0.1417  0.0034  0.1175
 1122YOPC   C2B15954   7.396  17.017   6.919  0.1000  0.1742  0.0524
 1122YOPC   D3B15955   7.615  17.374   6.820 -0.0956  0.0982 -0.3085
 1122YOPC   C4B15956   7.803  17.507   6.445  0.1025 -0.3200 -0.1432
 1123YOPC   NC315957  14.624   5.196   5.220 -0.1284  0.0627 -0.4390
 1123YOPC   PO415958  15.046   5.364   5.236  0.2679 -0.0163  0.3089
 1123YOPC   GL115959  14.826   5.714   5.349 -0.4212  0.1016 -0.0928
 1123YOPC   GL215960  14.514   5.689   5.413 -0.0063  0.1531 -0.0544
 1123YOPC   C1A15961  14.898   5.981   5.664  0.1596 -0.2136  0.0215
 1123YOPC   D2A15962  15.155   6.117   5.941  0.0997  0.0608  0.1844
 1123YOPC   C3A15963  15.296   5.812   6.307  0.1503  0.0717  0.0276
 1123YOPC   C4A15964  15.619   5.422   6.542  0.1541  0.2042 -0.1991
 1123YOPC   C1B15965  14.561   5.576   5.843 -0.2140 -0.0410  0.0225
 1123YOPC   C2B15966  14.861   5.690   6.170  0.2176 -0.1134  0.3118
 1123YOPC   D3B15967  15.060   5.408   6.411 -0.1669 -0.1506 -0.1202
 1123YOPC   C4B15968  14.792   5.111   6.667 -0.0926 -0.2352 -0.0741
 1124YOPC   NC315969  14.201  11.340   5.488 -0.1881 -0.2466 -0.1364
 1124YOPC   PO415970  14.464  11.669   5.299 -0.0582 -0.4656  0.0064
 1124YOPC   GL115971  14.522  11.693   5.728  0.0581  0.2852 -0.0180
 1124YOPC   GL215972  14.673  11.870   5.959 -0.0555  0.2118 -0.0756
 1124YOPC   C1A15973  14.674  11.307   6.018 -0.0579 -0.3689 -0.0907
 1124YOPC   D2A15974  14.523  11.040   6.235 -0.1460 -0.0804  0.3151
 1124YOPC   C3A15975  14.438  10.688   6.565  0.1883 -0.2347  0.0900
 1124YOPC   C4A15976  14.061  10.314   6.465  0.0322  0.1858  0.1586
 1124YOPC   C1B15977  14.800  11.680   6.409  0.1765 -0.0367 -0.0147
 1124YOPC   C2B15978  14.922  11.387   6.755  0.1245  0.0753  0.2756
 1124YOPC   D3B15979  14.692  11.063   6.810 -0.0021  0.3060  0.3355
 1124YOPC   C4B15980  14.541  10.740   7.207  0.3347  0.0138 -0.0386
 1125YOPC   NC315981  13.885   9.368   5.447  0.0357  0.1761 -0.3042
 1125YOPC   PO415982  14.140   9.726   5.331 -0.1102  0.0254  0.1952
 1125YOPC   GL115983  14.324   9.456   5.721  0.1770  0.2486  0.0655
 1125YOPC   GL215984  14.067   9.302   5.937  0.0401  0.0174 -0.3740
 1125YOPC   C1A15985  14.565   9.331   6.050 -0.2226 -0.1458 -0.1054
 1125YOPC   D2A15986  14.905   9.265   6.251 -0.0151 -0.2465  0.0820
 1125YOPC   C3A15987  14.873   9.068   6.668  0.0377 -0.0829  0.3394
 1125YOPC   C4A15988  14.915   8.842   7.057 -0.2638 -0.4022 -0.1112
 1125YOPC   C1B15989  14.064   9.554   6.251  0.0854  0.2710 -0.1018
 1125YOPC   C2B15990  13.834   9.914   6.341  0.0136 -0.1125 -0.0544
 1125YOPC   D3B15991  13.571  10.289   6.269  0.0521 -0.1160 -0.1435
 1125YOPC   C4B15992  13.592  10.712   6.097  0.2728 -0.4729 -0.1335
 1126YOPC   NC315993   1.567   7.963   5.315 -0.0698 -0.1053 -0.5566
 1126YOPC   PO415994   1.883   7.791   5.189 -0.2368 -0.1712  0.0932
 1126YOPC   GL115995   2.217   7.706   5.457  0.2407  0.0061 -0.2954
 1126YOPC   GL215996   2.104   7.314   5.590  0.2683 -0.2656 -0.0827
 1126YOPC   C1A15997   2.326   7.576   5.978 -0.0860  0.0607  0.2188
 1126YOPC   D2A15998   2.568   7.568   6.363  0.2268 -0.0857  0.1073
 1126YOPC   C3A15999   2.677   7.216   6.549  0.2588 -0.1716  0.1515
 1126YOPC   C4A16000   2.461   6.967   6.931 -0.0683  0.1753  0.0923
 1126YOPC   C1B16001   1.965   6.895   5.686  0.0228 -0.2024 -0.1372
 1126YOPC   C2B16002   1.942   6.650   6.031 -0.0850  0.0081 -0.0232
 1126YOPC   D3B16003   2.279   6.301   6.163 -0.2365  0.3917  0.1779
 1126YOPC   C4B16004   2.695   6.276   6.386 -0.2924 -0.0835 -0.0249
 1127YOPC   NC316005   1.165   4.188   4.658  0.1075  0.0572 -0.2990
 1127YOPC   PO416006   1.268   4.586   4.830 -0.1655 -0.0154  0.1885
 1127YOPC   GL116007   1.324   4.628   5.324  0.0691  0.4507 -0.1655
 1127YOPC   GL216008   1.163   4.845   5.545  0.2137  0.1048 -0.3473
 1127YOPC   C1A16009   1.380   4.169   5.567 -0.2602 -0.1639  0.1203
 1127YOPC   D2A16010   1.138   3.922   5.718  0.0665 -0.0015 -0.3115
 1127YOPC   C3A16011   1.027   4.150   6.102 -0.1116  0.1963  0.0159
 1127YOPC   C4A16012   0.880   4.242   6.535 -0.2280  0.1204 -0.3081
 1127YOPC   C1B16013   0.899   4.425   5.627  0.3941  0.1047  0.2758
 1127YOPC   C2B16014   0.645   4.180   5.427 -0.0931  0.0998 -0.0464
 1127YOPC   D3B16015   0.583   3.823   5.603  0.1186 -0.2373  0.0281
 1127YOPC   C4B16016   0.513   3.452   5.490 -0.3480  0.3598 -0.1096
 1128ERGO   ROH16017   1.109  16.054   6.061  0.0652  0.6038 -0.2840
 1128ERGO    R116018   1.035  15.968   6.321  0.1324  0.1991 -0.3902
 1128ERGO    R216019   0.996  16.144   6.531  0.3882 -0.1331 -0.0414
 1128ERGO    R316020   0.754  16.021   6.546  0.2936  0.0381 -0.1487
 1128ERGO    R416021   0.819  16.090   6.822  0.3227 -0.2117 -0.0970
 1128ERGO    R516022   0.765  15.893   6.748  0.1792 -0.1153 -0.2416
 1128ERGO    C116023   0.489  15.943   7.006  0.1958 -0.0968 -0.2300
 1128ERGO    C216024   0.409  15.976   7.276 -0.1429  0.2173 -0.2337
 1129ERGO   ROH16025   2.803   4.586   6.806  0.0163 -0.2601  0.0287
 1129ERGO    R116026   2.967   4.549   6.578 -0.0838 -0.1169 -0.0679
 1129ERGO    R216027   3.109   4.316   6.532  0.0552 -0.0145 -0.1765
 1129ERGO    R316028   2.977   4.321   6.295 -0.0837 -0.0740 -0.1015
 1129ERGO    R416029   3.149   4.086   6.278 -0.0697 -0.0552 -0.1606
 1129ERGO    R516030   3.139   4.249   6.135 -0.1712 -0.0847 -0.1840
 1129ERGO    C116031   3.049   3.957   5.907 -0.2729 -0.1347 -0.0810
 1129ERGO    C216032   3.118   3.587   5.827 -0.3845 -0.1865  0.2210
 1130ERGO   ROH16033   1.543   7.728   5.743  0.0083 -0.2087 -0.0806
 1130ERGO    R116034   1.710   7.528   5.852  0.1729 -0.0601 -0.0527
 1130ERGO    R216035   1.867   7.570   6.076 -0.0517  0.0217  0.0970
 1130ERGO    R316036   1.737   7.350   6.168  0.1410 -0.1863 -0.1214
 1130ERGO    R416037   2.019   7.304   6.236  0.1413  0.1337  0.1005
 1130ERGO    R516038   1.889   7.169   6.125  0.4054  0.0214 -0.0768
 1130ERGO    C116039   1.986   6.942   6.416  0.4346  0.0037 -0.1024
 1130ERGO    C216040   1.967   6.715   6.770 -0.0602 -0.1819  0.0533
 1131ERGO   ROH16041   6.150   4.428   8.253 -0.1055 -0.0556 -0.0027
 1131ERGO    R116042   6.283   4.419   8.003 -0.0089 -0.2005  0.0535
 1131ERGO    R216043   6.260   4.203   7.831 -0.2473 -0.1393  0.0083
 1131ERGO    R316044   6.185   4.394   7.653  0.1061  0.0058  0.0047
 1131ERGO    R416045   6.245   4.160   7.488 -0.5167 -0.1890  0.0235
 1131ERGO    R516046   6.328   4.360   7.464 -0.0571 -0.3739 -0.0606
 1131ERGO    C116047   6.166   4.314   7.122 -0.3418 -0.0817  0.0290
 1131ERGO    C216048   6.005   4.183   6.897  0.0737  0.0834 -0.0262
 1132ERGO   ROH16049   1.971  14.633   9.447 -0.0387  0.0534 -0.1792
 1132ERGO    R116050   1.867  14.583   9.189 -0.0736 -0.0059 -0.1533
 1132ERGO    R216051   1.740  14.777   9.039 -0.0362 -0.0242 -0.2045
 1132ERGO    R316052   1.924  14.708   8.852 -0.0714 -0.1327 -0.2013
 1132ERGO    R416053   1.704  14.827   8.699  0.0712  0.1586 -0.1909
 1132ERGO    R516054   1.795  14.632   8.666 -0.1205  0.0772 -0.2580
 1132ERGO    C116055   1.857  14.792   8.325  0.1006  0.1633 -0.1799
 1132ERGO    C216056   1.749  14.947   8.078  0.0110  0.1023 -0.1608
 1133ERGO   ROH16057   0.142   6.121   5.713 -0.1958 -0.0914 -0.1484
 1133ERGO    R116058   0.281   6.068   5.953 -0.0722 -0.0495 -0.2100
 1133ERGO    R216059   0.400   6.267   6.104 -0.0709 -0.0134 -0.2600
 1133ERGO    R316060   0.249   6.161   6.303  0.0521 -0.0654 -0.1936
 1133ERGO    R416061   0.447   6.327   6.441  0.2267 -0.2084 -0.2629
 1133ERGO    R516062   0.406   6.117   6.479  0.1826 -0.2161 -0.3420
 1133ERGO    C116063   0.333   6.263   6.824  0.5154 -0.3709 -0.2023
 1133ERGO    C216064   0.254   6.439   7.010 -0.2214  0.1357  0.0976
 1134ERGO   ROH16065   8.769  12.707   5.632  0.1015 -0.0682 -0.0938
 1134ERGO    R116066   8.653  12.529   5.819  0.1417 -0.0106 -0.0139
 1134ERGO    R216067   8.758  12.489   6.072  0.1772  0.0924 -0.0137
 1134ERGO    R316068   8.506  12.552   6.151  0.1808  0.0966 -0.0035
 1134ERGO    R416069   8.635  12.447   6.392  0.2517  0.2775  0.0407
 1134ERGO    R516070   8.446  12.380   6.306  0.2453  0.1846  0.1225
 1134ERGO    C116071   8.326  12.483   6.652  0.2984  0.3892  0.0821
 1134ERGO    C216072   8.384  12.678   6.949 -0.0664 -0.0109  0.1955
 1135ERGO   ROH16073  18.368  15.185   9.231  0.0362  0.0064  0.0878
 1135ERGO    R116074  18.306  15.307   8.983  0.0452 -0.0064  0.0795
 1135ERGO    R216075  18.490  15.331   8.778  0.0911  0.0996  0.1335
 1135ERGO    R316076  18.296  15.206   8.634  0.1930  0.0145  0.0682
 1135ERGO    R416077  18.479  15.318   8.433  0.0109  0.4315  0.1203
 1135ERGO    R516078  18.263  15.349   8.444 -0.0267  0.1702  0.2166
 1135ERGO    C116079  18.291  15.194   8.096  0.0600  0.5447  0.0511
 1135ERGO    C216080  18.216  15.093   7.758 -0.1427  0.1946 -0.1464
 1136ERGO   ROH16081  13.151   3.883   5.597  0.1518  0.3008 -0.0444
 1136ERGO    R116082  13.028   3.844   5.849 -0.1248  0.1724 -0.1922
 1136ERGO    R216083  13.162   3.887   6.088 -0.1973 -0.4794 -0.0084
 1136ERGO    R316084  12.951   4.050   6.139  0.1086 -0.0901  0.0607
 1136ERGO    R416085  13.013   3.925   6.397 -0.1863 -0.3866 -0.0153
 1136ERGO    R516086  12.819   3.928   6.298 -0.1662  0.0646 -0.0489
 1136ERGO    C116087  12.727   4.100   6.625  0.1074  0.0329  0.0455
 1136ERGO    C216088  12.764   4.248   6.790 -0.3601  0.0043 -0.2348
 1137ERGO   ROH16089   7.861  14.067   5.906 -0.0912 -0.0300 -0.1923
 1137ERGO    R116090   7.928  14.286   6.074 -0.1259 -0.0813 -0.1121
 1137ERGO    R216091   7.738  14.432   6.210 -0.1537 -0.1105 -0.1290
 1137ERGO    R316092   7.891  14.370   6.426 -0.2209 -0.1745 -0.0979
 1137ERGO    R416093   7.738  14.605   6.510 -0.0258 -0.0006 -0.1904
 1137ERGO    R516094   7.954  14.582   6.517 -0.0396 -0.1909 -0.1698
 1137ERGO    C116095   7.882  14.647   6.886 -0.0144  0.0033 -0.1969
 1137ERGO    C216096   7.908  14.642   7.305  0.1096  0.0028  0.1668
 1138ERGO   ROH16097   7.738  16.988   9.042 -0.2216  0.1640 -0.1193
 1138ERGO    R116098   7.841  17.122   8.815 -0.1570  0.0954 -0.1277
 1138ERGO    R216099   8.066  17.035   8.680 -0.0786  0.1127  0.0081
 1138ERGO    R316100   7.901  17.041   8.465  0.0316 -0.0227 -0.0671
 1138ERGO    R416101   8.170  17.037   8.351  0.0860  0.1040  0.0571
 1138ERGO    R516102   8.013  17.181   8.307  0.0317  0.0030 -0.0422
 1138ERGO    C116103   8.075  17.044   7.957  0.2853 -0.0284  0.0152
 1138ERGO    C216104   8.151  16.936   7.581 -0.0854  0.1187  0.1143
 1139ERGO   ROH16105  14.008  13.511   6.248 -0.1874  0.0193 -0.2001
 1139ERGO    R116106  14.011  13.485   6.530 -0.0220  0.0319 -0.1999
 1139ERGO    R216107  13.785  13.522   6.685  0.0782  0.0770 -0.0664
 1139ERGO    R316108  13.847  13.275   6.778  0.0915  0.0709 -0.0899
 1139ERGO    R416109  13.649  13.378   6.968 -0.0679 -0.0345 -0.1908
 1139ERGO    R516110  13.847  13.299   7.016 -0.0728  0.0118 -0.0812
 1139ERGO    C116111  13.629  13.062   7.220 -0.1405 -0.1052 -0.2853
 1139ERGO    C216112  13.538  12.906   7.601 -0.0698  0.1382  0.2546
 1140ERGO   ROH16113  14.161   2.736   9.572 -0.0683 -0.3670  0.0395
 1140ERGO    R116114  14.231   2.680   9.303 -0.0221 -0.2458  0.0263
 1140ERGO    R216115  14.057   2.560   9.126 -0.0092 -0.1158 -0.0721
 1140ERGO    R316116  14.113   2.778   8.973  0.0732 -0.0514  0.0476
 1140ERGO    R416117  14.100   2.555   8.783 -0.1861  0.0791 -0.0999
 1140ERGO    R516118  14.265   2.697   8.807 -0.0675 -0.0547 -0.0843
 1140ERGO    C116119  14.178   2.757   8.440 -0.2116  0.2532 -0.0038
 1140ERGO    C216120  14.177   2.819   8.115  0.0404 -0.0476  0.1513
 1141ERGO   ROH16121   4.820   6.133   8.154  0.0692  0.0257 -0.0020
 1141ERGO    R116122   4.658   6.034   7.945  0.0599  0.0008  0.0174
 1141ERGO    R216123   4.487   6.195   7.799  0.0587 -0.0163  0.0034
 1141ERGO    R316124   4.622   6.092   7.587  0.0470 -0.0473  0.0101
 1141ERGO    R416125   4.512   6.344   7.488  0.1487  0.0062  0.0208
 1141ERGO    R516126   4.488   6.148   7.397  0.0874  0.0206 -0.0010
 1141ERGO    C116127   4.653   6.334   7.108  0.1901 -0.0098  0.0373
 1141ERGO    C216128   4.891   6.534   6.872 -0.2575 -0.0887  0.1960
 1142ERGO   ROH16129  16.772   1.346   9.101  0.1816  0.2480 -0.0844
 1142ERGO    R116130  16.859   1.343   8.832  0.0875 -0.1213 -0.1176
 1142ERGO    R216131  16.746   1.180   8.639 -0.3440 -0.0108  0.0288
 1142ERGO    R316132  16.713   1.414   8.506  0.1207 -0.0141 -0.1089
 1142ERGO    R416133  16.697   1.208   8.299 -0.2917 -0.1082  0.0130
 1142ERGO    R516134  16.828   1.382   8.299  0.0574 -0.3643 -0.0933
 1142ERGO    C116135  16.637   1.445   7.975  0.1748 -0.1680 -0.1256
 1142ERGO    C216136  16.490   1.458   7.677  0.0805 -0.2660 -0.1262
 1143ERGO   ROH16137  10.323  12.357   5.796 -0.0612  0.1331 -0.1648
 1143ERGO    R116138  10.192  12.371   6.046 -0.1622 -0.0385 -0.2055
 1143ERGO    R216139  10.076  12.151   6.166  0.1999 -0.2259 -0.1799
 1143ERGO    R316140  10.234  12.223   6.376  0.0180  0.1201 -0.1559
 1143ERGO    R416141  10.024  12.058   6.495  0.2194 -0.1338 -0.1513
 1143ERGO    R516142  10.081  12.259   6.556 -0.1030 -0.0134 -0.2322
 1143ERGO    C116143  10.141  12.071   6.883  0.0600  0.2447 -0.1121
 1143ERGO    C216144  10.119  11.817   7.086 -0.0305 -0.3044  0.1043
 1144ERGO   ROH16145  10.841   6.810   8.477 -0.1713 -0.1065 -0.1086
 1144ERGO    R116146  10.970   6.948   8.266 -0.2188  0.0168 -0.0589
 1144ERGO    R216147  11.139   6.821   8.087 -0.0200  0.1789  0.0039
 1144ERGO    R316148  10.973   6.931   7.902 -0.0565  0.0127 -0.0552
 1144ERGO    R416149  11.227   6.896   7.761 -0.0396  0.1019 -0.0188
 1144ERGO    R516150  11.112   7.080   7.778 -0.1363  0.0363 -0.1042
 1144ERGO    C116151  11.123   7.042   7.398 -0.0853 -0.0991 -0.0875
 1144ERGO    C216152  11.152   6.981   7.098  0.0729  0.3548 -0.1826
 1145ERGO   ROH16153  16.831   4.041   8.932 -0.2296 -0.2607 -0.0477
 1145ERGO    R116154  16.701   4.013   8.682 -0.0831 -0.0280 -0.1536
 1145ERGO    R216155  16.714   4.205   8.485  0.3745 -0.0224 -0.1258
 1145ERGO    R316156  16.800   3.998   8.332  0.1682 -0.1438 -0.0805
 1145ERGO    R416157  16.698   4.194   8.140  0.4194 -0.0461 -0.1271
 1145ERGO    R516158  16.640   3.984   8.155  0.1785  0.0152 -0.1065
 1145ERGO    C116159  16.769   3.992   7.796  0.2520 -0.1740 -0.0855
 1145ERGO    C216160  16.703   4.221   7.472 -0.2977 -0.4567  0.0464
 1146ERGO   ROH16161   3.616   9.814   9.784 -0.1671  0.0848  0.1563
 1146ERGO    R116162   3.584   9.802   9.503  0.0193  0.0865  0.1338
 1146ERGO    R216163   3.352   9.880   9.376 -0.0206 -0.2221  0.0085
 1146ERGO    R316164   3.521  10.039   9.233 -0.1554  0.0457  0.1384
 1146ERGO    R416165   3.282  10.009   9.063 -0.0405 -0.2110  0.0175
 1146ERGO    R516166   3.489   9.968   9.006  0.0439  0.0758  0.0999
 1146ERGO    C116167   3.400  10.233   8.747 -0.1786  0.0469  0.1445
 1146ERGO    C216168   3.192  10.503   8.687  0.1229 -0.1756  0.2660
 1147ERGO   ROH16169   2.517  10.461   6.051 -0.1643  0.1032 -0.0324
 1147ERGO    R116170   2.344  10.607   6.221 -0.1925  0.0710 -0.0315
 1147ERGO    R216171   2.096  10.512   6.298 -0.1369 -0.0222  0.0526
 1147ERGO    R316172   2.193  10.559   6.548 -0.0944  0.0860  0.0151
 1147ERGO    R416173   1.903  10.594   6.573 -0.0955 -0.0254  0.0817
 1147ERGO    R516174   2.056  10.737   6.632 -0.1420  0.0506  0.0029
 1147ERGO    C116175   1.881  10.686   6.967 -0.0314  0.0743  0.0633
 1147ERGO    C216176   1.661  10.653   7.133  0.2912  0.2722  0.1408
 1148ERGO   ROH16177   1.124   5.326   5.652  0.1560 -0.1092 -0.0640
 1148ERGO    R116178   1.165   5.250   5.921  0.0785 -0.0347 -0.0321
 1148ERGO    R216179   1.333   5.043   5.993  0.0447 -0.0179  0.0701
 1148ERGO    R316180   1.447   5.233   6.152  0.0129  0.0151  0.0554
 1148ERGO    R416181   1.438   4.990   6.318  0.1481 -0.0162  0.0384
 1148ERGO    R516182   1.358   5.187   6.370  0.0816 -0.0448  0.0769
 1148ERGO    C116183   1.606   5.137   6.657  0.1786  0.0157  0.0060
 1148ERGO    C216184   1.867   5.109   6.871 -0.0684  0.0480 -0.1386
 1149ERGO   ROH16185   0.518   8.140   5.483 -0.2528  0.1029 -0.1001
 1149ERGO    R116186   0.462   8.227   5.747 -0.2458  0.0206 -0.0707
 1149ERGO    R216187   0.225   8.168   5.876 -0.2110 -0.0855 -0.0531
 1149ERGO    R316188   0.392   8.071   6.068 -0.1551 -0.0812 -0.0997
 1149ERGO    R416189   0.135   8.109   6.204 -0.0745  0.0714  0.0136
 1149ERGO    R516190   0.328   8.188   6.266 -0.0111  0.0179 -0.1107
 1149ERGO    C116191   0.239   7.983   6.576  0.0574  0.1668  0.0087
 1149ERGO    C216192   0.433   7.719   6.644 -0.2513 -0.0576 -0.4250
 1150ERGO   ROH16193  16.252   1.332   5.944 -0.1826  0.0060 -0.1142
 1150ERGO    R116194  16.315   1.331   6.220 -0.0960  0.1283 -0.1337
 1150ERGO    R216195  16.276   1.550   6.383 -0.2791  0.1182 -0.1709
 1150ERGO    R316196  16.135   1.374   6.533 -0.0457 -0.0015 -0.0846
 1150ERGO    R416197  16.234   1.572   6.725 -0.4889  0.3681 -0.2088
 1150ERGO    R516198  16.260   1.356   6.737 -0.1075  0.4108  0.0022
 1150ERGO    C116199  16.077   1.419   7.065 -0.3920  0.4014 -0.1498
 1150ERGO    C216200  16.170   1.477   7.361  0.2372  0.2913 -0.0584
 1151ERGO   ROH16201  10.327  15.882   6.965 -0.5178  0.2142  0.2037
 1151ERGO    R116202  10.245  15.613   6.937 -0.3658  0.1666  0.2283
 1151ERGO    R216203  10.377  15.433   6.774 -0.3242  0.2585  0.1780
 1151ERGO    R316204  10.389  15.284   7.001 -0.1482  0.2440  0.1631
 1151ERGO    R416205  10.443  15.094   6.784 -0.7138  0.1712  0.0459
 1151ERGO    R516206  10.291  15.074   6.939 -0.5088  0.3554  0.2950
 1151ERGO    C116207  10.494  14.757   7.002 -0.7754  0.1068 -0.0451
 1151ERGO    C216208  10.576  14.453   7.013  0.0394 -0.1171  0.0292
 1152ERGO   ROH16209   4.461  17.236   6.185 -0.2556 -0.0927  0.0600
 1152ERGO    R116210   4.396  17.027   6.364 -0.2903 -0.0215  0.1310
 1152ERGO    R216211   4.561  16.954   6.574 -0.2053 -0.1094  0.0315
 1152ERGO    R316212   4.336  16.993   6.722 -0.0818  0.0709  0.1771
 1152ERGO    R416213   4.533  16.886   6.911 -0.1248 -0.3791 -0.0131
 1152ERGO    R516214   4.332  16.808   6.874 -0.2583 -0.0696  0.0106
 1152ERGO    C116215   4.305  16.883   7.247  0.0382 -0.3670  0.0976
 1152ERGO    C216216   4.182  16.914   7.584  0.1061  0.0892  0.0135
 1153ERGO   ROH16217  19.147  10.769   5.714  0.0958  0.0806  0.1586
 1153ERGO    R116218  19.037  10.747   5.974  0.1101 -0.0544  0.1522
 1153ERGO    R216219  19.102  10.539   6.146  0.4001  0.0551  0.1720
 1153ERGO    R316220  19.164  10.742   6.315  0.0936  0.1624  0.1645
 1153ERGO    R416221  19.122  10.510   6.489  0.3113  0.1231  0.1843
 1153ERGO    R516222  19.025  10.704   6.507  0.0631  0.0165  0.1211
 1153ERGO    C116223  19.193  10.684   6.849 -0.0285  0.2633  0.1845
 1153ERGO    C216224  19.274  10.583   7.059 -0.0155  0.0915  0.4189
 1154ERGO   ROH16225   5.537  14.786   5.654  0.0877  0.0206 -0.0083
 1154ERGO    R116226   5.674  14.657   5.866  0.1392  0.0275 -0.0381
 1154ERGO    R216227   5.866  14.785   6.018  0.0102  0.1026  0.0580
 1154ERGO    R316228   5.709  14.704   6.225  0.0288 -0.1092 -0.0079
 1154ERGO    R416229   5.971  14.755   6.346 -0.0723  0.2157  0.0962
 1154ERGO    R516230   5.855  14.571   6.362  0.1492  0.0623  0.0379
 1154ERGO    C116231   5.886  14.661   6.731 -0.1028  0.0827  0.0565
 1154ERGO    C216232   5.982  14.597   7.028 -0.0798 -0.4942  0.3146
 1155ERGO   ROH16233   2.822  18.953   5.524 -0.0622 -0.1527 -0.3122
 1155ERGO    R116234   2.666  18.798   5.702 -0.0693 -0.0240 -0.2066
 1155ERGO    R216235   2.748  18.552   5.796 -0.1682 -0.0475 -0.1957
 1155ERGO    R316236   2.702  18.665   6.039  0.0078  0.0260 -0.1935
 1155ERGO    R416237   2.681  18.376   6.086 -0.0724  0.0353 -0.1214
 1155ERGO    R516238   2.532  18.528   6.137  0.0073  0.1056 -0.0712
 1155ERGO    C116239   2.599  18.380   6.483  0.1486  0.1526 -0.0760
 1155ERGO    C216240   2.559  18.254   6.837 -0.0713  0.0016  0.0412
 1156ERGO   ROH16241  18.402  19.253   9.111 -0.1818 -0.2098  0.0661
 1156ERGO    R116242  18.364  19.120   8.864  0.0846  0.0149 -0.1010
 1156ERGO    R216243  18.114  19.062   8.763  0.1927 -0.4302 -0.1222
 1156ERGO    R316244  18.207  19.195   8.544 -0.1426  0.0710  0.0202
 1156ERGO    R416245  17.970  19.050   8.449  0.2774 -0.5607 -0.1574
 1156ERGO    R516246  18.170  19.043   8.363  0.3421  0.1161 -0.1352
 1156ERGO    C116247  17.973  19.168   8.061  0.0119 -0.1663 -0.0444
 1156ERGO    C216248  17.860  19.295   7.755 -0.2192  0.1565  0.2482
 1157ERGO   ROH16249   5.358   9.365   5.677  0.1340  0.2087  0.0034
 1157ERGO    R116250   5.461   9.302   5.934  0.0068  0.1042  0.0309
 1157ERGO    R216251   5.306   9.188   6.132 -0.0644 -0.0871 -0.1264
 1157ERGO    R316252   5.505   9.003   6.135  0.0194  0.0038 -0.1220
 1157ERGO    R416253   5.281   8.872   6.271  0.0779 -0.1088 -0.1500
 1157ERGO    R516254   5.484   8.895   6.348  0.0570 -0.0212 -0.1351
 1157ERGO    C116255   5.453   8.515   6.354  0.2395 -0.0363 -0.1596
 1157ERGO    C216256   5.424   8.138   6.298  0.1866  0.0825 -0.3124
 1158ERGO   ROH16257   2.291  18.392   9.389 -0.2336  0.0476 -0.0953
 1158ERGO    R116258   2.428  18.466   9.153 -0.2216  0.0544 -0.0874
 1158ERGO    R216259   2.505  18.283   8.962  0.0369  0.0189  0.0379
 1158ERGO    R316260   2.367  18.446   8.795 -0.0764 -0.2117 -0.0973
 1158ERGO    R416261   2.506  18.257   8.617  0.1907 -0.1348  0.0484
 1158ERGO    R516262   2.513  18.475   8.607 -0.0435 -0.1381 -0.0525
 1158ERGO    C116263   2.376  18.396   8.260  0.1740 -0.4406 -0.0725
 1158ERGO    C216264   2.359  18.291   7.793  0.0319 -0.3934  0.2636
 1159ERGO   ROH16265  13.874   7.553   9.033 -0.0142 -0.1670 -0.0769
 1159ERGO    R116266  13.933   7.607   8.761 -0.0793 -0.0392 -0.0657
 1159ERGO    R216267  13.896   7.419   8.561 -0.1064  0.0492 -0.1398
 1159ERGO    R316268  13.748   7.617   8.448 -0.1485  0.0872 -0.0221
 1159ERGO    R416269  13.862   7.471   8.221 -0.2087  0.1730 -0.1125
 1159ERGO    R516270  13.876   7.686   8.257 -0.2056  0.1625 -0.0361
 1159ERGO    C116271  13.704   7.687   7.917 -0.3075  0.2807  0.0139
 1159ERGO    C216272  13.621   7.670   7.545  0.3256  0.0807  0.2104
 1160ERGO   ROH16273  10.128  18.522   9.498  0.1723  0.1923 -0.0851
 1160ERGO    R116274  10.227  18.588   9.242  0.1447  0.0757 -0.1264
 1160ERGO    R216275  10.269  18.398   9.045 -0.0282  0.0061 -0.0990
 1160ERGO    R316276  10.109  18.562   8.898  0.0341  0.0766 -0.0889
 1160ERGO    R416277  10.315  18.472   8.711 -0.0153 -0.0102 -0.1008
 1160ERGO    R516278  10.260  18.678   8.753  0.0760  0.0134 -0.0959
 1160ERGO    C116279  10.192  18.668   8.378  0.0506  0.0464 -0.0923
 1160ERGO    C216280   9.993  18.725   8.114  0.1636 -0.1793 -0.3606
 1161ERGO   ROH16281   8.913   4.397   5.198  0.1749 -0.0397  0.0804
 1161ERGO    R116282   8.730   4.342   5.408  0.2357 -0.2614  0.0773
 1161ERGO    R216283   8.800   4.192   5.630  0.4232 -0.1553  0.0934
 1161ERGO    R316284   8.709   4.410   5.764  0.1318 -0.2581  0.0703
 1161ERGO    R416285   8.722   4.198   5.966  0.3965 -0.2243  0.0886
 1161ERGO    R516286   8.549   4.322   5.919  0.2363 -0.4518  0.0694
 1161ERGO    C116287   8.591   4.406   6.289  0.1074 -0.3609  0.0642
 1161ERGO    C216288   8.663   4.481   6.595  0.1928 -0.2943  0.1036
 1162ERGO   ROH16289   8.666   8.527   8.454 -0.2152  0.2550  0.1559
 1162ERGO    R116290   8.464   8.543   8.257 -0.1740  0.3133  0.1156
 1162ERGO    R216291   8.424   8.769   8.103  0.0527  0.2598 -0.0417
 1162ERGO    R316292   8.449   8.594   7.897 -0.0684  0.0967  0.0817
 1162ERGO    R416293   8.394   8.852   7.769  0.0663  0.0210 -0.1024
 1162ERGO    R516294   8.285   8.666   7.738 -0.0377  0.0655  0.0457
 1162ERGO    C116295   8.400   8.736   7.381 -0.0395 -0.2711 -0.0220
 1162ERGO    C216296   8.358   8.772   7.042 -0.2584  0.0733  0.0670
 1163ERGO   ROH16297  16.699   7.559   9.106  0.4007  0.1361 -0.0247
 1163ERGO    R116298  16.838   7.594   8.862  0.4877 -0.2801 -0.0416
 1163ERGO    R216299  16.931   7.381   8.712 -0.3746 -0.6007 -0.1777
 1163ERGO    R316300  16.789   7.500   8.514  0.0145  0.0767 -0.0802
 1163ERGO    R416301  16.989   7.339   8.374 -0.6287 -0.6619 -0.2160
 1163ERGO    R516302  16.952   7.552   8.346  0.1907 -0.4676 -0.0945
 1163ERGO    C116303  16.889   7.427   7.991 -0.4111 -0.0616 -0.1469
 1163ERGO    C216304  16.877   7.331   7.738 -0.1063 -0.2699 -0.1068
 1164ERGO   ROH16305  11.666  11.304   9.422  0.0132  0.2140  0.0136
 1164ERGO    R116306  11.677  11.494   9.212 -0.0869 -0.0092 -0.1971
 1164ERGO    R216307  11.911  11.616   9.134 -0.1929  0.2228 -0.1435
 1164ERGO    R316308  11.841  11.522   8.888  0.1303 -0.1555 -0.1047
 1164ERGO    R416309  12.042  11.730   8.835 -0.2542  0.2328 -0.1672
 1164ERGO    R516310  11.841  11.717   8.748 -0.1983 -0.2628 -0.2763
 1164ERGO    C116311  12.052  11.708   8.430  0.0136 -0.1164 -0.1447
 1164ERGO    C216312  12.215  11.794   8.092  0.1529  0.1558  0.0274
 1165ERGO   ROH16313   8.603   9.626   5.215  0.0751  0.0770  0.0704
 1165ERGO    R116314   8.371   9.577   5.370  0.0300  0.0027 -0.0195
 1165ERGO    R216315   8.332   9.341   5.508  0.0269 -0.0312 -0.0781
 1165ERGO    R316316   8.297   9.508   5.720 -0.0792 -0.0781 -0.0580
 1165ERGO    R416317   8.164   9.259   5.799  0.2558 -0.2445 -0.0020
 1165ERGO    R516318   8.076   9.459   5.799  0.0131 -0.3478  0.0424
 1165ERGO    C116319   8.033   9.369   6.167  0.2895 -0.4127  0.0612
 1165ERGO    C216320   7.917   9.069   6.335 -0.1412  0.2178  0.2996
 1166ERGO   ROH16321   1.979  17.681   5.437  0.2528 -0.0841  0.0355
 1166ERGO    R116322   1.879  17.773   5.686  0.2064 -0.0076 -0.0093
 1166ERGO    R216323   1.716  17.619   5.848  0.0255  0.1052 -0.0696
 1166ERGO    R316324   1.906  17.673   6.034 -0.0120 -0.0196  0.0033
 1166ERGO    R416325   1.674  17.586   6.189 -0.0954  0.0690 -0.0889
 1166ERGO    R516326   1.786  17.770   6.216 -0.0181  0.0051 -0.0204
 1166ERGO    C116327   1.828  17.618   6.563 -0.2010 -0.0689 -0.0317
 1166ERGO    C216328   1.936  17.728   6.907 -0.0284 -0.3422 -0.0449
 1167ERGO   ROH16329   0.634  10.813   9.433  0.0049 -0.2001  0.1266
 1167ERGO    R116330   0.667  10.800   9.152 -0.0279 -0.2129  0.1241
 1167ERGO    R216331   0.462  10.732   8.981 -0.0776 -0.1024  0.1449
 1167ERGO    R316332   0.526  10.967   8.861  0.0329 -0.1347  0.1375
 1167ERGO    R416333   0.443  10.792   8.641 -0.3860 -0.0067  0.1753
 1167ERGO    R516334   0.630  10.903   8.655 -0.2506 -0.1969  0.0042
 1167ERGO    C116335   0.492  11.048   8.331 -0.4619  0.0188  0.1858
 1167ERGO    C216336   0.405  11.114   7.915 -0.3523 -0.0315  0.1505
 1168ERGO   ROH16337   7.037   7.907   4.930  0.1731  0.0169  0.1015
 1168ERGO    R116338   7.074   7.736   5.152  0.2343 -0.0052  0.0735
 1168ERGO    R216339   7.283   7.765   5.331  0.0828  0.1967  0.2161
 1168ERGO    R316340   7.083   7.771   5.514 -0.0452 -0.1005  0.0935
 1168ERGO    R416341   7.311   7.657   5.658  0.0073  0.1119  0.1958
 1168ERGO    R516342   7.113   7.570   5.641  0.1113 -0.1173  0.0387
 1168ERGO    C116343   7.140   7.599   6.021 -0.1567 -0.2164  0.0690
 1168ERGO    C216344   7.112   7.705   6.322 -0.0365  0.1578  0.4279
 1169ERGO   ROH16345  19.149   8.792   5.574 -0.2336  0.0644  0.1058
 1169ERGO    R116346  18.952   8.905   5.743 -0.1534  0.1205  0.1628
 1169ERGO    R216347  18.910   8.817   6.002 -0.0620  0.1717  0.1958
 1169ERGO    R316348  18.946   9.080   6.062 -0.0039  0.1802  0.1340
 1169ERGO    R416349  18.845   8.961   6.309 -0.0450  0.2600  0.1585
 1169ERGO    R516350  18.763   9.134   6.206 -0.0009  0.2564  0.1117
 1169ERGO    C116351  18.842   9.291   6.545  0.0196  0.3195  0.0789
 1169ERGO    C216352  19.006   9.233   6.875 -0.5057 -0.0841  0.4552
 1170ERGO   ROH16353  17.162   7.929   5.862 -0.1242 -0.3079 -0.1365
 1170ERGO    R116354  16.991   8.015   6.070 -0.0949 -0.1864 -0.1625
 1170ERGO    R216355  16.797   7.852   6.181 -0.0413 -0.1407 -0.0029
 1170ERGO    R316356  16.922   7.917   6.413 -0.0045  0.0515 -0.0736
 1170ERGO    R416357  16.636   7.928   6.478  0.0059 -0.1670  0.0300
 1170ERGO    R516358  16.783   8.085   6.511 -0.1119 -0.0279 -0.0844
 1170ERGO    C116359  16.661   8.033   6.868  0.0681 -0.0019 -0.0172
 1170ERGO    C216360  16.405   8.093   7.191  0.1557  0.0526  0.2305
 1171ERGO   ROH16361  12.762   1.886   5.673  0.1164 -0.1715  0.1081
 1171ERGO    R116362  12.573   1.843   5.879  0.0975 -0.0233  0.1211
 1171ERGO    R216363  12.507   1.591   5.972 -0.0134  0.0370  0.1982
 1171ERGO    R316364  12.573   1.699   6.213  0.0306  0.0807  0.1679
 1171ERGO    R416365  12.380   1.488   6.277  0.1503 -0.0122  0.2517
 1171ERGO    R516366  12.369   1.697   6.338  0.0751 -0.0108  0.2461
 1171ERGO    C116367  12.368   1.529   6.680  0.2866  0.0000  0.2544
 1171ERGO    C216368  12.276   1.647   7.008  0.2503  0.0355  0.0834
 1172ERGO   ROH16369  10.039   2.523   8.795 -0.1296  0.1919 -0.0154
 1172ERGO    R116370  10.139   2.409   8.555  0.0897  0.2258  0.0568
 1172ERGO    R216371   9.988   2.239   8.398  0.4020 -0.1495  0.1480
 1172ERGO    R316372  10.049   2.417   8.202  0.0845 -0.1466  0.0464
 1172ERGO    R416373  10.037   2.159   8.065  0.1101 -0.1773  0.1096
 1172ERGO    R516374  10.202   2.300   8.060  0.0142 -0.0713 -0.0906
 1172ERGO    C116375  10.122   2.280   7.688 -0.3578 -0.1907 -0.0084
 1172ERGO    C216376  10.114   2.277   7.389 -0.0801 -0.3496 -0.1664
 1173ERGO   ROH16377   4.227  13.826   6.526  0.1179  0.2416  0.1117
 1173ERGO    R116378   4.076  13.862   6.763 -0.0159  0.2540  0.0257
 1173ERGO    R216379   4.183  13.975   6.991 -0.0666  0.0273  0.1636
 1173ERGO    R316380   3.970  14.143   6.969  0.1066  0.2444  0.1042
 1173ERGO    R416381   4.101  14.222   7.219 -0.1006 -0.1584  0.3554
 1173ERGO    R516382   3.891  14.169   7.194 -0.1264  0.0546  0.0504
 1173ERGO    C116383   3.854  14.523   7.331  0.0421 -0.0628  0.4114
 1173ERGO    C216384   3.904  14.718   7.681  0.0325 -0.1700 -0.1277
 1174ERGO   ROH16385  11.342  19.223   9.282  0.1637 -0.2485 -0.0273
 1174ERGO    R116386  11.297  19.323   9.021  0.0218 -0.0774  0.0619
 1174ERGO    R216387  11.475  19.491   8.894  0.0413 -0.1504  0.0073
 1174ERGO    R316388  11.463  19.302   8.698 -0.2641 -0.0350 -0.0931
 1174ERGO    R416389  11.513  19.554   8.556  0.2725 -0.0371  0.0513
 1174ERGO    R516390  11.352  19.412   8.516 -0.0013  0.2855 -0.0750
 1174ERGO    C116391  11.524  19.414   8.176  0.1202  0.1369 -0.0172
 1174ERGO    C216392  11.720  19.673   7.957  0.2376  0.2649 -0.3360
 1175ERGO   ROH16393   3.945   0.437   5.784 -0.0362 -0.0612 -0.0392
 1175ERGO    R116394   3.759   0.461   5.997  0.0073 -0.1026  0.0036
 1175ERGO    R216395   3.505   0.354   5.985 -0.0162 -0.0483  0.0108
 1175ERGO    R316396   3.579   0.233   6.217  0.0031 -0.1484 -0.0467
 1175ERGO    R416397   3.286   0.231   6.222 -0.0003  0.1119  0.1097
 1175ERGO    R516398   3.418   0.309   6.377  0.1542 -0.0269  0.0516
 1175ERGO    C116399   3.228   0.047   6.578  0.0271  0.1112  0.1133
 1175ERGO    C216400   2.929  -0.201   6.690 -0.2585 -0.4407 -0.3414
 1176ERGO   ROH16401  12.210   8.589   8.980 -0.0836 -0.0607 -0.0060
 1176ERGO    R116402  12.273   8.590   8.704 -0.1843  0.1307 -0.0298
 1176ERGO    R216403  12.084   8.543   8.508 -0.2202  0.0780  0.0140
 1176ERGO    R316404  12.172   8.781   8.411 -0.4462  0.2017  0.1049
 1176ERGO    R416405  12.020   8.662   8.190 -0.0434 -0.0155 -0.0582
 1176ERGO    R516406  12.225   8.736   8.181 -0.1344  0.2710  0.1615
 1176ERGO    C116407  12.065   8.955   7.913 -0.1527  0.0461 -0.0149
 1176ERGO    C216408  12.032   9.078   7.531  0.2475 -0.0740 -0.1429
 1177ERGO   ROH16409   8.690   4.579   8.259 -0.3114  0.3170  0.0415
 1177ERGO    R116410   8.615   4.580   7.986 -0.1036  0.1437 -0.0185
 1177ERGO    R216411   8.797   4.625   7.782  0.0633 -0.0601  0.0865
 1177ERGO    R316412   8.700   4.390   7.688  0.0639 -0.0975  0.1777
 1177ERGO    R416413   8.780   4.539   7.448 -0.1096 -0.1024  0.1052
 1177ERGO    R516414   8.585   4.449   7.486 -0.0703 -0.1468  0.2346
 1177ERGO    C116415   8.679   4.267   7.165 -0.2098 -0.1621  0.2018
 1177ERGO    C216416   8.783   4.061   6.854 -0.1407 -0.0418  0.5724
 1178ERGO   ROH16417  19.124  11.534   9.002  0.0453  0.0129 -0.1797
 1178ERGO    R116418  19.017  11.555   8.740 -0.0234 -0.0794 -0.1594
 1178ERGO    R216419  19.097  11.750   8.562 -0.1462 -0.0784 -0.2130
 1178ERGO    R316420  19.145  11.537   8.400 -0.0940 -0.0875 -0.1859
 1178ERGO    R416421  19.022  11.737   8.225 -0.0989 -0.1198 -0.2221
 1178ERGO    R516422  18.957  11.531   8.252 -0.0740 -0.1273 -0.2112
 1178ERGO    C116423  19.024  11.529   7.877 -0.0224 -0.1524 -0.2021
 1178ERGO    C216424  18.992  11.405   7.715 -0.0960 -0.2939  0.1488
 1179ERGO   ROH16425  11.191  13.086   5.964 -0.1158 -0.0527 -0.0605
 1179ERGO    R116426  11.227  13.205   6.218 -0.1967 -0.1778  0.0105
 1179ERGO    R216427  11.258  13.478   6.251  0.0591 -0.2205  0.1264
 1179ERGO    R316428  11.050  13.448   6.424 -0.1140 -0.0650 -0.0494
 1179ERGO    R416429  11.177  13.699   6.504  0.1594 -0.2725  0.2059
 1179ERGO    R516430  11.133  13.529   6.633 -0.1593 -0.3060  0.0681
 1179ERGO    C116431  10.934  13.800   6.812  0.0552 -0.1568  0.0871
 1179ERGO    C216432  10.965  14.116   7.012 -0.1656 -0.0794 -0.0774
 1180ERGO   ROH16433   9.578  14.308   5.944  0.0052 -0.0999 -0.1136
 1180ERGO    R116434   9.495  14.504   6.130 -0.0207 -0.0861 -0.1405
 1180ERGO    R216435   9.533  14.478   6.403 -0.1157 -0.0946 -0.1302
 1180ERGO    R316436   9.654  14.720   6.377 -0.0644 -0.1145 -0.0862
 1180ERGO    R416437   9.622  14.683   6.666  0.0950 -0.2464 -0.0796
 1180ERGO    R516438   9.555  14.854   6.548  0.0708 -0.1693  0.0394
 1180ERGO    C116439   9.787  15.030   6.794  0.2659 -0.3536 -0.0089
 1180ERGO    C216440   9.858  15.090   7.174 -0.3357 -0.1689 -0.5046
 1181ERGO   ROH16441  14.178   4.981   9.062  0.0100 -0.0893 -0.0360
 1181ERGO    R116442  14.290   4.966   8.802 -0.0798 -0.0321 -0.0781
 1181ERGO    R216443  14.201   4.786   8.612 -0.0794 -0.0562 -0.0521
 1181ERGO    R316444  14.173   5.009   8.460 -0.2225 -0.0604 -0.0341
 1181ERGO    R416445  14.106   4.788   8.280  0.1311 -0.1125 -0.1148
 1181ERGO    R516446  14.253   4.945   8.244 -0.0104  0.0552  0.0052
 1181ERGO    C116447  14.024   5.000   7.944  0.1192 -0.1491 -0.1346
 1181ERGO    C216448  13.948   4.938   7.607 -0.1497 -0.1597 -0.1461
 1182ERGO   ROH16449  11.820   2.802   5.691 -0.0668 -0.0186 -0.0508
 1182ERGO    R116450  11.906   2.897   5.944 -0.1818  0.0912 -0.0512
 1182ERGO    R216451  11.746   3.053   6.106 -0.3635 -0.0640 -0.0677
 1182ERGO    R316452  11.799   2.860   6.290 -0.1675 -0.0020 -0.0580
 1182ERGO    R416453  11.717   3.093   6.448 -0.0566  0.0183 -0.0488
 1182ERGO    R516454  11.900   2.978   6.472 -0.0214  0.0575 -0.1819
 1182ERGO    C116455  11.749   2.935   6.820  0.3061  0.1244 -0.0287
 1182ERGO    C216456  11.782   3.080   7.224 -0.1410 -0.1610  0.2645
 1183ERGO   ROH16457  16.347   2.517   5.898 -0.1514  0.2155  0.0265
 1183ERGO    R116458  16.202   2.559   6.136 -0.1498  0.0663  0.0535
 1183ERGO    R216459  16.166   2.361   6.326  0.0911  0.0323  0.0567
 1183ERGO    R316460  16.270   2.548   6.494 -0.0732  0.1397  0.0437
 1183ERGO    R416461  16.138   2.354   6.670  0.2493 -0.0860  0.0686
 1183ERGO    R516462  16.106   2.570   6.667 -0.0362 -0.1147  0.1235
 1183ERGO    C116463  16.220   2.524   7.028  0.1872 -0.0541  0.0633
 1183ERGO    C216464  16.182   2.376   7.359 -0.1983 -0.1440 -0.0224
 1184ERGO   ROH16465   3.669  17.123   9.080 -0.0004 -0.0876  0.0647
 1184ERGO    R116466   3.697  17.278   8.845 -0.1743 -0.0596  0.0575
 1184ERGO    R216467   3.931  17.282   8.695 -0.1416  0.2444  0.0768
 1184ERGO    R316468   3.764  17.213   8.493 -0.0390 -0.0051  0.0790
 1184ERGO    R416469   4.006  17.303   8.359 -0.1130  0.0591  0.0731
 1184ERGO    R516470   3.805  17.374   8.322 -0.1314 -0.1138 -0.0227
 1184ERGO    C116471   3.893  17.250   7.973  0.0001 -0.2828  0.0730
 1184ERGO    C216472   3.770  17.243   7.644 -0.2484  0.0958 -0.1507
 1185ERGO   ROH16473   8.925  18.125   9.314  0.0210  0.0255  0.0018
 1185ERGO    R116474   9.016  18.165   9.049  0.0484 -0.0430  0.0015
 1185ERGO    R216475   9.191  18.368   8.980  0.1372 -0.1307 -0.0119
 1185ERGO    R316476   9.336  18.163   8.875  0.0541 -0.2026  0.0088
 1185ERGO    R416477   9.328  18.364   8.663 -0.0577 -0.3026 -0.0974
 1185ERGO    R516478   9.270  18.155   8.645 -0.0920 -0.3135  0.0477
 1185ERGO    C116479   9.544  18.170   8.380 -0.2493 -0.4700 -0.1277
 1185ERGO    C216480   9.761  18.173   8.114  0.0336  0.0880 -0.2707
 1186ERGO   ROH16481   5.650   6.900   5.110  0.0380  0.3068 -0.0019
 1186ERGO    R116482   5.410   6.880   5.260  0.0128  0.3469 -0.0373
 1186ERGO    R216483   5.347   6.656   5.409 -0.1449  0.2725 -0.2172
 1186ERGO    R316484   5.321   6.838   5.610 -0.0441  0.1333 -0.0755
 1186ERGO    R416485   5.258   6.580   5.734 -0.0196  0.0443 -0.2339
 1186ERGO    R516486   5.134   6.759   5.738 -0.0022  0.0585 -0.0551
 1186ERGO    C116487   5.182   6.705   6.112  0.1481 -0.2192 -0.1107
 1186ERGO    C216488   5.133   6.522   6.369 -0.0088 -0.0558  0.2205
 1187ERGO   ROH16489  16.512  14.525   5.889  0.1680  0.1706 -0.1121
 1187ERGO    R116490  16.649  14.476   6.131  0.0880  0.1538 -0.0704
 1187ERGO    R216491  16.586  14.605   6.367 -0.0770  0.0391 -0.0527
 1187ERGO    R316492  16.566  14.351   6.463  0.0080 -0.0053 -0.1492
 1187ERGO    R416493  16.580  14.521   6.702 -0.0812 -0.0883 -0.0836
 1187ERGO    R516494  16.707  14.350   6.656 -0.0112 -0.0239 -0.1345
 1187ERGO    C116495  16.558  14.234   6.987 -0.0037 -0.2041 -0.1923
 1187ERGO    C216496  16.505  14.224   7.323  0.0119 -0.2544  0.1806
 1188ERGO   ROH16497  13.345   9.498   9.223  0.0232 -0.0773  0.1829
 1188ERGO    R116498  13.398   9.436   8.952  0.0895 -0.1126  0.2032
 1188ERGO    R216499  13.212   9.475   8.750  0.0935 -0.2515  0.1673
 1188ERGO    R316500  13.413   9.618   8.637  0.0372 -0.1748  0.1656
 1188ERGO    R416501  13.277   9.489   8.411  0.0891 -0.2236  0.1684
 1188ERGO    R516502  13.490   9.480   8.456  0.0900 -0.1417  0.1658
 1188ERGO    C116503  13.503   9.633   8.107  0.0339 -0.1353  0.1672
 1188ERGO    C216504  13.371   9.858   7.850  0.1500 -0.2119  0.2192
 1189ERGO   ROH16505   2.815   2.231   8.518  0.0653  0.0793 -0.0261
 1189ERGO    R116506   2.667   2.167   8.286  0.1894 -0.0286 -0.0755
 1189ERGO    R216507   2.473   2.335   8.181  0.0131 -0.2258 -0.0638
 1189ERGO    R316508   2.620   2.310   7.954  0.0911  0.0142 -0.0439
 1189ERGO    R416509   2.374   2.441   7.868  0.1005  0.0584  0.0003
 1189ERGO    R516510   2.460   2.260   7.784  0.1549  0.1505 -0.1460
 1189ERGO    C116511   2.454   2.479   7.472  0.2246  0.4492  0.0565
 1189ERGO    C216512   2.334   2.668   7.167 -0.1602  0.0319 -0.0176
 1190ERGO   ROH16513   3.766   7.129   8.858 -0.0325  0.1708  0.1743
 1190ERGO    R116514   3.755   7.166   8.577  0.0628  0.1237  0.1645
 1190ERGO    R216515   3.559   7.051   8.420  0.1277  0.0847  0.1167
 1190ERGO    R316516   3.519   7.307   8.338  0.1366  0.0677  0.0567
 1190ERGO    R416517   3.360   7.144   8.154 -0.0577  0.0415  0.2378
 1190ERGO    R516518   3.510   7.292   8.099 -0.0550 -0.0184  0.0654
 1190ERGO    C116519   3.206   7.438   7.921 -0.1572  0.0005  0.2519
 1190ERGO    C216520   3.028   7.473   7.577  0.3006  0.4023 -0.0639
 1191ERGO   ROH16521  16.186  15.893   6.150 -0.4174 -0.0103  0.0628
 1191ERGO    R116522  16.008  15.754   6.319 -0.2035 -0.2403  0.1062
 1191ERGO    R216523  16.076  15.517   6.444  0.1574 -0.1217  0.1562
 1191ERGO    R316524  16.001  15.651   6.669 -0.0233 -0.1755  0.1286
 1191ERGO    R416525  16.043  15.376   6.758  0.0261 -0.1634  0.1233
 1191ERGO    R516526  15.864  15.496   6.788 -0.0340 -0.2360  0.0329
 1191ERGO    C116527  15.954  15.420   7.151 -0.2200 -0.2381  0.0783
 1191ERGO    C216528  16.011  15.129   7.250 -0.1341 -0.0687  0.0259
 1192ERGO   ROH16529  13.503   3.430   9.364 -0.2568  0.1740  0.0532
 1192ERGO    R116530  13.414   3.571   9.134 -0.1440  0.2356  0.0469
 1192ERGO    R216531  13.537   3.801   9.043  0.1211  0.0621 -0.0370
 1192ERGO    R316532  13.551   3.662   8.810 -0.1162 -0.0085 -0.0129
 1192ERGO    R416533  13.592   3.941   8.732 -0.0400 -0.0418 -0.1146
 1192ERGO    R516534  13.445   3.804   8.649 -0.1697  0.0025  0.0283
 1192ERGO    C116535  13.638   3.893   8.333 -0.3565 -0.1686 -0.1371
 1192ERGO    C216536  13.867   3.900   7.937 -0.0046 -0.0693 -0.2217
 1193ERGO   ROH16537   2.757   8.700   8.997  0.1839 -0.3078 -0.0276
 1193ERGO    R116538   2.826   8.837   8.759  0.1412 -0.2606 -0.0128
 1193ERGO    R216539   2.782   8.731   8.508  0.0394 -0.1844 -0.0268
 1193ERGO    R316540   2.650   8.965   8.467  0.0796 -0.1433  0.0745
 1193ERGO    R416541   2.744   8.886   8.201  0.1283 -0.0094  0.0491
 1193ERGO    R516542   2.778   9.078   8.299  0.1329 -0.0669  0.1641
 1193ERGO    C116543   2.598   9.196   7.984  0.2177  0.1311  0.1881
 1193ERGO    C216544   2.649   9.441   7.803  0.2641 -0.0724 -0.0662
 1194ERGO   ROH16545  15.383  17.563   9.889 -0.1729 -0.2219  0.1111
 1194ERGO    R116546  15.316  17.676   9.639 -0.3695 -0.1788  0.1822
 1194ERGO    R216547  15.500  17.705   9.435 -0.4157  0.2643  0.1992
 1194ERGO    R316548  15.315  17.568   9.291 -0.1836  0.0312  0.1124
 1194ERGO    R416549  15.454  17.733   9.093 -0.1050 -0.0047  0.1294
 1194ERGO    R516550  15.239  17.724   9.127 -0.1375 -0.1321 -0.0715
 1194ERGO    C116551  15.252  17.620   8.760  0.2938 -0.3802  0.0073
 1194ERGO    C216552  15.192  17.600   8.396 -0.0181 -0.1862  0.0268
 1195ERGO   ROH16553  18.799  18.243   5.854  0.0656  0.1894  0.1614
 1195ERGO    R116554  18.570  18.345   5.985  0.0540  0.3434  0.0227
 1195ERGO    R216555  18.532  18.323   6.258 -0.2790  0.0714 -0.0425
 1195ERGO    R316556  18.502  18.592   6.244  0.1004  0.1373  0.2368
 1195ERGO    R416557  18.313  18.508   6.451 -0.3659  0.1073 -0.1735
 1195ERGO    R516558  18.267  18.628   6.275  0.0814  0.3948 -0.1138
 1195ERGO    C116559  18.157  18.869   6.550 -0.0603  0.1901  0.0124
 1195ERGO    C216560  18.167  19.102   6.711 -0.1179 -0.0068  0.0245
 1196ERGO   ROH16561   6.978  17.950   5.605 -0.0868  0.0429 -0.0772
 1196ERGO    R116562   7.033  18.065   5.858  0.0372  0.0869 -0.1219
 1196ERGO    R216563   6.860  18.042   6.072  0.0485  0.2859 -0.0823
 1196ERGO    R316564   7.081  17.945   6.198 -0.0023  0.1601 -0.0921
 1196ERGO    R416565   6.932  18.087   6.407  0.2072  0.4332 -0.1357
 1196ERGO    R516566   7.141  18.117   6.353  0.2147  0.1999 -0.2236
 1196ERGO    C116567   7.180  18.022   6.721  0.2519  0.4009 -0.1760
 1196ERGO    C216568   7.367  17.759   6.988  0.0899  0.0198  0.0975
 1197ERGO   ROH16569   3.685   1.281   5.473 -0.1256  0.2265 -0.1644
 1197ERGO    R116570   3.646   1.326   5.750  0.0381  0.0638 -0.1124
 1197ERGO    R216571   3.585   1.575   5.853  0.1597  0.0175  0.0790
 1197ERGO    R316572   3.375   1.442   5.963  0.1845  0.0040  0.1099
 1197ERGO    R416573   3.447   1.644   6.162  0.2641 -0.0587  0.1431
 1197ERGO    R516574   3.427   1.430   6.196  0.2579 -0.0659  0.0895
 1197ERGO    C116575   3.170   1.560   6.446  0.3481 -0.1158  0.2095
 1197ERGO    C216576   2.938   1.595   6.721 -0.3561  0.0620 -0.1821
 1198ERGO   ROH16577   6.060   7.688   5.872  0.0400 -0.1573  0.0566
 1198ERGO    R116578   6.124   7.417   5.823 -0.0760 -0.1691 -0.0310
 1198ERGO    R216579   6.289   7.271   5.989  0.0059 -0.2391 -0.1765
 1198ERGO    R316580   6.078   7.099   5.994 -0.0402 -0.1816 -0.0427
 1198ERGO    R416581   6.291   6.960   6.141 -0.0391 -0.1629 -0.0170
 1198ERGO    R516582   6.178   6.882   5.971 -0.0989 -0.2208  0.0445
 1198ERGO    C116583   6.094   6.618   6.234 -0.1086 -0.0646  0.2014
 1198ERGO    C216584   6.045   6.304   6.394  0.1729 -0.2494 -0.0347
 1199ERGO   ROH16585   6.916  12.637   5.648 -0.0547  0.0777  0.0044
 1199ERGO    R116586   7.061  12.587   5.886 -0.0260 -0.0557 -0.0418
 1199ERGO    R216587   7.338  12.593   5.895 -0.0357  0.1066 -0.0380
 1199ERGO    R316588   7.294  12.770   6.096 -0.1397 -0.1092  0.1368
 1199ERGO    R416589   7.567  12.675   6.141  0.0582  0.2476 -0.1697
 1199ERGO    R516590   7.405  12.675   6.286  0.1651 -0.1061 -0.0261
 1199ERGO    C116591   7.659  12.889   6.472  0.0153  0.1270 -0.0823
 1199ERGO    C216592   7.940  12.985   6.716  0.0746  0.1501  0.1490
 1200ERGO   ROH16593   6.851   3.120   5.067  0.0559 -0.0079  0.0759
 1200ERGO    R116594   6.697   3.123   5.304  0.0110 -0.0960  0.0494
 1200ERGO    R216595   6.807   3.173   5.553 -0.0450 -0.1245  0.0842
 1200ERGO    R316596   6.616   3.366   5.563 -0.0907 -0.1708  0.0868
 1200ERGO    R416597   6.684   3.314   5.844 -0.0633 -0.1358  0.0812
 1200ERGO    R516598   6.485   3.309   5.756 -0.0648 -0.1886  0.0959
 1200ERGO    C116599   6.434   3.577   6.023 -0.1168 -0.1858  0.0819
 1200ERGO    C216600   6.511   3.820   6.252 -0.1490 -0.0930 -0.0428
 1201ERGO   ROH16601  19.352   0.037   9.151  0.2602  0.1647  0.0758
 1201ERGO    R116602  19.366   0.064   8.869  0.2935  0.0320  0.0636
 1201ERGO    R216603  19.419  -0.149   8.701  0.0995 -0.0929  0.1545
 1201ERGO    R316604  19.188  -0.071   8.582  0.1734  0.0731  0.1183
 1201ERGO    R416605  19.372  -0.124   8.360  0.1968  0.0362  0.1498
 1201ERGO    R516606  19.260   0.059   8.394  0.2921  0.0891  0.1752
 1201ERGO    C116607  19.128  -0.036   8.049  0.3224  0.2675  0.1133
 1201ERGO    C216608  19.192   0.058   7.735 -0.1902 -0.3573  0.0228
 1202ERGO   ROH16609   8.496  18.764   5.796  0.1019  0.0969  0.0198
 1202ERGO    R116610   8.458  19.011   5.928 -0.0182  0.0696  0.0380
 1202ERGO    R216611   8.236  19.064   6.084 -0.0768 -0.0253 -0.0122
 1202ERGO    R316612   8.423  19.123   6.273 -0.1449  0.0192  0.0418
 1202ERGO    R416613   8.173  19.236   6.377 -0.2039 -0.0483 -0.0255
 1202ERGO    R516614   8.361  19.342   6.351 -0.2237  0.0017  0.0299
 1202ERGO    C116615   8.311  19.391   6.725 -0.3419 -0.0199  0.0173
 1202ERGO    C216616   8.177  19.448   6.980 -0.0612  0.0944  0.2213
 1203ERGO   ROH16617  13.184   1.112   9.543 -0.1249  0.0532 -0.1351
 1203ERGO    R116618  13.094   1.135   9.276 -0.0710 -0.0926 -0.1659
 1203ERGO    R216619  13.225   1.287   9.086 -0.1879  0.0299 -0.1477
 1203ERGO    R316620  13.223   1.055   8.945  0.1215  0.0035 -0.1152
 1203ERGO    R416621  13.270   1.263   8.744  0.0073  0.0235 -0.1230
 1203ERGO    R516622  13.114   1.111   8.739  0.1643 -0.1395 -0.1790
 1203ERGO    C116623  13.295   1.032   8.413  0.4117 -0.0050 -0.0783
 1203ERGO    C216624  13.363   1.109   8.112 -0.2647 -0.0636 -0.2958
 1204ERGO   ROH16625   0.693  11.115   6.096 -0.1333  0.0204 -0.2333
 1204ERGO    R116626   0.600  10.924   6.283 -0.0970  0.0923 -0.1406
 1204ERGO    R216627   0.588  10.654   6.227 -0.3091  0.0908 -0.1126
 1204ERGO    R316628   0.735  10.634   6.455 -0.1305  0.0235 -0.2322
 1204ERGO    R416629   0.561  10.398   6.457 -0.0993  0.0103 -0.1749
 1204ERGO    R516630   0.582  10.545   6.616  0.0089 -0.0472 -0.1416
 1204ERGO    C116631   0.683  10.229   6.804  0.1906 -0.0996 -0.3234
 1204ERGO    C216632   0.738   9.937   7.000 -0.1802  0.0770 -0.3523
 1205ERGO   ROH16633  11.945   0.118   6.284  0.1247  0.2602  0.0639
 1205ERGO    R116634  11.959  -0.107   6.456  0.1207  0.1904 -0.0253
 1205ERGO    R216635  11.788  -0.141   6.670  0.2206  0.1869  0.0568
 1205ERGO    R316636  11.740  -0.381   6.552  0.0518  0.2518 -0.0073
 1205ERGO    R416637  11.652  -0.416   6.829  0.4271  0.1077  0.0981
 1205ERGO    R516638  11.793  -0.542   6.720  0.2775  0.1600 -0.1622
 1205ERGO    C116639  11.528  -0.802   6.810  0.3888  0.1227  0.0620
 1205ERGO    C216640  11.377  -1.097   6.793 -0.0646  0.0421  0.2609
 1206ERGO   ROH16641   8.890   9.822   5.575  0.0326  0.0887  0.1425
 1206ERGO    R116642   8.739   9.661   5.753 -0.1961  0.1263 -0.0128
 1206ERGO    R216643   8.820   9.611   6.013 -0.2252 -0.2989 -0.0812
 1206ERGO    R316644   8.573   9.708   6.073 -0.0646  0.0349  0.0709
 1206ERGO    R416645   8.666   9.585   6.322 -0.1389 -0.2620 -0.0346
 1206ERGO    R516646   8.479   9.544   6.220 -0.2482  0.0770  0.0077
 1206ERGO    C116647   8.345   9.659   6.557  0.0622  0.0730  0.1354
 1206ERGO    C216648   8.282   9.916   6.758  0.5205 -0.3268 -0.0552
 1207ERGO   ROH16649   7.693   5.536   5.039 -0.0877  0.3425 -0.1547
 1207ERGO    R116650   7.759   5.458   5.303  0.2555  0.1541 -0.2902
 1207ERGO    R216651   7.947   5.592   5.454  0.0709  0.3787 -0.2642
 1207ERGO    R316652   7.744   5.609   5.634  0.1453 -0.2793 -0.0884
 1207ERGO    R416653   7.984   5.679   5.787  0.0875  0.5846 -0.3183
 1207ERGO    R516654   7.837   5.526   5.838  0.6333  0.0701 -0.1457
 1207ERGO    C116655   7.814   5.747   6.149  0.1670  0.0868 -0.1848
 1207ERGO    C216656   7.757   5.782   6.434 -0.3437 -0.0339  0.0301
 1208ERGO   ROH16657  10.881  18.286   5.666  0.0243 -0.1077 -0.0049
 1208ERGO    R116658  10.964  18.187   5.917  0.0788 -0.1432 -0.0377
 1208ERGO    R216659  10.950  18.338   6.149  0.2427 -0.1343 -0.0365
 1208ERGO    R316660  10.809  18.124   6.241  0.1797 -0.0676  0.0270
 1208ERGO    R416661  10.906  18.257   6.482  0.2822 -0.0615 -0.0126
 1208ERGO    R516662  10.933  18.047   6.430  0.1929 -0.0830  0.0149
 1208ERGO    C116663  10.749  18.009   6.762  0.2461  0.0436  0.0610
 1208ERGO    C216664  10.619  18.014   7.057 -0.1755  0.1972  0.2174
 1209ERGO   ROH16665  14.688   1.381   6.208  0.2538  0.2207 -0.0321
 1209ERGO    R116666  14.881   1.507   6.372  0.2562  0.1762 -0.0016
 1209ERGO    R216667  14.831   1.741   6.509  0.2503  0.1234  0.0822
 1209ERGO    R316668  14.913   1.596   6.724  0.2761  0.0566  0.0281
 1209ERGO    R416669  14.982   1.873   6.791  0.1461  0.0608  0.1687
 1209ERGO    R516670  15.116   1.701   6.793  0.2212  0.1148  0.1102
 1209ERGO    C116671  15.147   1.813   7.156  0.1096 -0.0384  0.1683
 1209ERGO    C216672  15.393   1.862   7.299 -0.2304 -0.1885  0.1874
 1210ERGO   ROH16673  10.938   4.716   8.540 -0.0009 -0.0770 -0.2051
 1210ERGO    R116674  10.972   4.632   8.272  0.2686 -0.2178 -0.1296
 1210ERGO    R216675  10.966   4.808   8.059 -0.0012 -0.3875 -0.2579
 1210ERGO    R316676  11.207   4.697   8.002  0.2507  0.0427 -0.0887
 1210ERGO    R416677  11.145   4.864   7.769 -0.2180 -0.5326 -0.4236
 1210ERGO    R516678  11.198   4.653   7.767  0.2709 -0.4450 -0.0148
 1210ERGO    C116679  11.476   4.792   7.546 -0.1077 -0.2131 -0.3612
 1210ERGO    C216680  11.599   4.945   7.346  0.1202 -0.1604 -0.1189
 1211ERGO   ROH16681  10.846   9.922   5.920 -0.0169 -0.2591  0.2076
 1211ERGO    R116682  10.657   9.815   6.101 -0.1810 -0.2190  0.0628
 1211ERGO    R216683  10.685   9.836   6.375 -0.2480 -0.4592  0.0906
 1211ERGO    R316684  10.436   9.945   6.360 -0.1403 -0.2051  0.0910
 1211ERGO    R416685  10.457   9.845   6.635 -0.2596 -0.2817  0.0755
 1211ERGO    R516686  10.300   9.798   6.491 -0.2978 -0.0964  0.0530
 1211ERGO    C116687  10.091   9.951   6.772 -0.1654  0.0603  0.0671
 1211ERGO    C216688   9.676   9.979   6.884  0.2006 -0.1312  0.1420
 1212ERGO   ROH16689   6.460  10.315   5.731  0.0303  0.0547 -0.2866
 1212ERGO    R116690   6.255  10.480   5.836  0.0044 -0.0088 -0.2336
 1212ERGO    R216691   6.008  10.381   5.913  0.1141 -0.1187  0.0072
 1212ERGO    R316692   6.069  10.503   6.148  0.2197  0.0539 -0.1089
 1212ERGO    R416693   5.777  10.489   6.146  0.2213  0.1210  0.0045
 1212ERGO    R516694   5.897  10.667   6.177  0.2707  0.1153 -0.1771
 1212ERGO    C116695   5.700  10.666   6.503  0.3827  0.4225 -0.1060
 1212ERGO    C216696   5.540  10.959   6.742 -0.0220 -0.0242 -0.3217
 1213ERGO   ROH16697  12.227   9.765   9.134 -0.0501  0.2660  0.1161
 1213ERGO    R116698  12.392   9.862   8.925 -0.0093 -0.0114  0.0135
 1213ERGO    R216699  12.420   9.730   8.684 -0.3712 -0.0732 -0.0066
 1213ERGO    R316700  12.346   9.970   8.580 -0.0425  0.0523  0.0389
 1213ERGO    R416701  12.486   9.836   8.361 -0.3128 -0.1371 -0.0149
 1213ERGO    R516702  12.528  10.034   8.440  0.0103 -0.2075 -0.0108
 1213ERGO    C116703  12.454  10.123   8.077  0.0297 -0.0567  0.0229
 1213ERGO    C216704  12.492  10.375   7.774 -0.2772  0.5337  0.4541
 1214ERGO   ROH16705   0.862  13.043   9.600 -0.0894  0.0277  0.1354
 1214ERGO    R116706   0.789  13.128   9.341  0.0045  0.0406  0.1136
 1214ERGO    R216707   0.975  13.179   9.143  0.0778  0.1058  0.2032
 1214ERGO    R316708   0.826  13.002   9.001  0.1807  0.0893  0.1125
 1214ERGO    R416709   0.957  13.169   8.798  0.0087  0.3416  0.1980
 1214ERGO    R516710   0.743  13.131   8.816  0.0387  0.1628  0.2221
 1214ERGO    C116711   0.806  12.998   8.463  0.0651  0.4634  0.1098
 1214ERGO    C216712   0.778  12.992   8.013  0.1654 -0.0558 -0.2503
 1215ERGO   ROH16713   4.316   2.132   8.338 -0.0007 -0.0976  0.1046
 1215ERGO    R116714   4.425   2.168   8.079  0.0414 -0.1576  0.1129
 1215ERGO    R216715   4.446   1.961   7.897 -0.0883 -0.1654  0.0994
 1215ERGO    R316716   4.308   2.131   7.736  0.0362 -0.0597  0.1053
 1215ERGO    R416717   4.471   1.971   7.552 -0.0206 -0.1077  0.1066
 1215ERGO    R516718   4.464   2.189   7.564  0.0961 -0.1095  0.1466
 1215ERGO    C116719   4.356   2.138   7.201  0.1358  0.0253  0.1164
 1215ERGO    C216720   4.321   1.803   7.057  0.1274 -0.2760 -0.0495
 1216ERGO   ROH16721  13.101   9.388   5.876  0.0256  0.1120  0.1135
 1216ERGO    R116722  13.073   9.245   6.118  0.0262  0.0421  0.0730
 1216ERGO    R216723  13.121   9.360   6.365  0.0298 -0.0294  0.1070
 1216ERGO    R316724  12.870   9.272   6.419  0.0293 -0.0417  0.0826
 1216ERGO    R416725  12.961   9.391   6.670  0.0711 -0.2064  0.1475
 1216ERGO    R516726  12.882   9.190   6.644  0.0508 -0.1837  0.0309
 1216ERGO    C116727  12.632   9.327   6.898  0.0947 -0.3210  0.1482
 1216ERGO    C216728  12.437   9.088   7.165  0.0954 -0.2486  0.0923
 1217ERGO   ROH16729   5.463   7.863   8.377 -0.0931 -0.0375 -0.0376
 1217ERGO    R116730   5.498   7.764   8.114  0.0714  0.0792 -0.0616
 1217ERGO    R216731   5.287   7.731   7.938  0.1178 -0.2369 -0.0661
 1217ERGO    R316732   5.440   7.886   7.777 -0.1408  0.0650 -0.0313
 1217ERGO    R416733   5.252   7.754   7.595  0.1052 -0.2409 -0.0650
 1217ERGO    R516734   5.469   7.756   7.578  0.1080  0.1464 -0.0493
 1217ERGO    C116735   5.377   7.913   7.244 -0.1449  0.0402 -0.0316
 1217ERGO    C216736   5.459   8.032   6.834  0.0967  0.0129 -0.1200
 1218ERGO   ROH16737  15.106   1.444   9.774 -0.3039  0.2017 -0.1700
 1218ERGO    R116738  15.080   1.544   9.510 -0.3253  0.0469 -0.2276
 1218ERGO    R216739  15.288   1.539   9.328 -0.2273  0.2678 -0.1251
 1218ERGO    R316740  15.107   1.410   9.173  0.0319 -0.0707 -0.1566
 1218ERGO    R416741  15.270   1.565   8.984 -0.2130  0.2245 -0.1294
 1218ERGO    R516742  15.052   1.568   9.001 -0.2274 -0.1712 -0.1697
 1218ERGO    C116743  15.089   1.458   8.638  0.0385 -0.1184 -0.1612
 1218ERGO    C216744  15.083   1.220   8.378  0.3117 -0.2861  0.0500
 1219ERGO   ROH16745  18.951  15.961   5.934 -0.1217 -0.1386  0.0694
 1219ERGO    R116746  18.834  15.871   6.175 -0.0826 -0.1366  0.0885
 1219ERGO    R216747  18.863  15.612   6.267  0.0195 -0.1056  0.1382
 1219ERGO    R316748  18.952  15.736   6.492 -0.0259 -0.0286  0.1148
 1219ERGO    R416749  18.965  15.450   6.555  0.0726 -0.0165  0.1704
 1219ERGO    R516750  18.865  15.604   6.671  0.0159 -0.0261  0.1397
 1219ERGO    C116751  19.109  15.472   6.933  0.0605  0.1077  0.1672
 1219ERGO    C216752  19.069  15.466   7.321 -0.2232  0.0159  0.0748
 1220ERGO   ROH16753  15.934  11.523   9.237 -0.0150 -0.0781 -0.0199
 1220ERGO    R116754  15.865  11.506   8.963  0.0149 -0.0475 -0.0295
 1220ERGO    R216755  15.674  11.668   8.847  0.0157 -0.0471 -0.0284
 1220ERGO    R316756  15.875  11.726   8.673  0.0286 -0.0095 -0.0009
 1220ERGO    R416757  15.629  11.786   8.526  0.0174 -0.3873 -0.1567
 1220ERGO    R516758  15.791  11.655   8.460  0.1760 -0.2920  0.0275
 1220ERGO    C116759  15.791  11.908   8.175  0.0304 -0.5501 -0.2055
 1220ERGO    C216760  15.591  12.064   7.924  0.1509 -0.0702  0.0088
 1221ERGO   ROH16761  18.493   7.193   9.018  0.0710 -0.1993  0.1521
 1221ERGO    R116762  18.435   7.091   8.760  0.0317 -0.1454  0.1395
 1221ERGO    R216763  18.299   7.239   8.570  0.0285 -0.0943  0.1797
 1221ERGO    R316764  18.516   7.180   8.417  0.0060 -0.0920  0.1474
 1221ERGO    R416765  18.286   7.125   8.244 -0.0174 -0.1060  0.1857
 1221ERGO    R516766  18.449   6.988   8.290 -0.0062 -0.0978  0.1643
 1221ERGO    C116767  18.482   7.003   7.911 -0.0652 -0.1105  0.1589
 1221ERGO    C216768  18.620   7.207   7.697 -0.0951  0.0204  0.6216
 1222ERGO   ROH16769  15.347   6.549   5.759 -0.1548  0.0631 -0.1222
 1222ERGO    R116770  15.412   6.623   6.024 -0.0860 -0.0292 -0.1124
 1222ERGO    R216771  15.499   6.877   6.090 -0.0210 -0.0660 -0.0537
 1222ERGO    R316772  15.293   6.867   6.267  0.0123 -0.0771 -0.0155
 1222ERGO    R416773  15.488   7.048   6.390  0.0658 -0.1403 -0.0076
 1222ERGO    R516774  15.399   6.872   6.482  0.0553 -0.1488 -0.0350
 1222ERGO    C116775  15.288   7.139   6.731  0.1475 -0.1940  0.0551
 1222ERGO    C216776  15.237   7.444   6.980  0.0438  0.5704  0.3296
 1223ERGO   ROH16777  10.278  16.694   9.311 -0.1234  0.1135 -0.1619
 1223ERGO    R116778  10.274  16.726   9.030 -0.1343  0.0628 -0.1695
 1223ERGO    R216779  10.391  16.942   8.902 -0.1173  0.0359 -0.2198
 1223ERGO    R316780  10.521  16.748   8.763 -0.1421 -0.0072 -0.1796
 1223ERGO    R416781  10.439  16.943   8.560  0.1052  0.0706 -0.1879
 1223ERGO    R516782  10.398  16.729   8.559 -0.0155  0.1029 -0.2594
 1223ERGO    C116783  10.590  16.761   8.230  0.2115  0.0505 -0.1316
 1223ERGO    C216784  10.946  16.719   7.884  0.6249 -0.1131  0.1165
 1224ERGO   ROH16785  12.460  10.549   6.139  0.3054  0.0031 -0.1408
 1224ERGO    R116786  12.483  10.496   6.417  0.1770  0.0863 -0.1126
 1224ERGO    R216787  12.621  10.278   6.515 -0.0129  0.0165  0.0160
 1224ERGO    R316788  12.754  10.468   6.658  0.0788 -0.0259 -0.0182
 1224ERGO    R416789  12.802  10.217   6.803 -0.3268  0.0365  0.2220
 1224ERGO    R516790  12.723  10.402   6.887 -0.1888  0.1888  0.0071
 1224ERGO    C116791  13.032  10.359   7.105 -0.4237  0.0084  0.3100
 1224ERGO    C216792  13.172  10.228   7.363  0.1127 -0.0677  0.2674
 1225ERGO   ROH16793   5.534   6.731   8.231  0.0514  0.1992  0.0008
 1225ERGO    R116794   5.422   6.771   7.974  0.0382  0.1363 -0.0034
 1225ERGO    R216795   5.574   6.848   7.756  0.0457 -0.0299 -0.0560
 1225ERGO    R316796   5.462   6.628   7.642 -0.0694 -0.0298  0.0534
 1225ERGO    R416797   5.520   6.808   7.417  0.1317 -0.2107 -0.0494
 1225ERGO    R516798   5.328   6.715   7.464  0.0488 -0.0485 -0.0490
 1225ERGO    C116799   5.384   6.578   7.112  0.0737 -0.3159  0.0572
 1225ERGO    C216800   5.390   6.579   6.787 -0.3494 -0.1755  0.1541
 1226ERGO   ROH16801  12.394  15.768   5.882 -0.2021  0.2709 -0.0640
 1226ERGO    R116802  12.264  15.577   6.046 -0.0638  0.1893 -0.0490
 1226ERGO    R216803  12.109  15.648   6.263  0.0156  0.0845  0.0390
 1226ERGO    R316804  11.922  15.495   6.138  0.0046  0.0531  0.0948
 1226ERGO    R416805  11.889  15.435   6.423  0.1041  0.0491  0.1143
 1226ERGO    R516806  11.919  15.291   6.262  0.0815  0.0520  0.1014
 1226ERGO    C116807  11.585  15.168   6.399  0.1454 -0.0009  0.2104
 1226ERGO    C216808  11.318  15.082   6.579 -0.3067 -0.3701  0.1789
 1227ERGO   ROH16809  10.022  18.643   6.135 -0.1156 -0.1272 -0.0922
 1227ERGO    R116810   9.838  18.492   6.289 -0.0566 -0.1368 -0.0288
 1227ERGO    R216811   9.919  18.302   6.473  0.0150 -0.1655 -0.0828
 1227ERGO    R316812   9.764  18.448   6.643  0.0982 -0.1737 -0.0012
 1227ERGO    R416813   9.791  18.188   6.773 -0.1440 -0.2977 -0.2003
 1227ERGO    R516814   9.605  18.291   6.729 -0.0482 -0.1110 -0.1592
 1227ERGO    C116815   9.571  18.258   7.107 -0.1586 -0.3826 -0.1919
 1227ERGO    C216816   9.403  18.260   7.418 -0.0134  0.3856 -0.3143
 1228ERGO   ROH16817  13.411   2.124   9.619  0.0158  0.1995  0.0598
 1228ERGO    R116818  13.295   2.030   9.378  0.0127  0.2370  0.0480
 1228ERGO    R216819  13.162   2.197   9.202  0.2208  0.3042 -0.0402
 1228ERGO    R316820  13.338   2.094   9.023  0.1840  0.0991  0.0421
 1228ERGO    R416821  13.169   2.274   8.866  0.2774  0.0758 -0.0937
 1228ERGO    R516822  13.209   2.064   8.823  0.1816  0.0258  0.0525
 1228ERGO    C116823  13.337   2.221   8.501  0.2758 -0.2497 -0.0475
 1228ERGO    C216824  13.307   2.157   8.260  0.1762  0.1353  0.0398
 1229ERGO   ROH16825  13.793  15.835   9.636  0.1579  0.0677 -0.0300
 1229ERGO    R116826  13.797  15.722   9.377 -0.0104  0.0926 -0.0446
 1229ERGO    R216827  13.598  15.769   9.190 -0.0212  0.2872  0.0143
 1229ERGO    R316828  13.807  15.845   9.035  0.0050  0.1234 -0.0332
 1229ERGO    R416829  13.574  15.862   8.859 -0.0351  0.3736  0.0391
 1229ERGO    R516830  13.759  15.753   8.819 -0.1460  0.2088 -0.0372
 1229ERGO    C116831  13.757  15.988   8.519 -0.0187  0.2702  0.0090
 1229ERGO    C216832  13.500  16.099   8.243 -0.0951  0.0582 -0.2150
 1230ERGO   ROH16833   4.962  19.221   5.800 -0.1738  0.1516 -0.3115
 1230ERGO    R116834   5.052  19.452   5.936 -0.1645  0.0478 -0.1400
 1230ERGO    R216835   4.972  19.513   6.193  0.0015 -0.2482 -0.0166
 1230ERGO    R316836   5.240  19.523   6.239  0.0332 -0.1890 -0.2019
 1230ERGO    R416837   5.134  19.765   6.366  0.0192 -0.3380  0.1001
 1230ERGO    R516838   5.295  19.755   6.220 -0.0774 -0.1426 -0.0320
 1230ERGO    C116839   5.479  19.922   6.509  0.0591 -0.3348 -0.0059
 1230ERGO    C216840   5.498  20.021   6.948 -0.2589  0.1104 -0.1005
 1231ERGO   ROH16841   9.589   7.221   5.197 -0.0013 -0.0495  0.0367
 1231ERGO    R116842   9.698   7.214   5.459 -0.0445  0.0375  0.0572
 1231ERGO    R216843   9.842   7.424   5.566 -0.1295  0.1029  0.0390
 1231ERGO    R316844   9.660   7.404   5.767 -0.1566  0.0880  0.0134
 1231ERGO    R416845   9.883   7.554   5.883 -0.1880  0.1226  0.0388
 1231ERGO    R516846   9.792   7.373   5.964 -0.1781  0.1123  0.0338
 1231ERGO    C116847   9.736   7.612   6.257 -0.2476  0.1201  0.0148
 1231ERGO    C216848   9.673   7.874   6.487 -0.2419  0.3156  0.0475
 1232ERGO   ROH16849  18.177   0.751   9.069  0.0577  0.0517  0.2156
 1232ERGO    R116850  18.139   0.705   8.793  0.1541  0.0445  0.2027
 1232ERGO    R216851  17.968   0.511   8.697  0.2705 -0.0350  0.1470
 1232ERGO    R316852  17.862   0.719   8.558  0.2094 -0.0783  0.1298
 1232ERGO    R416853  17.845   0.490   8.374  0.0092 -0.1613  0.2530
 1232ERGO    R516854  17.936   0.684   8.333  0.0216 -0.2037  0.0867
 1232ERGO    C116855  17.672   0.674   8.057 -0.2002 -0.2754  0.2986
 1232ERGO    C216856  17.444   0.689   7.944  0.3206  0.0867  0.1369
 1233ERGO   ROH16857   6.181   8.522   8.786 -0.1016 -0.1857 -0.1712
 1233ERGO    R116858   6.132   8.721   8.591 -0.1177  0.1167  0.1300
 1233ERGO    R216859   6.258   8.967   8.594  0.2606 -0.0635  0.2238
 1233ERGO    R316860   6.327   8.899   8.340 -0.2377  0.1072  0.0319
 1233ERGO    R416861   6.381   9.187   8.358  0.2013  0.0073  0.2598
 1233ERGO    R516862   6.258   9.086   8.208 -0.1808  0.3459  0.3400
 1233ERGO    C116863   6.517   9.251   7.981 -0.3010  0.2089  0.1008
 1233ERGO    C216864   6.540   9.445   7.710  0.2822  0.0300  0.0856
 1234ERGO   ROH16865  14.558   1.090   9.599  0.2048 -0.1563  0.1023
 1234ERGO    R116866  14.557   1.171   9.328  0.2378 -0.0455  0.1348
 1234ERGO    R216867  14.784   1.161   9.170  0.2054 -0.1964  0.0967
 1234ERGO    R316868  14.624   1.015   9.006  0.0393  0.0201  0.0601
 1234ERGO    R416869  14.803   1.159   8.825  0.1979 -0.1250  0.0957
 1234ERGO    R516870  14.585   1.157   8.818  0.1915  0.1155  0.0979
 1234ERGO    C116871  14.663   1.021   8.470  0.0374  0.1199  0.0607
 1234ERGO    C216872  14.710   1.020   8.092 -0.2203  0.2212 -0.1708
 1235ERGO   ROH16873   9.118  12.392   5.775  0.1617 -0.2788  0.1085
 1235ERGO    R116874   9.151  12.239   6.011  0.2564  0.0152  0.2923
 1235ERGO    R216875   9.194  12.354   6.259 -0.2942  0.3593  0.2465
 1235ERGO    R316876   8.980  12.203   6.329 -0.0344 -0.0823  0.1281
 1235ERGO    R416877   9.186  12.134   6.526  0.0387  0.2421  0.1660
 1235ERGO    R516878   9.074  11.995   6.402  0.3421  0.0661  0.0837
 1235ERGO    C116879   8.979  11.865   6.747  0.4764 -0.2406  0.0080
 1235ERGO    C216880   8.844  11.602   7.009  0.1811  0.0746 -0.0722
 1236ERGO   ROH16881  12.137  14.315   9.073  0.1048 -0.0887 -0.0612
 1236ERGO    R116882  12.156  14.106   8.883  0.1738 -0.0453 -0.1024
 1236ERGO    R216883  11.955  14.050   8.702  0.1309 -0.1667 -0.0176
 1236ERGO    R316884  12.155  14.077   8.521  0.0278  0.0111 -0.1075
 1236ERGO    R416885  11.981  13.870   8.409  0.0268  0.0312 -0.1505
 1236ERGO    R516886  12.195  13.854   8.443  0.0519  0.0709 -0.2740
 1236ERGO    C116887  12.184  13.790   8.067 -0.1303  0.3132 -0.3122
 1236ERGO    C216888  12.017  13.873   7.778  0.1623  0.2055 -0.1526
 1237ERGO   ROH16889   5.873  17.913   8.908  0.0120  0.0587  0.0790
 1237ERGO    R116890   5.761  17.889   8.649 -0.0324 -0.0868  0.1119
 1237ERGO    R216891   5.915  17.889   8.420 -0.0959  0.0905  0.0723
 1237ERGO    R316892   5.786  17.655   8.372  0.1707 -0.0708  0.1136
 1237ERGO    R416893   5.867  17.751   8.107 -0.1898  0.1351  0.0659
 1237ERGO    R516894   5.666  17.694   8.168 -0.0672 -0.1562  0.2310
 1237ERGO    C116895   5.717  17.450   7.879  0.0058  0.0099  0.1011
 1237ERGO    C216896   5.702  17.277   7.513 -0.0189  0.4518 -0.4185
 1238ERGO   ROH16897   1.603  14.390   9.612 -0.1157 -0.2175  0.0890
 1238ERGO    R116898   1.621  14.277   9.353 -0.1039 -0.0672  0.0241
 1238ERGO    R216899   1.397  14.222   9.199 -0.0928  0.0312 -0.0191
 1238ERGO    R316900   1.527  14.375   9.015 -0.0785  0.1307  0.0715
 1238ERGO    R416901   1.361  14.193   8.857 -0.0116  0.1503 -0.0391
 1238ERGO    R516902   1.576  14.224   8.836 -0.0067  0.2027  0.0240
 1238ERGO    C116903   1.462  14.320   8.485  0.0492  0.3130  0.0344
 1238ERGO    C216904   1.472  14.460   8.134  0.2671  0.0071 -0.1596
 1239ERGO   ROH16905  11.234   1.508   5.989 -0.1011  0.1167  0.0598
 1239ERGO    R116906  11.205   1.466   6.267 -0.0289  0.0605  0.0597
 1239ERGO    R216907  11.413   1.379   6.427  0.0340  0.0956  0.0024
 1239ERGO    R316908  11.353   1.602   6.571 -0.0038  0.0545  0.0491
 1239ERGO    R416909  11.430   1.403   6.772  0.0166  0.0292  0.0076
 1239ERGO    R516910  11.245   1.518   6.768  0.0028  0.0005  0.0267
 1239ERGO    C116911  11.383   1.625   7.107 -0.0290 -0.0479  0.0544
 1239ERGO    C216912  11.494   1.628   7.554 -0.0274 -0.1051  0.0945
 1240ERGO   ROH16913  17.150  17.651   9.331 -0.1971  0.1232 -0.1449
 1240ERGO    R116914  17.153  17.493   9.097 -0.0175  0.0173 -0.0713
 1240ERGO    R216915  17.087  17.593   8.848  0.0248 -0.1345 -0.1389
 1240ERGO    R316916  17.330  17.494   8.779  0.1057 -0.0353 -0.0053
 1240ERGO    R416917  17.163  17.455   8.541  0.2682 -0.0130 -0.1366
 1240ERGO    R516918  17.280  17.302   8.644  0.2499 -0.0125 -0.1019
 1240ERGO    C116919  17.436  17.281   8.297  0.4859  0.1509 -0.0097
 1240ERGO    C216920  17.526  17.481   7.985 -0.2642  0.2103  0.0080
 1241ERGO   ROH16921   5.646   5.657   7.904 -0.2747  0.1086  0.1470
 1241ERGO    R116922   5.443   5.600   7.715 -0.1767  0.0886  0.0461
 1241ERGO    R216923   5.415   5.741   7.479  0.0522 -0.0470 -0.0686
 1241ERGO    R316924   5.428   5.493   7.367  0.0085 -0.1277  0.1026
 1241ERGO    R416925   5.399   5.676   7.140  0.2065 -0.2714 -0.0351
 1241ERGO    R516926   5.275   5.503   7.184  0.1122 -0.1879  0.0145
 1241ERGO    C116927   5.402   5.406   6.838  0.2554 -0.4778  0.1452
 1241ERGO    C216928   5.446   5.304   6.497 -0.2277 -0.2627  0.1396
 1242ERGO   ROH16929   6.735   3.189   8.286 -0.2377 -0.0665  0.0258
 1242ERGO    R116930   6.784   3.139   8.012 -0.0164  0.0805  0.0350
 1242ERGO    R216931   6.582   3.074   7.835  0.1640 -0.1285 -0.1005
 1242ERGO    R316932   6.681   3.285   7.694 -0.0278  0.0479  0.0240
 1242ERGO    R416933   6.552   3.115   7.493  0.0432  0.1005 -0.0643
 1242ERGO    R516934   6.757   3.189   7.489 -0.0117  0.2537 -0.0677
 1242ERGO    C116935   6.628   3.337   7.162 -0.2072  0.3994  0.0737
 1242ERGO    C216936   6.469   3.189   6.936 -0.2557 -0.1415 -0.3115
 1243ERGO   ROH16937  18.570   1.059   5.635  0.0496  0.0958  0.0705
 1243ERGO    R116938  18.713   1.098   5.877 -0.0194 -0.0568  0.1351
 1243ERGO    R216939  18.645   0.971   6.112  0.0964 -0.4374 -0.0412
 1243ERGO    R316940  18.906   0.892   6.106  0.1907 -0.1424 -0.1093
 1243ERGO    R416941  18.846   0.928   6.391  0.1262 -0.4687 -0.0647
 1243ERGO    R516942  19.010   1.018   6.280  0.0383 -0.1757  0.0181
 1243ERGO    C116943  19.207   0.829   6.547  0.2319 -0.2100 -0.1423
 1243ERGO    C216944  19.298   0.559   6.887  0.1850 -0.0631 -0.0798
 1244ERGO   ROH16945  14.061  12.894   9.827  0.0565  0.2513 -0.1129
 1244ERGO    R116946  14.015  12.959   9.555  0.0409  0.1033 -0.1463
 1244ERGO    R216947  14.209  13.071   9.395  0.0300  0.0167 -0.2179
 1244ERGO    R316948  14.153  12.861   9.233  0.0225 -0.0710 -0.1027
 1244ERGO    R416949  14.162  13.093   9.053 -0.0550 -0.1506 -0.2178
 1244ERGO    R516950  13.998  12.950   9.072 -0.0309 -0.1684 -0.1090
 1244ERGO    C116951  14.081  12.908   8.702 -0.1116 -0.3303 -0.1097
 1244ERGO    C216952  14.095  13.210   8.372  0.1624  0.0637 -0.2474
 1245ERGO   ROH16953   9.958   9.792   8.826  0.0362 -0.2194  0.0364
 1245ERGO    R116954  10.041   9.790   8.556  0.0958 -0.0314  0.0519
 1245ERGO    R216955   9.895   9.665   8.356  0.2154 -0.0219 -0.0418
 1245ERGO    R316956   9.909   9.909   8.238  0.0895  0.0477  0.0838
 1245ERGO    R416957  10.043   9.728   8.050  0.0539  0.1850 -0.0790
 1245ERGO    R516958  10.124   9.913   8.133  0.0407  0.1644 -0.0168
 1245ERGO    C116959  10.142   9.995   7.761 -0.1583  0.3709  0.0173
 1245ERGO    C216960   9.967  10.026   7.371  0.4219 -0.4757  0.0038
 1246ERGO   ROH16961   6.268   0.320   5.222 -0.1208 -0.0521  0.1266
 1246ERGO    R116962   6.520   0.238   5.323 -0.1088  0.0183  0.1570
 1246ERGO    R216963   6.746   0.395   5.304 -0.0936 -0.0158 -0.0317
 1246ERGO    R316964   6.756   0.356   5.573 -0.0539  0.2336  0.0038
 1246ERGO    R416965   7.001   0.505   5.510 -0.0177  0.0835 -0.1781
 1246ERGO    R516966   6.988   0.316   5.619 -0.0641  0.1936  0.0001
 1246ERGO    C116967   7.159   0.533   5.882  0.0637  0.3754 -0.2298
 1246ERGO    C216968   7.176   0.586   6.235  0.0104  0.2518 -0.1698
 1247ERGO   ROH16969   7.044   7.851   8.456 -0.0206  0.2613  0.0521
 1247ERGO    R116970   7.079   7.770   8.187 -0.0985 -0.0307  0.1265
 1247ERGO    R216971   6.872   7.671   8.034 -0.2446  0.2079  0.1683
 1247ERGO    R316972   6.946   7.868   7.863  0.1516 -0.0639  0.0110
 1247ERGO    R416973   6.770   7.695   7.705 -0.3957  0.2697  0.2182
 1247ERGO    R516974   6.972   7.757   7.652 -0.2550 -0.2624  0.0529
 1247ERGO    C116975   6.780   7.894   7.352 -0.1117  0.0504  0.0995
 1247ERGO    C216976   6.756   7.863   6.983 -0.0727 -0.2718  0.2525
 1248ERGO   ROH16977   2.845   2.818   8.504  0.2722 -0.0817  0.0159
 1248ERGO    R116978   2.837   2.704   8.245  0.1758  0.0192 -0.0257
 1248ERGO    R216979   2.639   2.764   8.062  0.0878  0.0618  0.0866
 1248ERGO    R316980   2.850   2.825   7.902  0.0073  0.1548  0.0136
 1248ERGO    R416981   2.622   2.800   7.719 -0.0177 -0.1178  0.0709
 1248ERGO    R516982   2.813   2.696   7.704  0.0663  0.0259  0.0827
 1248ERGO    C116983   2.811   2.879   7.369 -0.1548 -0.1351 -0.0067
 1248ERGO    C216984   2.589   3.050   7.047 -0.3213  0.1948 -0.1587
 1249ERGO   ROH16985   0.243  17.801   5.940  0.2206 -0.0403 -0.0453
 1249ERGO    R116986   0.188  17.757   6.214  0.1211 -0.1793 -0.0870
 1249ERGO    R216987   0.006  17.909   6.356  0.2387 -0.1019 -0.0212
 1249ERGO    R316988  -0.103  17.667   6.414 -0.0093 -0.0409 -0.2104
 1249ERGO    R416989  -0.266  17.858   6.564  0.3025  0.0048  0.0902
 1249ERGO    R516990  -0.165  17.683   6.644  0.1511 -0.2028 -0.1514
 1249ERGO    C116991  -0.526  17.601   6.739  0.1071  0.1240 -0.0226
 1249ERGO    C216992  -0.662  17.483   7.009  0.0084 -0.0363  0.1977
 1250ERGO   ROH16993  17.291  17.826   5.726  0.0969 -0.1631 -0.0868
 1250ERGO    R116994  17.252  17.728   5.989  0.0150  0.0301 -0.0242
 1250ERGO    R216995  17.395  17.515   6.091 -0.1374 -0.0110  0.1188
 1250ERGO    R316996  17.453  17.690   6.290 -0.0226  0.0799  0.0058
 1250ERGO    R416997  17.518  17.427   6.402 -0.0768  0.1287  0.1343
 1250ERGO    R516998  17.387  17.577   6.490  0.0006  0.2174  0.0885
 1250ERGO    C116999  17.645  17.541   6.769  0.0664  0.2954  0.0374
 1250ERGO    C217000  17.893  17.704   6.935  0.1920  0.2728  0.1717
 1251ERGO   ROH17001   5.326  13.380   9.225  0.0491 -0.1108  0.0781
 1251ERGO    R117002   5.337  13.418   8.945  0.0761  0.0634  0.1008
 1251ERGO    R217003   5.545  13.552   8.821  0.1548  0.0373  0.1897
 1251ERGO    R317004   5.561  13.324   8.674  0.0357  0.1169  0.0517
 1251ERGO    R417005   5.709  13.524   8.519  0.1611  0.1084  0.1868
 1251ERGO    R517006   5.546  13.399   8.447  0.1009  0.2518  0.0977
 1251ERGO    C117007   5.821  13.294   8.204  0.0530  0.2245  0.0554
 1251ERGO    C217008   6.057  13.359   8.001  0.2258  0.0845 -0.2501
 1252ERGO   ROH17009   5.592   4.766   5.197 -0.0141  0.0012  0.1562
 1252ERGO    R117010   5.554   4.536   5.358  0.0204 -0.0307  0.1180
 1252ERGO    R217011   5.382   4.533   5.574  0.1077 -0.0576  0.1839
 1252ERGO    R317012   5.276   4.318   5.445  0.0276 -0.0164  0.1789
 1252ERGO    R417013   5.272   4.244   5.729 -0.0257 -0.0083  0.1835
 1252ERGO    R517014   5.360   4.129   5.566 -0.0596 -0.0497  0.1912
 1252ERGO    C117015   5.108   3.874   5.698 -0.1787  0.0589  0.1788
 1252ERGO    C217016   4.804   3.660   5.733 -0.2237  0.2203  0.0749
 1253ERGO   ROH17017   4.664  14.163   9.173  0.0218 -0.1704 -0.0800
 1253ERGO    R117018   4.586  14.319   8.950  0.0121 -0.1781 -0.0822
 1253ERGO    R217019   4.750  14.512   8.839 -0.0411 -0.0950 -0.0193
 1253ERGO    R317020   4.706  14.372   8.611  0.0764 -0.0892 -0.0457
 1253ERGO    R417021   4.797  14.635   8.520  0.0853 -0.0752  0.0068
 1253ERGO    R517022   4.615  14.533   8.459  0.1247 -0.0936 -0.0786
 1253ERGO    C117023   4.784  14.575   8.119  0.2693 -0.0583 -0.0028
 1253ERGO    C217024   4.891  14.668   7.786 -0.0616 -0.1991  0.0418
 1254ERGO   ROH17025  15.615  15.071   9.541 -0.2819  0.0110 -0.0721
 1254ERGO    R117026  15.763  15.156   9.315 -0.1738  0.1500  0.0497
 1254ERGO    R217027  15.792  14.999   9.090  0.1477  0.1834  0.0697
 1254ERGO    R317028  15.695  15.219   8.963  0.0549  0.1009 -0.0062
 1254ERGO    R417029  15.760  15.031   8.747  0.0815  0.0208  0.0591
 1254ERGO    R517030  15.829  15.237   8.765  0.0207  0.0565 -0.0387
 1254ERGO    C117031  15.650  15.256   8.429 -0.0443 -0.1514 -0.0184
 1254ERGO    C217032  15.593  15.126   8.166 -0.1210  0.0425 -0.0689
 1255ERGO   ROH17033  18.702   8.887   8.919  0.2852 -0.2309  0.0535
 1255ERGO    R117034  18.688   9.023   8.671  0.0452 -0.0840  0.1445
 1255ERGO    R217035  18.854   8.962   8.459  0.0617  0.2607  0.0583
 1255ERGO    R317036  18.620   8.935   8.325  0.0560  0.0572  0.1046
 1255ERGO    R417037  18.798   9.070   8.136 -0.0223  0.0122 -0.0133
 1255ERGO    R517038  18.600   9.137   8.198 -0.0497 -0.0349 -0.0345
 1255ERGO    C117039  18.545   9.108   7.821 -0.0765 -0.3236 -0.0116
 1255ERGO    C217040  18.524   9.111   7.528  0.1024  0.0059  0.0606
 1256ERGO   ROH17041   1.537   0.403   5.313 -0.0637 -0.0802  0.1990
 1256ERGO    R117042   1.669   0.535   5.526  0.0580 -0.0527  0.1076
 1256ERGO    R217043   1.936   0.493   5.585  0.1218  0.0361 -0.1053
 1256ERGO    R317044   1.951   0.763   5.561  0.0075  0.0435 -0.0948
 1256ERGO    R417045   2.001   0.710   5.845 -0.1335  0.0683 -0.0661
 1256ERGO    R517046   1.851   0.846   5.763 -0.1496 -0.0028 -0.1525
 1256ERGO    C117047   2.052   1.091   5.975 -0.3895  0.0939 -0.0333
 1256ERGO    C217048   2.351   1.271   6.125 -0.0916  0.2993  0.1428
 1257ERGO   ROH17049  12.733  14.588   6.247  0.2069 -0.0476  0.0991
 1257ERGO    R117050  12.485  14.671   6.356  0.1688  0.0425 -0.0538
 1257ERGO    R217051  12.427  14.651   6.626  0.0002  0.0757 -0.0882
 1257ERGO    R317052  12.373  14.916   6.601  0.1037  0.0933 -0.1333
 1257ERGO    R417053  12.130  14.802   6.718  0.0288  0.1925 -0.1839
 1257ERGO    R517054  12.142  14.925   6.539  0.1218  0.1688 -0.1964
 1257ERGO    C117055  11.907  15.139   6.749  0.1426  0.2771 -0.2819
 1257ERGO    C217056  11.750  15.246   6.947  0.0575  0.0494 -0.2206
 1258ERGO   ROH17057   5.957   2.883   4.554  0.0330  0.2598 -0.1061
 1258ERGO    R117058   5.823   2.982   4.783  0.0107  0.1580 -0.0746
 1258ERGO    R217059   5.663   2.822   4.942  0.0900  0.0583 -0.0926
 1258ERGO    R317060   5.826   2.913   5.140  0.0700  0.0861 -0.0889
 1258ERGO    R417061   5.554   2.947   5.245  0.0529  0.2838 -0.1963
 1258ERGO    R517062   5.708   3.100   5.232  0.1349  0.1980 -0.2314
 1258ERGO    C117063   5.643   3.104   5.608  0.0125  0.4413 -0.2532
 1258ERGO    C217064   5.634   2.999   5.962 -0.1373  0.4172  0.0186
 1259ERGO   ROH17065   6.635  17.079   6.000 -0.0679 -0.1791  0.0082
 1259ERGO    R117066   6.509  17.047   6.251  0.0936 -0.0779  0.1047
 1259ERGO    R217067   6.637  17.100   6.490  0.1370  0.3671 -0.0067
 1259ERGO    R317068   6.422  17.260   6.533 -0.0686  0.1199 -0.0915
 1259ERGO    R417069   6.555  17.244   6.793 -0.1649  0.2537 -0.0322
 1259ERGO    R517070   6.345  17.200   6.752 -0.0998  0.0167 -0.1302
 1259ERGO    C117071   6.305  17.478   7.010 -0.5337 -0.0443 -0.1266
 1259ERGO    C217072   6.276  17.611   7.275 -0.1658 -0.1549 -0.2861
 1260ERGO   ROH17073   9.039  11.689   9.461 -0.0393  0.0700  0.0137
 1260ERGO    R117074   9.101  11.823   9.220 -0.2053  0.0968 -0.0150
 1260ERGO    R217075   9.312  11.748   9.058 -0.0870  0.3457  0.0218
 1260ERGO    R317076   9.119  11.736   8.867 -0.0596  0.0315  0.0072
 1260ERGO    R417077   9.368  11.777   8.718 -0.1021  0.4176  0.0250
 1260ERGO    R517078   9.187  11.897   8.703 -0.2970  0.1362  0.0051
 1260ERGO    C117079   9.219  11.782   8.341 -0.0854  0.1645  0.0132
 1260ERGO    C217080   9.245  11.811   8.026  0.0625  0.1024 -0.1569
 1261ERGO   ROH17081  16.514  11.210   5.801  0.3290  0.2032 -0.1729
 1261ERGO    R117082  16.445  11.406   5.994  0.3098  0.2339 -0.2117
 1261ERGO    R217083  16.381  11.341   6.254 -0.0188  0.2474 -0.2887
 1261ERGO    R317084  16.577  11.520   6.314  0.0871  0.0597 -0.0536
 1261ERGO    R417085  16.417  11.501   6.559 -0.1436  0.0966 -0.1927
 1261ERGO    R517086  16.469  11.683   6.451  0.1051  0.0990 -0.0822
 1261ERGO    C117087  16.623  11.761   6.792 -0.1166 -0.1674  0.0839
 1261ERGO    C217088  16.806  11.684   7.143 -0.2100 -0.1260 -0.0218
 1262ERGO   ROH17089  17.158   9.374   6.108  0.1257  0.0095 -0.2674
 1262ERGO    R117090  17.111   9.192   6.319 -0.0866  0.1283 -0.2106
 1262ERGO    R217091  17.301   9.011   6.405 -0.2554  0.0169 -0.0764
 1262ERGO    R317092  17.253   9.124   6.647 -0.2512  0.1454 -0.1335
 1262ERGO    R417093  17.327   8.845   6.707 -0.2007  0.1836  0.0125
 1262ERGO    R517094  17.146   8.950   6.773 -0.2139  0.1942 -0.0285
 1262ERGO    C117095  17.297   8.855   7.111 -0.1650  0.4012  0.0107
 1262ERGO    C217096  17.206   8.614   7.368  0.2093 -0.2712  0.0716
 1263ERGO   ROH17097   1.211   8.690   5.883  0.1026  0.0442  0.1087
 1263ERGO    R117098   1.324   8.585   6.120  0.0855 -0.0476  0.0777
 1263ERGO    R217099   1.216   8.631   6.370  0.1616 -0.0041  0.1075
 1263ERGO    R317100   1.218   8.360   6.386 -0.0026 -0.0073  0.0760
 1263ERGO    R417101   1.264   8.451   6.661  0.1677 -0.0682  0.0656
 1263ERGO    R517102   1.388   8.311   6.548  0.0324 -0.1332  0.0002
 1263ERGO    C117103   1.295   8.091   6.845  0.0171 -0.1086  0.0117
 1263ERGO    C217104   1.343   7.894   7.078 -0.0139  0.1736 -0.0265
 1264ERGO   ROH17105  11.352  14.363   5.890  0.0058  0.1442  0.1073
 1264ERGO    R117106  11.318  14.359   6.171  0.0998  0.1236  0.1183
 1264ERGO    R217107  11.268  14.127   6.311  0.0205  0.1326  0.1014
 1264ERGO    R317108  11.485  14.204   6.455  0.1124 -0.0077  0.0409
 1264ERGO    R417109  11.306  14.082   6.652  0.1560 -0.0386  0.0654
 1264ERGO    R517110  11.395  14.281   6.663  0.2294 -0.0720  0.1179
 1264ERGO    C117111  11.532  14.129   6.985  0.3213 -0.2700 -0.0122
 1264ERGO    C217112  11.513  14.037   7.365 -0.0337  0.1575 -0.1556
 1265ERGO   ROH17113  18.603  18.185   9.184 -0.1072 -0.6078 -0.0993
 1265ERGO    R117114  18.605  18.314   8.932 -0.2368 -0.2993  0.0512
 1265ERGO    R217115  18.731  18.206   8.711  0.0186  0.1665 -0.0477
 1265ERGO    R317116  18.486  18.239   8.596 -0.0070 -0.1014 -0.0761
 1265ERGO    R417117  18.666  18.181   8.372  0.1150  0.2627 -0.0735
 1265ERGO    R517118  18.532  18.352   8.390 -0.1204  0.0732 -0.0054
 1265ERGO    C117119  18.399  18.198   8.067  0.1469  0.0670 -0.1152
 1265ERGO    C217120  18.134  18.192   7.770  0.0346 -0.1912 -0.2300
 1266ERGO   ROH17121   2.492  13.781   9.421  0.2446 -0.1301 -0.0004
 1266ERGO    R117122   2.429  13.641   9.183 -0.0915  0.0895 -0.0470
 1266ERGO    R217123   2.285  13.756   8.977  0.1386  0.4883  0.0054
 1266ERGO    R317124   2.499  13.679   8.828 -0.0386  0.0618 -0.0397
 1266ERGO    R417125   2.284  13.719   8.633 -0.0413  0.3705  0.0179
 1266ERGO    R517126   2.406  13.540   8.657 -0.3416  0.1608  0.0381
 1266ERGO    C117127   2.484  13.624   8.293 -0.3124 -0.0986 -0.0171
 1266ERGO    C217128   2.567  13.556   7.927 -0.2555  0.3002 -0.1519
 1267ERGO   ROH17129   1.664  11.515   9.338 -0.0273 -0.1601 -0.0145
 1267ERGO    R117130   1.721  11.410   9.081 -0.1075 -0.1080 -0.0550
 1267ERGO    R217131   1.527  11.378   8.887 -0.1685 -0.0538 -0.0098
 1267ERGO    R317132   1.699  11.526   8.737 -0.2011 -0.0287 -0.0214
 1267ERGO    R417133   1.526  11.392   8.542 -0.2091 -0.0192 -0.0079
 1267ERGO    R517134   1.744  11.389   8.546 -0.2137 -0.0026 -0.0381
 1267ERGO    C117135   1.687  11.539   8.200 -0.2635  0.0244 -0.0176
 1267ERGO    C217136   1.719  11.700   7.861  0.0329  0.0912  0.0607
 1268ERGO   ROH17137   9.074  14.755   9.093 -0.2612 -0.2821 -0.0001
 1268ERGO    R117138   8.924  14.706   8.858 -0.2090 -0.1866 -0.0531
 1268ERGO    R217139   8.894  14.894   8.658 -0.0171 -0.1705 -0.0604
 1268ERGO    R317140   8.989  14.695   8.500 -0.0920 -0.2296 -0.0331
 1268ERGO    R417141   8.834  14.867   8.319  0.1138 -0.0804 -0.0916
 1268ERGO    R517142   8.810  14.652   8.346 -0.0632 -0.0741 -0.1207
 1268ERGO    C117143   8.889  14.664   7.972  0.1196 -0.0834 -0.0841
 1268ERGO    C217144   8.959  14.858   7.674 -0.0601  0.3669  0.4028
 1269ERGO   ROH17145  17.598   5.824   8.949 -0.1438  0.1416 -0.0986
 1269ERGO    R117146  17.635   5.965   8.706 -0.0509  0.0526 -0.1352
 1269ERGO    R217147  17.639   5.839   8.460 -0.0851 -0.0161 -0.0953
 1269ERGO    R317148  17.445   6.020   8.401  0.0121  0.0584 -0.1734
 1269ERGO    R417149  17.532   5.918   8.141  0.0109 -0.0355 -0.1335
 1269ERGO    R517150  17.521   6.127   8.201  0.0966 -0.0212 -0.1825
 1269ERGO    C117151  17.287   6.133   7.900  0.1579  0.0232 -0.2291
 1269ERGO    C217152  17.131   5.931   7.583  0.2471  0.0705 -0.0727
 1270ERGO   ROH17153   1.551   1.644   8.665  0.1571  0.1239 -0.0028
 1270ERGO    R117154   1.544   1.655   8.383  0.2264  0.1456 -0.0044
 1270ERGO    R217155   1.772   1.662   8.228  0.2713 -0.1667  0.0389
 1270ERGO    R317156   1.658   1.447   8.106 -0.0078 -0.0076  0.0118
 1270ERGO    R417157   1.772   1.605   7.887  0.4590 -0.2713  0.0555
 1270ERGO    R517158   1.566   1.535   7.903  0.3166  0.0956 -0.0949
 1270ERGO    C117159   1.665   1.369   7.575  0.3063 -0.1828  0.0398
 1270ERGO    C217160   1.713   1.404   7.267 -0.3687 -0.1345 -0.3362
 1271ERGO   ROH17161   0.254   0.967   5.599 -0.0800  0.0868  0.0501
 1271ERGO    R117162   0.234   0.991   5.880 -0.0214  0.1679  0.0488
 1271ERGO    R217163   0.246   1.235   6.011 -0.1423  0.2232 -0.0327
 1271ERGO    R317164   0.010   1.153   6.117 -0.0633  0.1053  0.0502
 1271ERGO    R417165   0.150   1.282   6.339 -0.1752  0.4356 -0.0723
 1271ERGO    R517166   0.066   1.081   6.338  0.0077  0.3587  0.1142
 1271ERGO    C117167  -0.128   1.232   6.630 -0.1202  0.4486 -0.0176
 1271ERGO    C217168  -0.387   1.316   6.715 -0.2269  0.1001 -0.2161
 1272ERGO   ROH17169  10.641   7.924   8.816  0.1469 -0.1341  0.1043
 1272ERGO    R117170  10.679   8.187   8.719  0.3240 -0.1448  0.1449
 1272ERGO    R217171  10.923   8.279   8.626  0.3080 -0.4037 -0.1454
 1272ERGO    R317172  10.779   8.341   8.404  0.0859 -0.1542  0.0601
 1272ERGO    R417173  10.986   8.547   8.418  0.3360 -0.3726 -0.0993
 1272ERGO    R517174  10.772   8.581   8.403  0.3381 -0.1372  0.1867
 1272ERGO    C117175  10.888   8.763   8.089  0.1438 -0.1204  0.1205
 1272ERGO    C217176  11.115   8.851   7.800 -0.0284  0.0726 -0.1850
 1273ERGO   ROH17177   8.547   6.789   8.472  0.0561  0.0480  0.0106
 1273ERGO    R117178   8.630   6.890   8.221  0.2242 -0.2169 -0.0451
 1273ERGO    R217179   8.697   6.726   8.008 -0.3682 -0.4533 -0.0708
 1273ERGO    R317180   8.511   6.875   7.877 -0.0200  0.0890  0.0220
 1273ERGO    R417181   8.657   6.737   7.665 -0.5105 -0.3360 -0.0510
 1273ERGO    R517182   8.623   6.951   7.680  0.1068 -0.2246 -0.0305
 1273ERGO    C117183   8.459   6.884   7.343 -0.2666  0.2415  0.0476
 1273ERGO    C217184   8.294   6.678   7.068  0.3029 -0.1228  0.0185
 1274ERGO   ROH17185   7.674   5.979   8.286  0.2404 -0.2787  0.1212
 1274ERGO    R117186   7.792   6.059   8.042 -0.1578 -0.0965 -0.0232
 1274ERGO    R217187   8.059   6.013   7.983 -0.0955  0.4536 -0.2508
 1274ERGO    R317188   7.956   5.895   7.762 -0.0641  0.1496 -0.1197
 1274ERGO    R417189   8.243   5.915   7.708 -0.0529  0.1957 -0.1330
 1274ERGO    R517190   8.082   5.988   7.581 -0.0911 -0.0056 -0.2302
 1274ERGO    C117191   8.253   5.748   7.339  0.0012 -0.2399  0.0585
 1274ERGO    C217192   8.465   5.784   7.070  0.0116 -0.1346 -0.0058
 1275ERGO   ROH17193   2.737   7.498   5.647 -0.1514 -0.3773 -0.1057
 1275ERGO    R117194   2.958   7.500   5.824 -0.1587 -0.1478 -0.0966
 1275ERGO    R217195   2.968   7.663   6.047 -0.3278 -0.1216 -0.1076
 1275ERGO    R317196   3.015   7.428   6.176 -0.1008 -0.0685 -0.0894
 1275ERGO    R417197   3.043   7.633   6.383 -0.1846 -0.0167 -0.1291
 1275ERGO    R517198   3.189   7.479   6.332 -0.0836  0.0878 -0.1582
 1275ERGO    C117199   3.131   7.395   6.700  0.1119  0.0943 -0.1245
 1275ERGO    C217200   3.241   7.556   7.134  0.0411  0.0665  0.2093
 1276ERGO   ROH17201   2.206   6.430   9.090 -0.0463 -0.3216  0.2371
 1276ERGO    R117202   2.191   6.524   8.823  0.0797 -0.0744  0.3145
 1276ERGO    R217203   2.064   6.382   8.623  0.3465  0.0123  0.0841
 1276ERGO    R317204   1.927   6.614   8.590  0.1784 -0.0622  0.2029
 1276ERGO    R417205   1.853   6.452   8.358  0.3978  0.0355  0.0477
 1276ERGO    R517206   1.932   6.654   8.354  0.2478  0.1107  0.2267
 1276ERGO    C117207   1.601   6.711   8.174  0.2699 -0.0210  0.1378
 1276ERGO    C217208   1.344   6.789   8.142 -0.0951  0.1028 -0.1680
 1277ERGO   ROH17209  13.070  16.539   6.286  0.0186 -0.0576 -0.1747
 1277ERGO    R117210  12.857  16.398   6.407  0.1358 -0.0505  0.0417
 1277ERGO    R217211  12.863  16.316   6.671  0.1966  0.3801  0.1727
 1277ERGO    R317212  12.627  16.451   6.684  0.0720  0.1960 -0.0525
 1277ERGO    R417213  12.605  16.242   6.889  0.1286  0.2760  0.0595
 1277ERGO    R517214  12.464  16.281   6.727  0.1884  0.0699 -0.0607
 1277ERGO    C117215  12.234  16.325   7.028 -0.0279  0.0425 -0.2178
 1277ERGO    C217216  11.918  16.227   7.244  0.0857 -0.2034 -0.2039
 1278ERGO   ROH17217   4.172   8.466   5.698 -0.2211  0.1196 -0.1244
 1278ERGO    R117218   4.212   8.336   5.946 -0.0989  0.1580 -0.1236
 1278ERGO    R217219   4.049   8.379   6.165 -0.0586  0.1064 -0.0864
 1278ERGO    R317220   4.023   8.109   6.159  0.0562  0.0935 -0.0516
 1278ERGO    R417221   3.872   8.193   6.396 -0.0442  0.0728 -0.1019
 1278ERGO    R517222   4.030   8.043   6.389  0.0228  0.1356 -0.0362
 1278ERGO    C117223   3.744   7.831   6.525  0.0718  0.0411 -0.0782
 1278ERGO    C217224   3.496   7.695   6.664 -0.2683 -0.2091 -0.0031
 1279ERGO   ROH17225   9.869   3.957   8.381  0.0965 -0.0608  0.0986
 1279ERGO    R117226  10.016   4.129   8.211  0.1095 -0.0981  0.0711
 1279ERGO    R217227  10.260   4.058   8.103  0.0592 -0.1737 -0.0003
 1279ERGO    R317228  10.137   4.120   7.868  0.0146 -0.1175  0.0383
 1279ERGO    R417229  10.410   4.044   7.791  0.0483  0.0681 -0.0179
 1279ERGO    R517230  10.307   4.228   7.739 -0.0522  0.0396  0.0838
 1279ERGO    C117231  10.381   4.093   7.390 -0.0001  0.2617  0.0081
 1279ERGO    C217232  10.131   4.010   7.074 -0.0245  0.1440  0.1558
 1280ERGO   ROH17233  15.602  19.424   6.353  0.1793 -0.0449 -0.0468
 1280ERGO    R117234  15.510  19.497   6.610  0.1893 -0.0371 -0.0456
 1280ERGO    R217235  15.581  19.734   6.733  0.2635 -0.0735 -0.0201
 1280ERGO    R317236  15.312  19.767   6.754  0.2730  0.0173 -0.0315
 1280ERGO    R417237  15.420  19.881   7.001  0.2960 -0.1132  0.0217
 1280ERGO    R517238  15.266  19.729   6.986  0.2404 -0.0520 -0.0484
 1280ERGO    C117239  15.074  19.997   7.177  0.3239 -0.0510  0.0354
 1280ERGO    C217240  14.898  20.295   7.194 -0.0711 -0.3689  0.2188
 1281ERGO   ROH17241   2.291   8.780   5.604  0.1644 -0.1465 -0.0330
 1281ERGO    R117242   2.232   8.731   5.876  0.0447  0.0159 -0.0267
 1281ERGO    R217243   2.367   8.542   6.026 -0.1957 -0.0864  0.0775
 1281ERGO    R317244   2.411   8.752   6.193 -0.0017 -0.0669  0.0034
 1281ERGO    R417245   2.460   8.514   6.358  0.0962 -0.0367  0.0020
 1281ERGO    R517246   2.324   8.679   6.404  0.1750 -0.0048  0.0943
 1281ERGO    C117247   2.554   8.695   6.708  0.4484  0.0105 -0.1114
 1281ERGO    C217248   2.641   8.944   6.899  0.2868 -0.1183 -0.1667
 1282ERGO   ROH17249  14.928   8.790   6.105  0.0335 -0.0850 -0.1759
 1282ERGO    R117250  15.107   8.592   6.200 -0.0353 -0.0851 -0.0434
 1282ERGO    R217251  15.038   8.325   6.216 -0.0191 -0.0972 -0.1783
 1282ERGO    R317252  15.263   8.291   6.066  0.1384 -0.0333  0.0389
 1282ERGO    R417253  15.289   8.098   6.286  0.0519  0.0760  0.1492
 1282ERGO    R517254  15.435   8.249   6.227  0.0187  0.1362  0.2168
 1282ERGO    C117255  15.646   7.934   6.186  0.2410  0.2367  0.5438
 1282ERGO    C217256  15.829   7.790   6.317 -0.0597 -0.3019 -0.0617
 1283ERGO   ROH17257   4.898  13.228   9.135  0.0376 -0.0199  0.0282
 1283ERGO    R117258   4.949  13.237   8.856 -0.0253 -0.0616  0.0157
 1283ERGO    R217259   4.777  13.358   8.678  0.0159  0.0546  0.0585
 1283ERGO    R317260   5.001  13.495   8.605  0.0944 -0.1027 -0.0041
 1283ERGO    R417261   4.849  13.461   8.355 -0.0719  0.1131  0.0569
 1283ERGO    R517262   5.058  13.405   8.390 -0.0941 -0.0748 -0.0707
 1283ERGO    C117263   5.100  13.649   8.099 -0.0494 -0.0006 -0.0028
 1283ERGO    C217264   5.059  13.727   7.723  0.1279  0.0333 -0.2533
 1284ERGO   ROH17265   9.915   6.301   8.591  0.0404 -0.1641 -0.1263
 1284ERGO    R117266  10.018   6.277   8.328 -0.0902 -0.1185 -0.1835
 1284ERGO    R217267   9.856   6.272   8.104 -0.1829  0.3774 -0.1435
 1284ERGO    R317268  10.016   6.477   8.024  0.1659  0.1657 -0.0025
 1284ERGO    R417269   9.951   6.335   7.778 -0.0847  0.4581 -0.0991
 1284ERGO    R517270  10.150   6.384   7.850  0.0024  0.0672 -0.0715
 1284ERGO    C117271  10.157   6.563   7.513  0.2998  0.3064  0.0591
 1284ERGO    C217272  10.097   6.652   7.167 -0.1652 -0.1209 -0.1109
 1285ERGO   ROH17273   5.423  15.509   9.155 -0.0185  0.0537  0.0450
 1285ERGO    R117274   5.321  15.431   8.903  0.1262 -0.0267  0.0112
 1285ERGO    R217275   5.095  15.544   8.792  0.0401 -0.2463 -0.0346
 1285ERGO    R317276   5.260  15.590   8.581  0.0474 -0.0584  0.0092
 1285ERGO    R417277   4.990  15.606   8.469  0.0428  0.1037  0.0277
 1285ERGO    R517278   5.153  15.481   8.397  0.0229  0.1454 -0.1036
 1285ERGO    C117279   5.083  15.686   8.083  0.0512  0.4838  0.1052
 1285ERGO    C217280   5.205  15.998   7.792  0.0061  0.2145  0.4106
 1286ERGO   ROH17281  14.944  13.657   9.325  0.2274  0.0484  0.0427
 1286ERGO    R117282  14.893  13.816   9.097 -0.0801 -0.0286  0.0542
 1286ERGO    R217283  15.092  13.891   8.920 -0.2343  0.3002  0.0161
 1286ERGO    R317284  14.926  13.778   8.736 -0.0920  0.0300  0.0463
 1286ERGO    R417285  15.087  13.970   8.583 -0.2198  0.0759 -0.0392
 1286ERGO    R517286  14.870  13.959   8.589 -0.2154 -0.1125 -0.0878
 1286ERGO    C117287  14.929  13.911   8.215 -0.0776 -0.3085 -0.0430
 1286ERGO    C217288  14.906  13.891   7.964  0.1862 -0.0865  0.0136
 1287ERGO   ROH17289   5.352  12.516   5.864  0.0831  0.0509 -0.1454
 1287ERGO    R117290   5.593  12.535   6.011  0.1354 -0.0404 -0.2192
 1287ERGO    R217291   5.598  12.558   6.286  0.2171  0.2009 -0.2424
 1287ERGO    R317292   5.762  12.342   6.269  0.0174  0.0319 -0.0848
 1287ERGO    R417293   5.736  12.394   6.557  0.1786  0.3683 -0.1190
 1287ERGO    R517294   5.922  12.375   6.444  0.1212  0.0817 -0.1832
 1287ERGO    C117295   5.970  12.095   6.699 -0.0313  0.3071  0.1008
 1287ERGO    C217296   6.104  12.065   7.063 -0.0871  0.3034 -0.2801
 1288ERGO   ROH17297   8.742  12.660   9.420  0.1559 -0.0968  0.0684
 1288ERGO    R117298   8.858  12.760   9.182  0.0522 -0.0463  0.0373
 1288ERGO    R217299   8.989  12.598   9.001  0.1822  0.0245  0.0591
 1288ERGO    R317300   8.814  12.708   8.825  0.0671 -0.1644  0.0537
 1288ERGO    R417301   9.063  12.678   8.673  0.1448  0.2450  0.1038
 1288ERGO    R517302   8.947  12.861   8.697 -0.1220  0.0704  0.1371
 1288ERGO    C117303   8.942  12.829   8.317  0.0149  0.1958  0.1247
 1288ERGO    C217304   9.037  12.762   7.991  0.0601  0.2836 -0.1174
 1289ERGO   ROH17305  19.425  13.779   5.913 -0.2007 -0.0316 -0.1098
 1289ERGO    R117306  19.499  13.709   6.177 -0.1835 -0.0768 -0.1278
 1289ERGO    R217307  19.722  13.814   6.302 -0.2878  0.0525 -0.0577
 1289ERGO    R317308  19.543  13.883   6.494 -0.3687 -0.1674 -0.0497
 1289ERGO    R417309  19.799  13.863   6.635 -0.2595  0.4663 -0.1179
 1289ERGO    R517310  19.613  13.761   6.688 -0.0423  0.1168  0.0236
 1289ERGO    C117311  19.675  13.956   7.010 -0.3190  0.5007 -0.1452
 1289ERGO    C217312  19.827  14.181   7.222 -0.3140 -0.2335  0.0109
 1290ERGO   ROH17313   5.651   1.728   9.116  0.2829  0.0407 -0.0600
 1290ERGO    R117314   5.769   1.700   8.860  0.0705  0.0934 -0.1658
 1290ERGO    R217315   5.833   1.454   8.752  0.3177  0.1294 -0.1138
 1290ERGO    R317316   5.680   1.541   8.545 -0.0215 -0.1809 -0.0041
 1290ERGO    R417317   5.828   1.313   8.436  0.0444 -0.1329  0.0030
 1290ERGO    R517318   5.819   1.514   8.352 -0.2400 -0.2117 -0.1567
 1290ERGO    C117319   5.681   1.314   8.058 -0.4332 -0.5770  0.1738
 1290ERGO    C217320   5.747   1.319   7.771  0.1495 -0.3704 -0.1016
 1291ERGO   ROH17321   2.024  15.137   5.796  0.0869 -0.2102  0.0941
 1291ERGO    R117322   1.989  15.011   6.047 -0.0023  0.0215  0.2002
 1291ERGO    R217323   2.195  14.884   6.180 -0.1218 -0.1358  0.2359
 1291ERGO    R317324   2.123  15.050   6.383  0.1390  0.1106  0.1350
 1291ERGO    R417325   2.329  14.875   6.499 -0.2089 -0.2264  0.2705
 1291ERGO    R517326   2.128  14.910   6.578 -0.1695  0.1931  0.2092
 1291ERGO    C117327   2.338  15.025   6.875 -0.0149 -0.0477  0.1959
 1291ERGO    C217328   2.495  15.241   7.121  0.0900 -0.0867  0.3130
 1292ERGO   ROH17329   4.348  12.385   6.028  0.0923 -0.0780  0.0660
 1292ERGO    R117330   4.386  12.453   6.300  0.1807 -0.0660  0.0516
 1292ERGO    R217331   4.178  12.460   6.482  0.1777  0.2745  0.0459
 1292ERGO    R317332   4.338  12.291   6.622 -0.0650  0.0739  0.0873
 1292ERGO    R417333   4.144  12.389   6.819 -0.0229  0.2710  0.0259
 1292ERGO    R517334   4.361  12.395   6.837 -0.0229  0.0210  0.1064
 1292ERGO    C117335   4.275  12.190   7.146 -0.3677  0.0805  0.0533
 1292ERGO    C217336   4.581  12.223   7.375  0.3757  0.0610 -0.3237
 1293ERGO   ROH17337   7.777  15.403   5.851  0.1750 -0.1468 -0.0861
 1293ERGO    R117338   7.852  15.396   6.124  0.2417  0.0250 -0.0990
 1293ERGO    R217339   7.885  15.625   6.275 -0.1283  0.1129 -0.1399
 1293ERGO    R317340   7.708  15.502   6.440  0.1118 -0.1766 -0.0889
 1293ERGO    R417341   7.879  15.661   6.618 -0.1125  0.1260 -0.1409
 1293ERGO    R517342   7.837  15.448   6.635  0.2496  0.0521 -0.1139
 1293ERGO    C117343   7.709  15.567   6.974  0.1220 -0.1381 -0.0936
 1293ERGO    C217344   7.483  15.658   7.252 -0.1320  0.0747  0.0995
 1294ERGO   ROH17345   9.195   2.461   8.288 -0.0473 -0.1980 -0.1240
 1294ERGO    R117346   9.110   2.456   8.018  0.0088 -0.2462 -0.1417
 1294ERGO    R217347   9.012   2.679   7.889 -0.0510 -0.2882 -0.1769
 1294ERGO    R317348   9.207   2.620   7.708  0.0106 -0.2268 -0.1299
 1294ERGO    R417349   8.996   2.749   7.550 -0.0860 -0.4945 -0.2182
 1294ERGO    R517350   9.087   2.555   7.511  0.0797 -0.4394 -0.1018
 1294ERGO    C117351   9.169   2.734   7.184 -0.0485 -0.5570 -0.1980
 1294ERGO    C217352   9.080   2.694   6.944  0.2642  0.1751  0.1658
 1295ERGO   ROH17353   6.424  19.160   8.893 -0.1216  0.1892 -0.1166
 1295ERGO    R117354   6.525  19.213   8.634  0.0308  0.1299 -0.0716
 1295ERGO    R217355   6.685  19.034   8.497 -0.0985 -0.0180 -0.0429
 1295ERGO    R317356   6.496  19.062   8.304 -0.0048  0.2106 -0.1038
 1295ERGO    R417357   6.745  19.013   8.158 -0.0267 -0.0903 -0.0257
 1295ERGO    R517358   6.608  19.180   8.128  0.1868  0.0733 -0.0707
 1295ERGO    C117359   6.603  19.027   7.778  0.1030  0.0820 -0.0728
 1295ERGO    C217360   6.697  18.994   7.494 -0.1586  0.0386 -0.1079
 1296ERGO   ROH17361  18.142   9.602   5.867  0.0196  0.1512  0.0699
 1296ERGO    R117362  18.015   9.798   6.026 -0.0611  0.1249  0.0364
 1296ERGO    R217363  17.751   9.778   6.104 -0.0374  0.0082  0.0714
 1296ERGO    R317364  17.855   9.811   6.353 -0.0283  0.1267  0.0539
 1296ERGO    R417365  17.584   9.923   6.370 -0.1659 -0.1892  0.1017
 1296ERGO    R517366  17.770  10.023   6.425 -0.2679  0.0314  0.0699
 1296ERGO    C117367  17.585  10.038   6.758 -0.2324 -0.1928  0.1028
 1296ERGO    C217368  17.498   9.885   7.069 -0.4075  0.3354 -0.1785
 1297ERGO   ROH17369   3.707   1.504   8.400  0.0072  0.0751 -0.0021
 1297ERGO    R117370   3.483   1.538   8.229  0.0313  0.0157 -0.0475
 1297ERGO    R217371   3.410   1.784   8.127 -0.0627  0.0143  0.0003
 1297ERGO    R317372   3.425   1.654   7.889  0.0637  0.0827 -0.0285
 1297ERGO    R417373   3.168   1.794   7.881 -0.1068 -0.2390  0.0316
 1297ERGO    R517374   3.201   1.581   7.846  0.1504 -0.1875 -0.0169
 1297ERGO    C117375   3.041   1.677   7.514 -0.0138 -0.3223  0.0227
 1297ERGO    C217376   3.001   1.758   7.153 -0.2328  0.1543 -0.0489
 1298ERGO   ROH17377  15.727   9.694   6.551  0.1513  0.2331 -0.0721
 1298ERGO    R117378  15.554   9.640   6.769  0.0550  0.1199 -0.1742
 1298ERGO    R217379  15.560   9.785   7.004  0.0802 -0.1177 -0.0197
 1298ERGO    R317380  15.296   9.819   6.952  0.1168  0.0999 -0.0694
 1298ERGO    R417381  15.311   9.789   7.243  0.0069 -0.1563 -0.0955
 1298ERGO    R517382  15.186   9.674   7.107 -0.0280  0.0429 -0.2279
 1298ERGO    C117383  14.918   9.823   7.334 -0.0014  0.0255 -0.1864
 1298ERGO    C217384  14.661   9.900   7.332 -0.3131 -0.0321  0.1421
 1299ERGO   ROH17385   7.865  13.275   9.145 -0.0847 -0.0019  0.0044
 1299ERGO    R117386   7.900  13.130   8.904 -0.1053  0.0751 -0.0441
 1299ERGO    R217387   7.715  13.134   8.699 -0.0293  0.2942 -0.1034
 1299ERGO    R317388   7.930  13.208   8.550  0.0744  0.2017 -0.0036
 1299ERGO    R417389   7.768  13.043   8.370  0.1078  0.2234 -0.0637
 1299ERGO    R517390   7.979  13.015   8.417  0.0791  0.1606  0.0517
 1299ERGO    C117391   8.001  13.058   8.039  0.2850  0.0955  0.0533
 1299ERGO    C217392   8.065  12.978   7.690  0.0857 -0.2036  0.1213
 1300ERGO   ROH17393   4.710  11.179   5.569  0.1322  0.2398 -0.0809
 1300ERGO    R117394   4.758  11.297   5.822  0.0911  0.0765  0.0044
 1300ERGO    R217395   4.597  11.248   6.042  0.0634 -0.0780 -0.0470
 1300ERGO    R317396   4.832  11.178   6.158  0.0519 -0.1414 -0.0624
 1300ERGO    R417397   4.651  11.225   6.382  0.1332  0.1014 -0.0454
 1300ERGO    R517398   4.846  11.316   6.353  0.1786 -0.0284 -0.1502
 1300ERGO    C117399   4.904  11.146   6.689  0.1630  0.1463 -0.0589
 1300ERGO    C217400   4.919  10.806   6.893 -0.1375  0.0360  0.0110
 1301ERGO   ROH17401   5.167   8.268   8.760  0.2442  0.0725 -0.1261
 1301ERGO    R117402   5.178   8.160   8.499  0.0569 -0.0495 -0.0863
 1301ERGO    R217403   4.952   8.108   8.349 -0.0433  0.1859 -0.0241
 1301ERGO    R317404   5.076   8.264   8.166  0.1324 -0.0471 -0.1082
 1301ERGO    R417405   4.882   8.108   8.011 -0.1543  0.1981 -0.0014
 1301ERGO    R517406   5.096   8.125   7.972 -0.1391 -0.1310 -0.0782
 1301ERGO    C117407   4.958   8.256   7.641 -0.0539 -0.0135 -0.0672
 1301ERGO    C217408   4.961   8.497   7.447  0.0370  0.2000 -0.3145
 1302ERGO   ROH17409  18.542   3.822   5.621 -0.4809 -0.2027  0.1857
 1302ERGO    R117410  18.691   3.984   5.799 -0.2048 -0.3095  0.0582
 1302ERGO    R217411  18.571   4.146   5.988  0.0700 -0.0390  0.0095
 1302ERGO    R317412  18.732   4.010   6.160 -0.0676 -0.1741  0.0332
 1302ERGO    R417413  18.603   4.216   6.325  0.0058 -0.1330  0.0353
 1302ERGO    R517414  18.818   4.179   6.307 -0.0113 -0.2592  0.0971
 1302ERGO    C117415  18.773   4.129   6.683 -0.1608 -0.3146  0.0724
 1302ERGO    C217416  18.868   4.086   7.094  0.0658 -0.0628  0.0446
 1303ERGO   ROH17417  15.617   4.488   6.016 -0.0728  0.2086 -0.2292
 1303ERGO    R117418  15.496   4.690   6.174 -0.0575  0.1004 -0.0786
 1303ERGO    R217419  15.289   4.638   6.350  0.1463 -0.0681  0.1084
 1303ERGO    R317420  15.454   4.758   6.528  0.2333  0.0125 -0.0231
 1303ERGO    R417421  15.188   4.858   6.596  0.2394 -0.0437  0.1266
 1303ERGO    R517422  15.364   4.978   6.555  0.1869 -0.0026 -0.0147
 1303ERGO    C117423  15.284   5.099   6.908  0.3754  0.0462  0.0138
 1303ERGO    C217424  15.243   5.341   7.275 -0.3603 -0.1433 -0.0257
 1304ERGO   ROH17425   0.594  18.904   5.789 -0.1468  0.2231 -0.0945
 1304ERGO    R117426   0.638  18.925   6.068 -0.1384 -0.0570 -0.0714
 1304ERGO    R217427   0.579  19.155   6.211  0.1511 -0.0870  0.1064
 1304ERGO    R317428   0.435  18.982   6.364 -0.0897 -0.0248 -0.0445
 1304ERGO    R417429   0.489  19.209   6.541  0.0449 -0.1627  0.0906
 1304ERGO    R517430   0.532  19.000   6.582 -0.1766 -0.2249  0.0118
 1304ERGO    C117431   0.302  19.079   6.876 -0.2430 -0.1485 -0.0603
 1304ERGO    C217432   0.340  18.923   7.164 -0.0250 -0.0532 -0.2564
 1305ERGO   ROH17433   5.605   2.499   8.393 -0.0666  0.1489 -0.1772
 1305ERGO    R117434   5.595   2.399   8.129 -0.1850  0.0390 -0.1318
 1305ERGO    R217435   5.379   2.256   8.032 -0.2117 -0.0327  0.0360
 1305ERGO    R317436   5.383   2.445   7.837 -0.3389 -0.1136 -0.0469
 1305ERGO    R417437   5.410   2.190   7.694 -0.1306 -0.1609  0.0673
 1305ERGO    R517438   5.542   2.362   7.677 -0.2592 -0.0644  0.0042
 1305ERGO    C117439   5.431   2.328   7.314 -0.2027 -0.3116  0.0077
 1305ERGO    C217440   5.222   2.356   7.000  0.1086 -0.3403  0.0912
 1306ERGO   ROH17441  10.377   4.471   5.588  0.0599  0.1653 -0.0445
 1306ERGO    R117442  10.312   4.702   5.737  0.0169  0.0706  0.0851
 1306ERGO    R217443  10.114   4.879   5.659  0.1327  0.1949  0.0660
 1306ERGO    R317444  10.018   4.832   5.908 -0.0775  0.0277 -0.0440
 1306ERGO    R417445   9.880   5.075   5.820  0.1442  0.1983  0.0784
 1306ERGO    R517446   9.993   5.049   6.005 -0.0041 -0.0441  0.1384
 1306ERGO    C117447   9.652   5.144   6.149 -0.0465  0.0433 -0.0176
 1306ERGO    C217448   9.451   5.223   6.421 -0.1215  0.0370 -0.0481
 1307ERGO   ROH17449   4.648   4.004   8.498  0.2112  0.0477 -0.0126
 1307ERGO    R117450   4.547   4.113   8.257 -0.0211 -0.1110  0.0103
 1307ERGO    R217451   4.711   4.194   8.050 -0.1929  0.1879 -0.0125
 1307ERGO    R317452   4.555   4.026   7.904  0.0703 -0.0777  0.0036
 1307ERGO    R417453   4.629   4.238   7.717 -0.3605  0.0960  0.0152
 1307ERGO    R517454   4.427   4.170   7.763 -0.2327 -0.2804  0.0586
 1307ERGO    C117455   4.435   4.106   7.387 -0.2109 -0.2069  0.0464
 1307ERGO    C217456   4.548   4.086   7.049  0.3569  0.1053  0.1410
 1308ERGO   ROH17457  12.893  12.364   6.373  0.0542 -0.0367  0.1899
 1308ERGO    R117458  12.718  12.315   6.590 -0.1311 -0.0082  0.0501
 1308ERGO    R217459  12.712  12.476   6.815 -0.1124 -0.1459  0.1503
 1308ERGO    R317460  12.447  12.492   6.756 -0.0638  0.1511 -0.0074
 1308ERGO    R417461  12.461  12.525   7.048 -0.2460 -0.5709  0.1046
 1308ERGO    R517462  12.339  12.380   6.939 -0.2597 -0.2434 -0.3459
 1308ERGO    C117463  12.066  12.568   7.129 -0.2780 -0.5394 -0.0701
 1308ERGO    C217464  11.747  12.644   7.330 -0.1363 -0.1200  0.4271
 1309ERGO   ROH17465   6.926   5.684   7.904  0.1859 -0.1044  0.1330
 1309ERGO    R117466   6.974   5.510   7.685  0.2851 -0.1076  0.1573
 1309ERGO    R217467   6.928   5.584   7.423  0.1481 -0.2032  0.1544
 1309ERGO    R317468   7.187   5.509   7.390  0.2094  0.0230  0.1009
 1309ERGO    R417469   7.091   5.562   7.119  0.0443 -0.2468  0.1009
 1309ERGO    R517470   7.187   5.380   7.189  0.2485 -0.1119  0.1853
 1309ERGO    C117471   7.430   5.478   6.912  0.0414 -0.0598  0.0195
 1309ERGO    C217472   7.378   5.498   6.615  0.0172  0.1403  0.0635
 1310ERGO   ROH17473   4.573  19.284   8.470 -0.2611  0.4241  0.0186
 1310ERGO    R117474   4.609  19.375   8.204 -0.2488  0.2666 -0.0342
 1310ERGO    R217475   4.782  19.252   8.027 -0.2631  0.1444  0.0383
 1310ERGO    R317476   4.561  19.240   7.870 -0.2625  0.0800  0.0414
 1310ERGO    R417477   4.786  19.215   7.684 -0.2571  0.0238  0.0508
 1310ERGO    R517478   4.622  19.358   7.671 -0.2644  0.0141 -0.0005
 1310ERGO    C117479   4.580  19.181   7.336 -0.2530 -0.1070  0.0610
 1310ERGO    C217480   4.483  19.143   6.987 -0.1449 -0.0007  0.1184
 1311ERGO   ROH17481   9.529   8.419   5.473 -0.1672 -0.0919 -0.0473
 1311ERGO    R117482   9.623   8.482   5.732 -0.2784 -0.1014 -0.0045
 1311ERGO    R217483   9.500   8.671   5.893 -0.2084  0.0663 -0.1445
 1311ERGO    R317484   9.492   8.466   6.072 -0.5211  0.1257 -0.0835
 1311ERGO    R417485   9.551   8.704   6.233 -0.0447  0.0734 -0.1686
 1311ERGO    R517486   9.665   8.518   6.229 -0.3751 -0.1375 -0.1518
 1311ERGO    C117487   9.574   8.531   6.599 -0.2428  0.1333 -0.1253
 1311ERGO    C217488   9.480   8.328   6.855  0.0089  0.1397 -0.3008
 1312ERGO   ROH17489   6.634  15.860   9.018 -0.2682 -0.0601  0.1819
 1312ERGO    R117490   6.535  16.000   8.793 -0.2563  0.0713  0.2574
 1312ERGO    R217491   6.434  15.871   8.570 -0.0078  0.1950  0.0694
 1312ERGO    R317492   6.216  16.027   8.618 -0.1781 -0.0434  0.0939
 1312ERGO    R417493   6.207  15.973   8.330 -0.1216 -0.0129  0.0849
 1312ERGO    R517494   6.202  16.169   8.426 -0.3312 -0.0295  0.1136
 1312ERGO    C117495   5.871  16.180   8.235 -0.3476 -0.3577  0.1171
 1312ERGO    C217496   5.634  16.262   7.962 -0.0056 -0.1418  0.1605
 1313ERGO   ROH17497   9.160  15.927   8.915  0.1149  0.2235 -0.0410
 1313ERGO    R117498   9.258  15.996   8.659  0.2274  0.3460  0.0350
 1313ERGO    R217499   9.501  16.124   8.622  0.4399 -0.0099  0.1801
 1313ERGO    R317500   9.549  15.914   8.456  0.0958  0.0880 -0.0562
 1313ERGO    R417501   9.704  16.137   8.343  0.3902  0.0026  0.1437
 1313ERGO    R517502   9.558  16.013   8.237  0.1775  0.3159  0.0424
 1313ERGO    C117503   9.868  15.948   8.024  0.0380  0.1017 -0.0992
 1313ERGO    C217504  10.176  16.033   7.780 -0.1477 -0.0666 -0.0012
 1314ERGO   ROH17505  17.701  15.117   5.968 -0.2039 -0.0994 -0.2727
 1314ERGO    R117506  17.820  15.044   6.214 -0.2293 -0.0914 -0.2587
 1314ERGO    R217507  17.934  14.796   6.256 -0.1191 -0.0428 -0.2826
 1314ERGO    R317508  18.151  14.943   6.328 -0.2072  0.0470 -0.1960
 1314ERGO    R417509  18.168  14.701   6.493 -0.2741  0.1307 -0.0554
 1314ERGO    R517510  18.172  14.907   6.564 -0.3775  0.1726 -0.1574
 1314ERGO    C117511  18.507  14.785   6.699 -0.4472  0.3158  0.1584
 1314ERGO    C217512  18.704  14.622   6.896 -0.0472  0.0469  0.0215
 1315ERGO   ROH17513  17.693   3.161   9.221 -0.0440 -0.0082  0.0373
 1315ERGO    R117514  17.438   3.228   9.119  0.0648  0.0539 -0.2031
 1315ERGO    R217515  17.390   3.260   8.848  0.2277 -0.3740 -0.2983
 1315ERGO    R317516  17.195   3.077   8.895  0.0386 -0.1232 -0.0556
 1315ERGO    R417517  17.114   3.208   8.646  0.0143 -0.1778 -0.0636
 1315ERGO    R517518  16.993   3.185   8.825  0.1128  0.0668  0.0333
 1315ERGO    C117519  16.771   3.006   8.572 -0.2876  0.1719  0.3007
 1315ERGO    C217520  16.494   2.698   8.607 -0.0582 -0.2576  0.1615
 1316ERGO   ROH17521   0.610  13.072   6.019  0.0807  0.2439 -0.1219
 1316ERGO    R117522   0.621  12.959   6.278  0.0547  0.0934 -0.1860
 1316ERGO    R217523   0.856  12.869   6.392  0.0845  0.2595 -0.1197
 1316ERGO    R317524   0.784  13.036   6.594 -0.1907  0.0636 -0.0485
 1316ERGO    R417525   0.937  12.822   6.725  0.0699  0.1952 -0.1245
 1316ERGO    R517526   0.737  12.890   6.778 -0.0397 -0.1002 -0.1348
 1316ERGO    C117527   0.918  12.952   7.108 -0.1970 -0.0262 -0.0604
 1316ERGO    C217528   1.135  12.980   7.229  0.0052 -0.2301 -0.2599
 1317ERGO   ROH17529  18.955   1.650   9.043  0.0567  0.1396 -0.1673
 1317ERGO    R117530  18.814   1.507   8.842  0.1508 -0.0322 -0.1122
 1317ERGO    R217531  18.619   1.625   8.686 -0.0312 -0.2615 -0.0545
 1317ERGO    R317532  18.772   1.531   8.482  0.0054 -0.1039 -0.1023
 1317ERGO    R417533  18.507   1.568   8.364  0.0093 -0.0289 -0.1119
 1317ERGO    R517534  18.626   1.386   8.359  0.0236 -0.0248 -0.2278
 1317ERGO    C117535  18.585   1.447   7.985  0.0671  0.2545 -0.1900
 1317ERGO    C217536  18.440   1.473   7.669 -0.1601  0.1425 -0.2647
 1318ERGO   ROH17537   0.570   9.500   9.135 -0.1965  0.0826 -0.1565
 1318ERGO    R117538   0.701   9.326   8.954  0.1024  0.1818 -0.0404
 1318ERGO    R217539   0.580   9.232   8.724  0.2523 -0.1947  0.0341
 1318ERGO    R317540   0.800   9.336   8.604  0.0692  0.1097 -0.0536
 1318ERGO    R417541   0.650   9.207   8.387  0.3388 -0.4646  0.0692
 1318ERGO    R517542   0.859   9.173   8.438  0.4159  0.0140  0.1479
 1318ERGO    C117543   0.898   9.289   8.077  0.2173 -0.3360  0.0072
 1318ERGO    C217544   1.149   9.319   7.737 -0.0257  0.3026 -0.2647
 1319ERGO   ROH17545   9.968  14.548   8.964 -0.1319  0.0986 -0.0883
 1319ERGO    R117546  10.024  14.436   8.710 -0.2334  0.0709 -0.0983
 1319ERGO    R217547   9.878  14.501   8.484 -0.0569  0.3706 -0.1292
 1319ERGO    R317548  10.124  14.559   8.382  0.0788 -0.0061 -0.0355
 1319ERGO    R417549   9.977  14.442   8.158 -0.0652  0.3211 -0.1228
 1319ERGO    R517550  10.171  14.378   8.233 -0.1866 -0.0391 -0.0873
 1319ERGO    C117551  10.265  14.462   7.873  0.0575 -0.0614 -0.0313
 1319ERGO    C217552  10.295  14.582   7.465 -0.1481  0.3651  0.1902
 1320ERGO   ROH17553  16.054  13.623   5.580  0.3201  0.0032  0.0570
 1320ERGO    R117554  16.066  13.715   5.848  0.0156 -0.0361  0.0913
 1320ERGO    R217555  15.841  13.741   6.008 -0.1404 -0.3833 -0.0385
 1320ERGO    R317556  15.984  13.583   6.177 -0.0233 -0.2328 -0.0002
 1320ERGO    R417557  15.765  13.687   6.340 -0.0479 -0.3284 -0.0112
 1320ERGO    R517558  15.977  13.698   6.386 -0.0631 -0.1803 -0.0426
 1320ERGO    C117559  15.855  13.508   6.693  0.1160 -0.1551  0.0407
 1320ERGO    C217560  15.784  13.169   6.820 -0.2881  0.1857 -0.3027
 1321ERGO   ROH17561  17.305   0.303   5.860 -0.0468  0.1336  0.0727
 1321ERGO    R117562  17.389   0.495   6.050 -0.0466  0.1599  0.0447
 1321ERGO    R217563  17.644   0.498   6.157 -0.0745  0.1300  0.1043
 1321ERGO    R317564  17.643   0.755   6.069  0.0075  0.1056  0.0454
 1321ERGO    R417565  17.710   0.774   6.353 -0.0566  0.1626  0.0541
 1321ERGO    R517566  17.550   0.880   6.250 -0.0043  0.1726 -0.0080
 1321ERGO    C117567  17.748   1.177   6.385  0.0308  0.1588 -0.0305
 1321ERGO    C217568  18.028   1.475   6.608  0.2214  0.1466 -0.0494
 1322ERGO   ROH17569  15.250   2.909   5.876  0.1494  0.1238 -0.1197
 1322ERGO    R117570  15.407   3.064   6.052 -0.0626  0.2296 -0.0195
 1322ERGO    R217571  15.297   3.216   6.256 -0.2678 -0.1555  0.1684
 1322ERGO    R317572  15.470   3.075   6.410  0.0305 -0.0129 -0.0268
 1322ERGO    R417573  15.373   3.288   6.586 -0.0530 -0.1693  0.1234
 1322ERGO    R517574  15.581   3.240   6.544 -0.0325  0.0724 -0.0781
 1322ERGO    C117575  15.579   3.196   6.922  0.3519 -0.0433 -0.0861
 1322ERGO    C217576  15.447   3.368   7.235  0.0269 -0.1395  0.2274
 1323ERGO   ROH17577   2.859  12.592   6.083  0.0277  0.1346  0.0305
 1323ERGO    R117578   2.947  12.440   6.306 -0.0723  0.0643  0.0215
 1323ERGO    R217579   3.188  12.487   6.433 -0.0116 -0.1422 -0.0176
 1323ERGO    R317580   3.031  12.505   6.654  0.0362  0.0020  0.0073
 1323ERGO    R417581   3.285  12.396   6.751 -0.1520 -0.5369 -0.0813
 1323ERGO    R517582   3.086  12.310   6.782 -0.3124 -0.1931 -0.1245
 1323ERGO    C117583   3.194  12.359   7.144 -0.1888 -0.6313 -0.0950
 1323ERGO    C217584   3.216  12.241   7.385 -0.0157  0.1385  0.1031
 1324W        W17585  15.201   6.025  10.063 -0.2415  0.1230  0.2433
 1325W        W17586   1.069  11.190   0.113 -0.0961  0.1800 -0.3077
 1326W        W17587   0.169   1.874   3.617 -0.1499 -0.1203  0.0951
 1327W        W17588   8.216   3.354  13.498  0.0024 -0.3441  0.3400
 1328W        W17589   3.744  16.252   2.361  0.0841  0.0815 -0.1955
 1329W        W17590  13.633   8.777  12.629  0.2762 -0.1271  0.1315
 1330W        W17591   7.077  12.439   4.173 -0.3880  0.0959 -0.3451
 1331W        W17592  10.059  19.393  14.382 -0.1955  0.1616 -0.1930
 1332W        W17593   2.949  16.652  11.552  0.0379 -0.1354  0.1640
 1333W        W17594   1.852   2.587   9.956  0.1620  0.1370 -0.0623
 1334W        W17595  15.387   5.608   1.851 -0.1311 -0.0079 -0.1736
 1335W        W17596  14.821   9.274   5.372  0.0109  0.0718  0.0567
 1336W        W17597   8.264   6.061   1.248  0.0649 -0.2591 -0.0728
 1337W        W17598   3.014  17.742  11.937 -0.0373  0.0826 -0.1412
 1338W        W17599  16.400  10.814   3.679  0.0469  0.1730  0.0442
 1339W        W17600  10.188  11.161   5.338 -0.0821 -0.2414  0.0329
 1340W        W17601  16.017  10.189   1.570 -0.2405  0.1272  0.1648
 1341W        W17602   1.584   2.086   3.797 -0.0534  0.0130 -0.0915
 1342W        W17603   5.070   0.355   1.971 -0.2336  0.0959  0.0384
 1343W        W17604  11.141   2.152   2.759 -0.1847  0.1597  0.2125
 1344W        W17605  16.162   1.965   3.764  0.2206  0.2438  0.0526
 1345W        W17606   9.560   9.522   0.638  0.0605  0.1519 -0.0829
 1346W        W17607  18.269   2.650  10.654  0.1848 -0.6149 -0.1167
 1347W        W17608   9.680   2.679  14.149  0.1381 -0.0545 -0.0762
 1348W        W17609  15.653  11.683   1.366 -0.0568 -0.2788  0.0101
 1349W        W17610  12.030   9.384   2.064  0.0835  0.2515 -0.1150
 1350W        W17611   6.177  12.164  10.471 -0.0408  0.0958  0.0659
 1351W        W17612  14.999  17.700   0.061  0.2536 -0.1420  0.1662
 1352W        W17613  17.176   0.012  14.602  0.1941  0.1822 -0.1788
 1353W        W17614  14.198   4.747   4.461 -0.3089 -0.0841 -0.1165
 1354W        W17615  18.441   3.605  10.807  0.0289  0.3586 -0.3467
 1355W        W17616  16.390   2.122   1.691  0.1370 -0.0067  0.0775
 1356W        W17617  13.131   7.675   1.367 -0.1432  0.0379 -0.0672
 1357W        W17618   6.041   2.854   3.882 -0.0723  0.3032 -0.2838
 1358W        W17619  14.589   1.103   2.312  0.1160  0.0640 -0.0560
 1359W        W17620  10.873  15.983   4.667  0.0009 -0.3224  0.1409
 1360W        W17621   4.598  10.993   0.704 -0.1285  0.2468 -0.0905
 1361W        W17622  10.190  14.039   0.227  0.2832 -0.1429 -0.2001
 1362W        W17623   1.407   0.034   0.039  0.0963 -0.2300  0.1452
 1363W        W17624  14.495   2.761  13.447 -0.3253  0.0760 -0.1009
 1364W        W17625   2.824   4.349  14.368 -0.2290  0.0775 -0.0741
 1365W        W17626   2.894  18.685  14.166 -0.4230 -0.0713  0.0465
 1366W        W17627   1.376   5.575  14.312 -0.0241  0.3176 -0.1655
 1367W        W17628   8.680   6.357   0.106  0.0412 -0.2443 -0.1081
 1368W        W17629  15.365  15.288  11.970  0.1971 -0.1314  0.0561
 1369W        W17630  11.342   8.274  11.793  0.4630 -0.2538  0.1741
 1370W        W17631   1.382  10.311   5.774 -0.0915 -0.0915  0.2000
 1371W        W17632  18.170   1.865   9.892  0.4481 -0.3604 -0.0354
 1372W        W17633   2.781  15.738  14.140  0.5207 -0.4919 -0.1211
 1373W        W17634   0.794  10.770  12.507  0.0336 -0.0965 -0.0615
 1374W        W17635  15.929  16.586  14.514  0.0251 -0.0503 -0.2264
 1375W        W17636  13.399  17.705  14.056 -0.0365 -0.1668  0.2078
 1376W        W17637  10.880  10.573   1.380 -0.1909 -0.2468 -0.1763
 1377W        W17638   8.986   2.707  12.313 -0.0173 -0.3234 -0.0324
 1378W        W17639  17.377  11.800  10.746  0.2713 -0.2199 -0.3620
 1379W        W17640  17.100  18.601   3.494 -0.3833 -0.1566 -0.1671
 1380W        W17641   3.502   6.907  14.032 -0.0725  0.3532  0.1750
 1381W        W17642   4.948   6.106   3.890 -0.3654 -0.0298  0.2150
 1382W        W17643  13.568   3.490   1.081 -0.1213 -0.1141  0.1802
 1383W        W17644   2.289   8.900  12.151 -0.3150 -0.0756  0.0942
 1384W        W17645   7.047   1.233  14.378  0.1062 -0.1433 -0.2513
 1385W        W17646  13.991  14.027   2.526 -0.1020  0.0022  0.1075
 1386W        W17647  10.987   2.907   2.131 -0.0841  0.0090 -0.0729
 1387W        W17648   8.070   0.496   9.935  0.2026 -0.0093  0.1808
 1388W        W17649  11.383  19.458  13.890  0.2570 -0.1737 -0.0688
 1389W        W17650   2.688   5.803   2.172  0.0574 -0.0212 -0.1489
 1390W        W17651   8.209  19.005  10.252 -0.1359  0.1682 -0.3141
 1391W        W17652   9.045   4.865   4.083 -0.3389  0.0780 -0.0218
 1392W        W17653   1.068   4.005  14.112  0.0773 -0.0787  0.1957
 1393W        W17654  13.130  18.122  14.181 -0.1925 -0.3191  0.1970
 1394W        W17655   0.193  12.984  13.095 -0.0966 -0.2949 -0.0351
 1395W        W17656  14.040   7.192   3.829 -0.3467  0.0029 -0.1810
 1396W        W17657   6.172  16.562   3.241  0.2469  0.0417  0.2089
 1397W        W17658  18.035   3.486   9.200 -0.0160 -0.1085 -0.1889
 1398W        W17659   5.226   9.691   0.825  0.0157 -0.1471 -0.1191
 1399W        W17660   6.915  10.582   0.802 -0.0760  0.1559  0.1079
 1400W        W17661  11.652  12.740  12.090 -0.0588 -0.0845  0.0894
 1401W        W17662  12.301   5.293  13.380  0.1021  0.3779 -0.1566
 1402W        W17663  10.029  13.871   2.310  0.0238 -0.1084  0.0604
 1403W        W17664   9.184  18.401   4.070 -0.0898  0.2299 -0.0186
 1404W        W17665   0.104   8.347  11.914 -0.0095  0.0061 -0.1672
 1405W        W17666  10.990  14.597  10.915 -0.1262 -0.0656 -0.4088
 1406W        W17667  17.574   7.548   0.757 -0.1227 -0.0251  0.0054
 1407W        W17668   9.196   6.901   1.818 -0.0040 -0.1583  0.3178
 1408W        W17669  16.815   4.915  10.680 -0.0840 -0.0769  0.1245
 1409W        W17670   2.434  14.323  12.662 -0.3145 -0.3254 -0.0872
 1410W        W17671  16.065   8.757  14.697  0.1608  0.3442  0.2297
 1411W        W17672   0.587   1.760  13.195 -0.1052  0.0166  0.1499
 1412W        W17673  12.797   0.849   1.144 -0.1203 -0.2088 -0.0604
 1413W        W17674   2.748  15.754   4.220  0.0237 -0.1343 -0.1352
 1414W        W17675   5.388  13.346  13.635 -0.2205  0.1440  0.1550
 1415W        W17676   5.157  14.960  14.080 -0.1836 -0.0626 -0.0240
 1416W        W17677   5.863   5.447  13.062 -0.0547 -0.2074  0.1564
 1417W        W17678  13.917  14.151  12.029  0.0722 -0.0580 -0.1984
 1418W        W17679  11.800  10.636  10.540 -0.1915  0.3392 -0.2984
 1419W        W17680  11.000   0.100   2.708  0.0991 -0.0446 -0.0592
 1420W        W17681  16.190  15.650   2.434  0.1550 -0.1056 -0.1036
 1421W        W17682   2.701  17.496  10.320 -0.2365  0.0996  0.0562
 1422W        W17683  18.296  18.824  13.069  0.1271 -0.1325 -0.0399
 1423W        W17684  18.498  11.724  13.400 -0.3123  0.3237 -0.1453
 1424W        W17685  11.820  17.954  12.125  0.2500  0.0316 -0.3088
 1425W        W17686  18.786   6.291   4.300 -0.2939 -0.0926  0.0739
 1426W        W17687  17.133   7.600  11.850 -0.0878  0.1458  0.0414
 1427W        W17688   0.860  16.992   0.709  0.0091 -0.0448  0.4174
 1428W        W17689  10.922  18.872  13.197  0.0543 -0.0673  0.1366
 1429W        W17690   4.499  12.240  14.125  0.0985  0.2872 -0.2273
 1430W        W17691  16.535  17.976   2.997  0.3583 -0.2690 -0.2895
 1431W        W17692  19.124   1.369   3.233  0.1005  0.1522 -0.2360
 1432W        W17693   2.145  16.610   2.527 -0.5047  0.2164  0.0856
 1433W        W17694   8.947  13.175  10.064  0.0656  0.2382 -0.1802
 1434W        W17695   5.412   7.919   5.101 -0.2907  0.2062  0.3713
 1435W        W17696  14.503  16.707  13.281  0.4211  0.2413  0.2222
 1436W        W17697  11.760   1.603  12.915 -0.0435  0.0425 -0.2177
 1437W        W17698  12.815  14.082  14.056 -0.0423  0.1640  0.1790
 1438W        W17699   6.472  12.878  12.119  0.2953 -0.0012 -0.0214
 1439W        W17700  14.831   6.608   2.251  0.0703  0.2444 -0.1162
 1440W        W17701  11.358  13.372   5.314 -0.2522 -0.0730 -0.1029
 1441W        W17702  15.702  14.971   4.589  0.1095 -0.3971 -0.1368
 1442W        W17703   6.019  10.619  13.312  0.0526 -0.2719 -0.2067
 1443W        W17704   7.494  14.549   2.981  0.0944  0.1405  0.3385
 1444W        W17705   7.102   0.111  10.925 -0.0266 -0.2504  0.1110
 1445W        W17706  10.693  17.835  11.249 -0.0837  0.0331 -0.1916
 1446W        W17707  18.657   9.249  13.433  0.1474 -0.2701  0.0481
 1447W        W17708   2.742   4.010   2.803  0.0440 -0.2269 -0.1055
 1448W        W17709  15.727  13.855   1.207  0.0856  0.1070 -0.3333
 1449W        W17710  17.820   6.999  12.933 -0.0212  0.0553 -0.1181
 1450W        W17711  17.836   0.152   1.660 -0.0104  0.2572  0.1627
 1451W        W17712   3.392  10.401  11.107 -0.1777  0.1082 -0.0120
 1452W        W17713   0.542  18.523  10.418 -0.2155 -0.1801 -0.3743
 1453W        W17714   3.760   9.908   0.342  0.1741 -0.4087 -0.1520
 1454W        W17715   9.834   3.902  13.133  0.1611 -0.0534 -0.1330
 1455W        W17716  14.026  18.714  11.156  0.0839 -0.0233  0.4035
 1456W        W17717   0.262  15.513  11.854 -0.1250  0.1085 -0.1905
 1457W        W17718  17.510  10.418   3.416  0.0613  0.0923 -0.2166
 1458W        W17719  11.896  13.987  14.263 -0.2775  0.0916 -0.0422
 1459W        W17720  13.899  11.720  13.565  0.2858  0.1142  0.1798
 1460W        W17721   6.381   5.501  14.333  0.2244 -0.2940  0.2028
 1461W        W17722  17.762  14.473  12.288  0.1454  0.0619  0.0099
 1462W        W17723  14.618   7.673   1.188  0.0356  0.1078  0.3314
 1463W        W17724  12.310  19.446  12.241  0.2363 -0.1649  0.2298
 1464W        W17725  18.500  12.065   3.146  0.0016 -0.0102 -0.0582
 1465W        W17726   6.697  10.889  14.120 -0.0659  0.0350  0.3152
 1466W        W17727   5.710   9.216   0.391 -0.1744 -0.2107  0.1917
 1467W        W17728  17.744  14.334   2.847 -0.2243  0.2274  0.1818
 1468W        W17729   8.717   4.474  10.252  0.2039  0.3695 -0.0578
 1469W        W17730  15.174  11.925  11.051 -0.0784  0.0990  0.0540
 1470W        W17731  10.188   6.901   2.292 -0.3667 -0.0878  0.0263
 1471W        W17732  15.450   9.290  12.483 -0.0919  0.2398 -0.0272
 1472W        W17733   3.991   4.176   1.612  0.2036  0.0737 -0.3906
 1473W        W17734  15.889  14.768   1.097 -0.0431  0.0965 -0.0232
 1474W        W17735  13.917  16.221  12.415 -0.1470  0.1057 -0.0528
 1475W        W17736  15.141  11.441   1.969 -0.0758 -0.0072  0.3189
 1476W        W17737   6.731   1.450   3.899 -0.1444  0.3190  0.0227
 1477W        W17738   1.455   0.016   2.407 -0.2750  0.0497 -0.3968
 1478W        W17739  14.986   8.853  13.760  0.1730  0.0912 -0.1388
 1479W        W17740   3.347  15.346  12.448  0.0083  0.1359 -0.1363
 1480W        W17741   1.627  12.419  12.777 -0.2173  0.2487  0.0238
 1481W        W17742  14.787   2.706   5.089  0.0432 -0.2509  0.1568
 1482W        W17743   9.519  11.931   3.792  0.4199 -0.1134 -0.1752
 1483W        W17744   7.687  16.574  14.055 -0.2756  0.0498 -0.4011
 1484W        W17745  14.402   4.776  13.954 -0.2311  0.1624  0.0175
 1485W        W17746   1.491  15.607  13.611 -0.3566  0.3358  0.2147
 1486W        W17747  18.005  11.670  13.474  0.1851 -0.0866  0.0921
 1487W        W17748   6.433  19.471  11.780  0.0257 -0.2385 -0.3285
 1488W        W17749   8.447  13.037   5.281  0.2250  0.2909 -0.0186
 1489W        W17750  13.406   4.433   2.837 -0.0419 -0.1230 -0.1154
 1490W        W17751  12.251   8.877   3.070  0.2598 -0.1114  0.2422
 1491W        W17752  13.302   1.253   4.636  0.1625  0.0539 -0.0803
 1492W        W17753   8.425   2.401   0.599  0.0174 -0.0316  0.2831
 1493W        W17754  15.425   6.878   3.199  0.1716 -0.0060 -0.1147
 1494W        W17755  12.382  12.673  10.521  0.3155 -0.0235  0.1243
 1495W        W17756   8.875   5.416   1.310 -0.0275  0.0799  0.0821
 1496W        W17757   3.404   4.213  13.087 -0.0555 -0.5129  0.2978
 1497W        W17758   9.541   6.621  11.230 -0.0003  0.1993  0.2088
 1498W        W17759  16.027   6.230  14.560  0.1251 -0.1131 -0.3269
 1499W        W17760   4.996  18.664  12.699  0.0528 -0.2994  0.0701
 1500W        W17761   9.952   6.174  14.191  0.0378 -0.0053 -0.1022
 1501W        W17762   6.674  14.184   2.446 -0.0527 -0.0664 -0.0182
 1502W        W17763  18.327   2.226  11.033 -0.2642  0.1964 -0.2732
 1503W        W17764  18.547  18.234   1.881 -0.1463  0.0007 -0.2174
 1504W        W17765   8.852  16.389   0.881  0.1309  0.0012  0.0789
 1505W        W17766  10.615  18.240   4.655 -0.1029 -0.0786  0.0772
 1506W        W17767  13.444   5.302  12.316  0.0195 -0.3024 -0.1991
 1507W        W17768   3.090   8.611  10.592  0.1321  0.0415 -0.2379
 1508W        W17769   4.255  13.628  11.676 -0.0116  0.0741  0.0232
 1509W        W17770   1.277   9.291   3.220 -0.1931  0.0497 -0.1546
 1510W        W17771  16.877   6.195   0.919 -0.2171  0.0517 -0.1854
 1511W        W17772  11.806  11.702   0.611 -0.0798 -0.1265  0.2471
 1512W        W17773  17.186  11.107  14.247  0.2112 -0.0255 -0.2887
 1513W        W17774   3.829  16.086   3.172  0.0001 -0.2276  0.1290
 1514W        W17775   4.201   2.456  13.886  0.0852  0.2881 -0.3271
 1515W        W17776   7.533  16.233  11.851  0.2337 -0.2135  0.0133
 1516W        W17777   6.192   0.569   9.020 -0.1757 -0.0556  0.3511
 1517W        W17778   9.905   5.242   3.826 -0.2238 -0.0251  0.2181
 1518W        W17779   5.392   6.304   3.879  0.0888 -0.3006  0.1839
 1519W        W17780   9.446   5.226  10.296  0.2366 -0.0093 -0.0679
 1520W        W17781   2.275   2.045  11.892 -0.0481 -0.0335 -0.3713
 1521W        W17782   5.194   2.824  12.934 -0.3562 -0.2831 -0.1775
 1522W        W17783  10.768  15.273   3.919 -0.1088  0.0670 -0.0946
 1523W        W17784  16.103  11.633   2.747 -0.0252 -0.1925  0.1220
 1524W        W17785   7.553  12.222   4.218  0.1024 -0.1645 -0.1019
 1525W        W17786   9.222  12.982  14.094  0.0598 -0.1284 -0.0774
 1526W        W17787   9.560  13.269  12.146  0.1246 -0.0152  0.0523
 1527W        W17788   5.766   8.424   2.775  0.2295  0.0527  0.4000
 1528W        W17789  19.264   5.042  12.503 -0.2228 -0.1158 -0.1334
 1529W        W17790  18.729   4.467   2.073  0.1948 -0.2654  0.1224
 1530W        W17791  17.603  18.325  14.767 -0.2598  0.2463  0.0909
 1531W        W17792  12.278  16.780   3.340  0.2665  0.0768 -0.1077
 1532W        W17793   4.745   0.072   0.350 -0.1975  0.2130 -0.2800
 1533W        W17794  19.432  12.011  14.249  0.2294  0.0043 -0.1299
 1534W        W17795   2.294   5.568   0.002 -0.1839 -0.2389  0.1363
 1535W        W17796   1.090   3.435  14.193  0.0067  0.4899  0.0121
 1536W        W17797  12.249   8.455  13.898  0.0245  0.0938  0.0969
 1537W        W17798   9.086   2.852   0.159 -0.1881 -0.0181  0.1345
 1538W        W17799   1.570   2.380   5.067 -0.3223 -0.0240 -0.2395
 1539W        W17800  18.731   3.601  13.278  0.1094  0.2996 -0.2052
 1540W        W17801   3.758  10.749  13.728 -0.1272 -0.3586  0.0114
 1541W        W17802   5.170  17.681  10.867  0.0899 -0.3871  0.0708
 1542W        W17803  10.510   3.709  14.662  0.1903 -0.2470 -0.1826
 1543W        W17804  17.173   2.176   4.743  0.2726  0.1445  0.0621
 1544W        W17805   8.444   5.930  14.748 -0.0265  0.0411  0.1892
 1545W        W17806   5.024  10.923  13.548 -0.0330  0.0120  0.2350
 1546W        W17807  16.248  15.450   0.388  0.1053  0.0900 -0.3552
 1547W        W17808   7.894  16.615   0.944 -0.0662  0.1083  0.1534
 1548W        W17809  18.773  10.689  12.317 -0.1507 -0.0386  0.2309
 1549W        W17810  19.009   0.818  13.677 -0.1220  0.0672 -0.2552
 1550W        W17811   2.271   6.745  14.720  0.1865  0.0080  0.3829
 1551W        W17812   9.717   3.788   2.458 -0.1123  0.6009  0.0823
 1552W        W17813  12.025  17.360   0.379 -0.0480  0.0468  0.1169
 1553W        W17814  11.171  13.098   0.174 -0.0830  0.1939  0.1435
 1554W        W17815  19.136   3.281   4.978  0.1863 -0.0987  0.0937
 1555W        W17816  16.994   8.024   3.537 -0.0410 -0.0096 -0.0348
 1556W        W17817   2.656   7.989  13.884  0.2027 -0.1989 -0.0848
 1557W        W17818  17.974   0.177   9.992  0.1144 -0.1023  0.0295
 1558W        W17819  18.192   6.412   0.467 -0.1026 -0.3293 -0.0994
 1559W        W17820   4.980   8.620  11.047  0.1794  0.4156  0.2478
 1560W        W17821   1.052   9.528  10.653 -0.2998 -0.1234 -0.1557
 1561W        W17822   6.595   4.829  10.977 -0.0273  0.0161  0.0043
 1562W        W17823   0.038  17.630   0.150  0.0873  0.1324  0.0494
 1563W        W17824   0.334   4.846  13.019  0.2430 -0.1082  0.1906
 1564W        W17825  12.485  11.447  14.323  0.1217  0.4581 -0.2737
 1565W        W17826  13.399  13.244  11.221 -0.1062  0.0865 -0.1093
 1566W        W17827  14.115  13.923  14.537  0.0434  0.1353 -0.0424
 1567W        W17828  19.284  14.842   3.843 -0.4268  0.0192 -0.4287
 1568W        W17829   0.941  15.013   9.611  0.1346  0.1309 -0.3994
 1569W        W17830  13.370   7.061   1.359  0.3566 -0.1416  0.1771
 1570W        W17831  18.655   5.339   0.673  0.2657  0.1607 -0.0666
 1571W        W17832   1.991   7.005  10.482 -0.3305 -0.2641 -0.1646
 1572W        W17833  15.613   1.645   9.713  0.2929 -0.1288 -0.0889
 1573W        W17834   6.360  11.701   3.596 -0.3444 -0.1180 -0.0204
 1574W        W17835  13.518   8.752   4.358  0.0104  0.4040  0.0342
 1575W        W17836  14.669  13.943   0.014 -0.0747 -0.0594 -0.2407
 1576W        W17837   1.165   3.438   3.991  0.1750 -0.0323 -0.2337
 1577W        W17838  13.938  11.451   3.467  0.1173  0.1228 -0.0270
 1578W        W17839  17.043   6.561  11.465 -0.0752 -0.1549  0.1776
 1579W        W17840  13.324  17.147   1.395 -0.0530  0.1345  0.0237
 1580W        W17841   7.602   7.950  10.147 -0.5703  0.0130 -0.0766
 1581W        W17842   4.084   9.565   4.806  0.2328 -0.0849 -0.2449
 1582W        W17843  14.352   2.422  11.972 -0.0561 -0.0514  0.0884
 1583W        W17844  17.721  18.912   1.616 -0.1207  0.2133  0.0750
 1584W        W17845   5.061  15.274  12.402 -0.0530 -0.0308  0.3789
 1585W        W17846   1.451  17.124   3.085  0.0339  0.5551 -0.2124
 1586W        W17847  18.110   5.723  12.477 -0.1934 -0.0167  0.1275
 1587W        W17848  15.362   7.663  11.000  0.2398 -0.1521 -0.1064
 1588W        W17849  11.810  10.210  11.441 -0.1006  0.0340 -0.1140
 1589W        W17850   4.458  17.314   2.723 -0.1246  0.1652 -0.0123
 1590W        W17851  18.116  13.577  12.590  0.0646  0.0351 -0.1450
 1591W        W17852   4.265   5.742   2.930 -0.3279 -0.2404  0.0116
 1592W        W17853  15.159  15.315   0.171 -0.2032  0.3500  0.1053
 1593W        W17854  13.088   7.926   4.443  0.2445 -0.3441  0.0036
 1594W        W17855   3.543  15.267  10.142  0.0007  0.0036  0.2134
 1595W        W17856   7.874   5.446   2.441  0.0289  0.1386  0.0940
 1596W        W17857   0.158  11.234   0.708 -0.0943 -0.1758 -0.0095
 1597W        W17858   8.629   3.195  12.342  0.6579 -0.2493 -0.4141
 1598W        W17859   1.100   9.242   1.952  0.1103 -0.0466 -0.0480
 1599W        W17860   6.237  18.914  10.899  0.0319  0.2977  0.2904
 1600W        W17861  16.996  18.101   3.772 -0.1500  0.3394  0.0446
 1601W        W17862   6.452  12.216  11.337  0.1725 -0.2882 -0.1002
 1602W        W17863  16.197   0.081  11.316 -0.1385 -0.1423 -0.0923
 1603W        W17864   4.638  10.877  10.740  0.1770  0.0660  0.1320
 1604W        W17865  16.400   4.639   0.235  0.1482 -0.2517  0.0738
 1605W        W17866  15.923   2.119   0.245  0.4415  0.0185  0.0114
 1606W        W17867   1.311   2.438   2.090  0.0881 -0.1330 -0.1773
 1607W        W17868   8.094   6.789  14.522  0.1360 -0.0247 -0.1324
 1608W        W17869  11.999   3.365  12.205  0.0747 -0.1386  0.5311
 1609W        W17870   5.339  19.115  11.670 -0.3146  0.1760 -0.1556
 1610W        W17871  17.109   8.950   3.161 -0.0318  0.1439 -0.0616
 1611W        W17872  11.411   8.989   1.372  0.1352  0.1257 -0.0862
 1612W        W17873  10.715  14.947  13.059  0.1536 -0.1181 -0.0634
 1613W        W17874  16.935   5.407   4.364  0.2146  0.0689 -0.1307
 1614W        W17875   4.072  15.071   3.161 -0.0242 -0.1310 -0.2791
 1615W        W17876   7.088   3.473  12.913 -0.3834 -0.2286 -0.0784
 1616W        W17877   6.613  14.926   1.907 -0.0731 -0.0311 -0.0569
 1617W        W17878   6.368  13.100   1.280  0.1318  0.0965  0.3057
 1618W        W17879   4.412   1.817   4.376  0.0891 -0.4197  0.3809
 1619W        W17880  17.909  12.255  12.440 -0.0672 -0.2427 -0.0935
 1620W        W17881  13.041  11.192  11.221 -0.0185 -0.0324 -0.1956
 1621W        W17882  14.484  14.042  12.136 -0.2109 -0.0282 -0.1145
 1622W        W17883   3.450  17.445  10.870  0.2759 -0.0190  0.2324
 1623W        W17884  14.422  10.206  14.676  0.0585 -0.1329  0.1575
 1624W        W17885   4.214   3.258   0.313  0.0392  0.0737  0.0580
 1625W        W17886  11.713   6.215  11.801  0.1861  0.1177  0.1498
 1626W        W17887   2.711  11.711  10.832  0.2028  0.0473 -0.2966
 1627W        W17888   6.232  16.055   0.375 -0.0874  0.3014  0.1617
 1628W        W17889   9.521   6.333  13.445 -0.1351 -0.1528  0.0254
 1629W        W17890   0.497  15.053  11.015  0.0238  0.0367 -0.0093
 1630W        W17891  19.414   4.169   1.356  0.0609 -0.2857 -0.1623
 1631W        W17892  14.479  17.206  11.518 -0.0557 -0.0066 -0.3668
 1632W        W17893   0.318  14.561  11.507  0.2293 -0.2803  0.0806
 1633W        W17894  17.669  15.682   1.931 -0.3619 -0.1522 -0.1055
 1634W        W17895  10.182  16.278  13.242 -0.2467  0.0482  0.0201
 1635W        W17896   1.814   7.028   4.611  0.0198  0.1051 -0.0689
 1636W        W17897   6.432  13.317   3.101  0.0785  0.1703 -0.0871
 1637W        W17898   0.184  11.373   0.086  0.0686 -0.1409 -0.0673
 1638W        W17899  19.465  17.116   5.283  0.0127  0.1521 -0.0314
 1639W        W17900   1.193  10.474   1.163  0.1418  0.0877 -0.1318
 1640W        W17901  12.901  12.207  12.632  0.1373  0.1381  0.0185
 1641W        W17902  17.091  16.575  13.037 -0.5646  0.1425 -0.3495
 1642W        W17903   5.591   4.836  10.726 -0.1511  0.0557 -0.1030
 1643W        W17904  17.035   8.512   5.841 -0.3862  0.4805 -0.0913
 1644W        W17905   1.230   0.885   1.067  0.1252  0.0248  0.1841
 1645W        W17906   3.352  15.124   2.043 -0.1891  0.0781  0.0846
 1646W        W17907   0.829  11.830  13.181 -0.1417 -0.1177  0.0337
 1647W        W17908  16.434  14.239   3.517  0.1314  0.1698  0.1459
 1648W        W17909  16.959   6.850  13.627  0.1110 -0.0355 -0.1065
 1649W        W17910   5.503  15.804  14.062 -0.2058  0.2165  0.0637
 1650W        W17911  18.327   1.079   4.519  0.0916  0.1533  0.3562
 1651W        W17912  11.105   2.371   3.202 -0.1540  0.2559 -0.1117
 1652W        W17913  11.096   9.755   3.465 -0.0730  0.1218 -0.0293
 1653W        W17914   4.212  16.042  10.422 -0.2317  0.1720  0.1505
 1654W        W17915   3.546   7.912  14.780 -0.0199 -0.1653  0.3745
 1655W        W17916  10.028  18.990  12.853  0.2015  0.0679 -0.0894
 1656W        W17917  18.036   6.941  13.980  0.4316  0.0068 -0.0009
 1657W        W17918   6.861  15.447   3.119 -0.1718 -0.2555  0.0645
 1658W        W17919  13.202  10.431   1.924  0.1775  0.0408  0.1978
 1659W        W17920  10.536   2.532  12.825  0.2150  0.0334  0.2499
 1660W        W17921  13.409   1.039  14.528  0.1378 -0.0370 -0.2700
 1661W        W17922   7.835   0.603   1.842 -0.1340 -0.2643 -0.0561
 1662W        W17923   8.548  16.016   4.204  0.1563 -0.1128  0.0427
 1663W        W17924   5.156   8.157   1.250  0.1350 -0.1047  0.2851
 1664W        W17925   8.294  11.414   4.679  0.2812 -0.3048 -0.1937
 1665W        W17926   3.404   2.936   3.471 -0.0555  0.0073  0.1588
 1666W        W17927  16.240  15.277  13.020 -0.0696 -0.0423  0.2225
 1667W        W17928   1.173  13.892   2.865  0.0877 -0.0238 -0.0993
 1668W        W17929  15.598   4.173  11.232 -0.3003  0.2584 -0.0565
 1669W        W17930  16.134   8.469  14.079  0.3538  0.0847 -0.2399
 1670W        W17931   7.182  10.053  14.708 -0.0283  0.2212 -0.2370
 1671W        W17932  14.438  13.126  12.943  0.2746  0.1700 -0.2212
 1672W        W17933  12.258   7.490  14.773 -0.1287  0.3364 -0.0084
 1673W        W17934  16.482  10.587  14.047 -0.0582  0.0059 -0.0747
 1674W        W17935  13.725  12.569  10.800 -0.3627  0.4428 -0.2389
 1675W        W17936  13.012   5.160  12.220  0.0918 -0.2636  0.0791
 1676W        W17937  14.689   1.928  11.076 -0.1590 -0.0638  0.0164
 1677W        W17938  16.892  19.355   4.528  0.0538  0.0767  0.0828
 1678W        W17939   2.774   9.897  11.489 -0.0354  0.0271  0.0630
 1679W        W17940  16.655  11.954   4.149 -0.0141 -0.2134  0.0985
 1680W        W17941   0.564   8.811  11.201 -0.3078  0.1192  0.1727
 1681W        W17942   3.522  16.939   3.804 -0.1814 -0.1842 -0.0828
 1682W        W17943   2.432   5.128   1.872 -0.0529 -0.2740  0.3102
 1683W        W17944  17.494   2.868  14.522 -0.1272  0.1492 -0.0991
 1684W        W17945  15.010  18.289  12.448 -0.1849  0.1526  0.0347
 1685W        W17946  11.367   3.722  14.540  0.0535 -0.1396 -0.1320
 1686W        W17947   3.017  15.206   3.080 -0.1076 -0.1114  0.1804
 1687W        W17948  11.582   0.415   3.355  0.1442  0.0140  0.1661
 1688W        W17949  15.405  11.198  14.193 -0.1667  0.2498 -0.1035
 1689W        W17950  16.274   1.784   3.281 -0.2602  0.2250 -0.0040
 1690W        W17951   9.136   5.963  12.665 -0.0051 -0.1767  0.1072
 1691W        W17952  16.449  11.471  14.150 -0.1873 -0.0665  0.3039
 1692W        W17953   1.886  16.135   4.026  0.1798  0.1600  0.3916
 1693W        W17954   7.706  11.323   0.031 -0.1356  0.0846  0.0747
 1694W        W17955   7.440  18.221  10.816  0.3131  0.2866 -0.0134
 1695W        W17956   1.595   8.616   4.836 -0.0268 -0.0538 -0.2933
 1696W        W17957  18.750   8.984  11.866  0.0596  0.0376 -0.2659
 1697W        W17958  15.371   3.850  12.990  0.2493 -0.4680  0.1737
 1698W        W17959   7.769  17.499  13.729  0.2216 -0.1054  0.1208
 1699W        W17960   9.593  12.049  10.760  0.0730  0.1174 -0.3723
 1700W        W17961  19.050  18.619  10.709  0.1188 -0.1449  0.1423
 1701W        W17962  17.822   8.499  11.967 -0.1229  0.1750 -0.0487
 1702W        W17963  11.762  10.277   3.201  0.0395 -0.2181  0.0489
 1703W        W17964  18.196   3.139   2.030 -0.0295  0.0444  0.0555
 1704W        W17965   1.346   1.431  12.636 -0.1743  0.1889  0.1610
 1705W        W17966  17.108  10.920  13.719 -0.0233 -0.3581 -0.0661
 1706W        W17967   2.248  15.884   4.307  0.2501  0.3353  0.1610
 1707W        W17968   2.925   6.118   4.353 -0.0381  0.0708 -0.0234
 1708W        W17969   8.876   8.259  14.698 -0.1809  0.1772  0.1998
 1709W        W17970   2.585   8.590  10.735  0.0808 -0.0619  0.2282
 1710W        W17971   5.985  13.441   4.076 -0.0687 -0.1256 -0.1458
 1711W        W17972  10.228  13.562   3.401  0.1638 -0.0847 -0.0166
 1712W        W17973  16.726   5.771  10.939  0.2890 -0.3250 -0.0876
 1713W        W17974   7.615   4.899   3.976  0.0878 -0.3630 -0.0277
 1714W        W17975  17.330  17.991  13.648  0.2085 -0.0149  0.0640
 1715W        W17976   7.037  10.205  10.069  0.1021  0.1501 -0.0323
 1716W        W17977  14.236  18.603  13.543 -0.0201  0.3574  0.0823
 1717W        W17978   3.012  15.743   2.533 -0.0777  0.0672  0.1785
 1718W        W17979   7.836  16.586  11.569  0.3921  0.1630 -0.0557
 1719W        W17980  17.482   9.194   3.889 -0.0585 -0.1408 -0.1176
 1720W        W17981  16.147  17.602   5.103  0.2087 -0.2703  0.1560
 1721W        W17982   4.636   0.249   1.783  0.0746  0.0241 -0.1084
 1722W        W17983  10.966   5.597  14.005  0.3929 -0.0756  0.4615
 1723W        W17984   2.542   0.641  12.177 -0.4113 -0.1645  0.2234
 1724W        W17985  10.533  14.386   0.132 -0.2153  0.0839 -0.4591
 1725W        W17986   9.656   6.398  11.892  0.2761  0.0657 -0.0339
 1726W        W17987  12.696  13.228  14.393  0.0190  0.1730 -0.2649
 1727W        W17988   4.787  10.656  11.760  0.1335  0.1169 -0.0845
 1728W        W17989  18.146  10.283   2.897 -0.0058 -0.2790 -0.2895
 1729W        W17990  14.566   7.564   2.545  0.0513  0.0739  0.1190
 1730W        W17991  15.066   6.502   3.201 -0.3527 -0.2722 -0.1898
 1731W        W17992   9.054   9.086   2.976  0.1264 -0.1118 -0.1974
 1732W        W17993  10.111  12.415   0.930  0.0233 -0.0794 -0.0133
 1733W        W17994  11.006   4.934   2.480  0.1923  0.2651 -0.1047
 1734W        W17995  15.641  16.525  12.111  0.0556 -0.1328 -0.0091
 1735W        W17996  14.936   9.424  10.297 -0.1307  0.0421 -0.2800
 1736W        W17997  11.390  17.788  11.967 -0.0789 -0.1974 -0.1599
 1737W        W17998   0.694  12.435   0.250  0.0610 -0.1279  0.4704
 1738W        W17999   0.772  14.521   1.811 -0.1449  0.2400  0.2510
 1739W        W18000  19.242  11.187   0.439 -0.0372  0.1247  0.1704
 1740W        W18001  12.319  15.605   2.149 -0.0353  0.0717  0.0408
 1741W        W18002  16.887   8.126   4.334 -0.0588  0.2590 -0.2600
 1742W        W18003  13.685  18.136  13.022 -0.2173 -0.0910 -0.2427
 1743W        W18004  12.943  14.120  14.476  0.0735 -0.1459  0.1623
 1744W        W18005  17.803  18.133   4.308 -0.3071 -0.1966  0.0598
 1745W        W18006  17.888   4.790  13.607  0.0395  0.0008  0.0802
 1746W        W18007  16.963   1.393   3.427 -0.3856 -0.2389 -0.2842
 1747W        W18008   1.786   0.534  12.630  0.3387  0.1505  0.4281
 1748W        W18009  16.040   5.960   2.531  0.4240 -0.0992 -0.0983
 1749W        W18010   2.672   1.099  14.086  0.2482 -0.0350 -0.2152
 1750W        W18011  16.555  14.936   2.637 -0.1821  0.2856 -0.1900
 1751W        W18012   2.254  11.987   4.136  0.1341 -0.2228 -0.2805
 1752W        W18013  11.892   7.466   0.803  0.0083 -0.2050  0.2701
 1753W        W18014  12.684  14.027  10.571 -0.0551 -0.2392 -0.2648
 1754W        W18015   7.644   3.062   1.356  0.1035 -0.0799 -0.3582
 1755W        W18016   5.846   6.683  14.345  0.2234  0.0022 -0.1933
 1756W        W18017  10.087  16.383  10.136  0.2676 -0.0432 -0.1183
 1757W        W18018   2.422   6.534   3.878 -0.1901 -0.0439 -0.2820
 1758W        W18019   0.561  18.480  14.768  0.1250  0.3348 -0.0724
 1759W        W18020   0.178   9.466  14.690  0.3956 -0.3427 -0.5971
 1760W        W18021  12.399  18.516  13.094 -0.1220 -0.1130  0.0146
 1761W        W18022  13.667  15.728  12.357 -0.2744 -0.1935 -0.1740
 1762W        W18023  19.054  18.851   2.200  0.1360  0.1408 -0.3498
 1763W        W18024  11.722   4.888   3.195 -0.2371 -0.1636  0.1404
 1764W        W18025  11.306   4.387  13.064 -0.2782  0.1289  0.0116
 1765W        W18026   1.514   3.270   0.985  0.0777  0.1339  0.1040
 1766W        W18027   4.316   8.544  13.696  0.1435 -0.2292  0.3438
 1767W        W18028  12.882   9.075   1.879 -0.1042  0.0628  0.1113
 1768W        W18029  16.556  12.807   0.846  0.0850  0.2193  0.0662
 1769W        W18030   2.962  15.543  10.900 -0.0061  0.2457  0.1075
 1770W        W18031  11.613  13.211   2.745 -0.1685 -0.1585 -0.3731
 1771W        W18032   3.554   2.381  12.253 -0.0773 -0.1200 -0.2586
 1772W        W18033   2.242  18.432  14.735  0.0522 -0.0831  0.2352
 1773W        W18034  11.850  13.549  13.155 -0.0908  0.0146  0.1481
 1774W        W18035  14.668  11.924  10.794 -0.0598  0.2906 -0.0086
 1775W        W18036  17.428  15.813  13.062  0.3896 -0.0388 -0.3049
 1776W        W18037  12.195  16.576   2.428  0.1785  0.0431  0.1132
 1777W        W18038   6.108  12.921  10.956 -0.0049  0.0299  0.0899
 1778W        W18039   3.763   3.373   2.791  0.3391  0.1968  0.1137
 1779W        W18040   9.289  14.660  12.563  0.1686 -0.1024  0.3936
 1780W        W18041  18.200  10.337  11.313 -0.3560  0.3688 -0.1135
 1781W        W18042  15.767   1.692   3.055 -0.2069 -0.3653 -0.1239
 1782W        W18043  17.306  12.144   1.105 -0.1649  0.0144  0.1744
 1783W        W18044  15.637  17.398   0.835 -0.0661  0.1093 -0.1522
 1784W        W18045   4.571   3.944  11.900 -0.1477  0.1728 -0.1482
 1785W        W18046   5.059   2.783   0.224  0.0573  0.1507 -0.3344
 1786W        W18047  14.063  13.791  12.445 -0.1958  0.1945  0.2307
 1787W        W18048  17.822   3.495   2.299  0.4085  0.1230 -0.0941
 1788W        W18049  10.693  11.641   3.591 -0.1238  0.2734  0.0116
 1789W        W18050   3.508   4.451  10.504 -0.1498 -0.1862 -0.2108
 1790W        W18051  10.500   7.636  10.347  0.0811  0.2148  0.0448
 1791W        W18052  18.809  13.909   4.172  0.1839  0.1983  0.2665
 1792W        W18053   5.711   1.465   4.197  0.0176 -0.0971  0.1223
 1793W        W18054  11.158   4.985  14.782  0.0029 -0.0160  0.0322
 1794W        W18055   8.396   4.832  12.794  0.0343  0.2978  0.3353
 1795W        W18056  14.851   4.980   3.343  0.0892  0.0873 -0.1570
 1796W        W18057   0.030   5.887   5.313 -0.0602 -0.0254  0.2773
 1797W        W18058  13.931   2.096   2.960 -0.2102  0.0251  0.0630
 1798W        W18059   0.691   6.230  14.584 -0.2246  0.0815 -0.0048
 1799W        W18060   6.546   5.953  14.421  0.4164  0.2095 -0.2778
 1800W        W18061   0.315  11.102   1.843 -0.0756  0.0807  0.0425
 1801W        W18062  13.045   4.518  11.032 -0.1505 -0.0490  0.0136
 1802W        W18063   2.371   4.904   2.647 -0.1395  0.3101 -0.0323
 1803W        W18064  18.095  12.990  13.188  0.2882  0.1930  0.0057
 1804W        W18065  14.149  13.250  12.423  0.3016  0.0819 -0.1162
 1805W        W18066   6.329   3.902   3.063 -0.0525 -0.2156 -0.2684
 1806W        W18067   9.793  19.091  12.163  0.4927  0.1718 -0.1187
 1807W        W18068  13.680   8.939  10.488 -0.0818 -0.3557 -0.0251
 1808W        W18069   0.870   9.024   3.381 -0.2594 -0.1385  0.2617
 1809W        W18070   3.520  14.788   3.780 -0.0272 -0.1566 -0.5051
 1810W        W18071   4.512  15.608  10.581 -0.2061 -0.1987  0.1611
 1811W        W18072  14.792   8.478  13.378  0.0625 -0.4911  0.0192
 1812W        W18073   7.780   6.330  13.806 -0.3134 -0.5930 -0.1051
 1813W        W18074   7.800  11.091  14.281  0.1716 -0.0622  0.1395
 1814W        W18075   9.358  12.840   0.303  0.6337 -0.0800  0.2346
 1815W        W18076  18.632  12.731  14.335 -0.1738 -0.0671  0.2266
 1816W        W18077   2.268   7.241  12.279 -0.0597 -0.1825 -0.0651
 1817W        W18078   8.316   8.754  10.000  0.0622  0.0259 -0.3718
 1818W        W18079  15.263  13.548  12.283 -0.4664 -0.2536 -0.0650
 1819W        W18080   2.110   7.519  11.535  0.1559  0.0151  0.1443
 1820W        W18081  13.680   9.077  12.176 -0.1236 -0.2615 -0.0758
 1821W        W18082  15.688   6.221  13.300 -0.0749  0.0412 -0.1114
 1822W        W18083  19.071   2.587  11.368 -0.0713 -0.0848  0.3047
 1823W        W18084   5.534   4.822   2.093 -0.3688  0.2841 -0.3596
 1824W        W18085  13.520  15.437   5.150  0.0342 -0.0027 -0.3123
 1825W        W18086   3.205   9.682  12.169  0.0362  0.3023  0.1042
 1826W        W18087  11.545   7.144  14.260  0.0007 -0.3161  0.4791
 1827W        W18088  16.998   8.502  14.127 -0.0159 -0.1074 -0.1730
 1828W        W18089  13.519   8.149  11.010  0.0525  0.2602 -0.0458
 1829W        W18090   3.794  18.487   2.117  0.0490  0.0070 -0.1065
 1830W        W18091  16.785  10.007  12.815  0.2659 -0.2421  0.2406
 1831W        W18092  13.021   8.224  11.192 -0.0621 -0.0538 -0.1204
 1832W        W18093  19.083  16.735   0.781 -0.2877  0.4623  0.2422
 1833W        W18094   6.053  16.520  12.991 -0.0575  0.0130  0.2801
 1834W        W18095  16.474  16.430  12.196 -0.0795  0.0178 -0.2794
 1835W        W18096  14.579   6.698   1.573  0.0819  0.0663  0.0963
 1836W        W18097   5.762   9.014  13.884 -0.0549 -0.0891  0.0050
 1837W        W18098  18.711  10.076  14.749  0.0740 -0.1438 -0.1187
 1838W        W18099  14.876  13.410  14.361 -0.0226 -0.2373  0.0864
 1839W        W18100   1.803   1.839  12.555  0.0517  0.1173 -0.3239
 1840W        W18101   4.451   6.436  11.243  0.1356  0.1175 -0.1251
 1841W        W18102   5.554  16.598   2.639 -0.1283  0.1794  0.1086
 1842W        W18103  17.884  14.279   4.025  0.2788  0.0002  0.1414
 1843W        W18104   1.133   2.302   1.615  0.0931  0.1810 -0.0057
 1844W        W18105  12.263  12.542  11.207 -0.2252 -0.0823  0.0041
 1845W        W18106   0.098   9.073  12.734 -0.0760  0.1290 -0.0570
 1846W        W18107   9.632  19.221   4.289  0.4001  0.0545 -0.0063
 1847W        W18108   7.300  13.811  13.238 -0.2008 -0.0114  0.1408
 1848W        W18109   1.818  12.961  11.711 -0.0959 -0.1584  0.2496
 1849W        W18110  13.250   7.333   4.447 -0.1523  0.0249 -0.3011
 1850W        W18111  16.442  14.988   4.764  0.0242  0.0828  0.0763
 1851W        W18112  12.138   6.046   4.495 -0.3154 -0.0445 -0.2459
 1852W        W18113   2.349  15.570  13.288  0.3638  0.3641  0.1075
 1853W        W18114   2.744  13.282  10.329  0.0209 -0.2651 -0.2018
 1854W        W18115   3.802   4.664   0.344 -0.1609 -0.4022  0.0724
 1855W        W18116  18.585  17.460   1.255  0.2211 -0.0645  0.0115
 1856W        W18117  10.308   2.004   2.593 -0.0878 -0.2274  0.1081
 1857W        W18118  10.507  11.929  13.214  0.0223 -0.0804  0.2471
 1858W        W18119  14.832   8.356   0.419  0.2507  0.1251  0.0696
 1859W        W18120  14.832   3.841  11.730 -0.2726 -0.0675 -0.2015
 1860W        W18121   0.618  14.318   4.121  0.1242 -0.2108  0.0200
 1861W        W18122   3.098  13.341  12.588 -0.1802  0.0817 -0.2736
 1862W        W18123  12.544   8.532   3.473  0.0379  0.2675 -0.1863
 1863W        W18124  17.959   8.039   1.271 -0.0070  0.1581  0.4899
 1864W        W18125   3.655  16.816   0.475  0.0513 -0.0201 -0.2289
 1865W        W18126   3.957   0.393  12.451 -0.0015  0.1303 -0.1432
 1866W        W18127  10.779   7.451   4.501 -0.0925  0.0952 -0.2463
 1867W        W18128   5.493  17.258  13.578  0.0266 -0.0996  0.0045
 1868W        W18129  16.585  12.462  11.019 -0.2189 -0.4929 -0.0438
 1869W        W18130   1.261   3.181  13.088  0.0873  0.0918  0.0187
 1870W        W18131  10.097   4.894   1.119 -0.0767 -0.0186 -0.2108
 1871W        W18132  18.992   6.360   3.749  0.1365 -0.1415 -0.0718
 1872W        W18133   3.965  18.048   0.410  0.2376 -0.3810 -0.3323
 1873W        W18134  12.054  10.691  12.520 -0.2000  0.1856 -0.0783
 1874W        W18135   6.838  18.863   3.272 -0.2083  0.0962  0.1232
 1875W        W18136  16.859   1.527  13.539  0.1617  0.0383 -0.1121
 1876W        W18137   0.005   9.981   3.127 -0.0875 -0.0816  0.5415
 1877W        W18138   5.289   3.996  14.511  0.2352 -0.3978  0.1096
 1878W        W18139   5.238  17.672   1.769 -0.1578 -0.0347  0.0873
 1879W        W18140  17.379   3.720   3.993  0.1139 -0.2424 -0.0438
 1880W        W18141  12.552   4.580   3.355  0.1270 -0.1840 -0.1241
 1881W        W18142  14.651  11.651   1.754  0.0128  0.2558 -0.2562
 1882W        W18143   6.673   9.767   0.710  0.1202  0.0694 -0.1675
 1883W        W18144  18.020  15.057   0.216  0.0810  0.0642 -0.2315
 1884W        W18145  13.186   5.678   2.180  0.1718 -0.4133 -0.0892
 1885W        W18146  12.110  15.463  11.561 -0.0397  0.1249  0.2025
 1886W        W18147  19.381   9.400   4.816 -0.0123  0.4307  0.0272
 1887W        W18148   3.706   7.387  10.024  0.1143 -0.2603 -0.2134
 1888W        W18149  19.162   4.120  10.336 -0.1972 -0.1553  0.0615
 1889W        W18150  11.232  11.605   0.581 -0.1230 -0.1409 -0.0440
 1890W        W18151  16.455   9.292   2.009  0.1287  0.0023  0.0169
 1891W        W18152  13.474  16.680   5.677  0.1085  0.2624  0.0724
 1892W        W18153  14.433  11.454  14.020  0.0888  0.1168  0.0522
 1893W        W18154  14.680   4.600   4.490 -0.1916  0.0297 -0.7036
 1894W        W18155  19.378   8.656  14.470  0.1862 -0.0857  0.3122
 1895W        W18156   3.992   2.952   9.080  0.0566  0.1232  0.0015
 1896W        W18157   4.969  18.351  10.989 -0.1022 -0.2682  0.0199
 1897W        W18158  17.683   0.877   5.548  0.1346  0.0050 -0.0487
 1898W        W18159  17.395  10.658   3.004  0.0637  0.2429  0.1197
 1899W        W18160   2.761   9.366  11.487 -0.0210  0.0313 -0.1480
 1900W        W18161  10.627  10.348   1.015 -0.2098 -0.0707  0.2200
 1901W        W18162   4.152  14.354   3.171 -0.2681 -0.1242 -0.1921
 1902W        W18163   4.130   4.182  10.909  0.0484  0.0623 -0.1795
 1903W        W18164  12.029  11.107  13.441 -0.2127 -0.1361  0.0205
 1904W        W18165  17.774   2.107  12.220 -0.0465 -0.1486 -0.2770
 1905W        W18166  13.265  17.931   0.482 -0.0723  0.1380 -0.0107
 1906W        W18167  16.376   3.550  11.452 -0.4686  0.0167  0.3844
 1907W        W18168   6.007  12.374  12.992  0.1408 -0.2019  0.5231
 1908W        W18169  17.770   2.129   0.289 -0.2305 -0.1721  0.0088
 1909W        W18170   3.960  11.237   1.325 -0.1044  0.1426 -0.2299
 1910W        W18171  13.662  18.921   4.990 -0.1165  0.3088  0.1023
 1911W        W18172   5.169   1.549  11.500 -0.0233 -0.0437 -0.2845
 1912W        W18173   8.696  17.972  13.100  0.2118  0.2743  0.1492
 1913W        W18174   3.891   8.449   4.300 -0.0089 -0.2307 -0.0253
 1914W        W18175   1.549  19.189  14.460 -0.0620 -0.2195 -0.1726
 1915W        W18176   8.613   6.017  14.299  0.1374 -0.0411 -0.3224
 1916W        W18177  16.481  19.347  10.960  0.2055  0.2399 -0.0768
 1917W        W18178   2.301   9.717  13.942  0.1450  0.1764 -0.0310
 1918W        W18179   4.563   1.050   4.064  0.2083  0.1040  0.2649
 1919W        W18180   2.993  10.567   1.550 -0.1419 -0.1891  0.0268
 1920W        W18181   3.215   5.432   2.970  0.1133  0.0391 -0.2307
 1921W        W18182   0.311  18.471   9.529 -0.2490 -0.1355  0.1648
 1922W        W18183  16.001   3.112   3.535 -0.0081  0.3372 -0.1363
 1923W        W18184  18.331  18.133  10.749  0.2075  0.1859 -0.2425
 1924W        W18185   7.727   7.336   2.542  0.2047 -0.0611  0.1720
 1925W        W18186  18.101  15.655   5.006 -0.2612 -0.2183  0.0778
 1926W        W18187   4.104  16.193   3.624  0.2985 -0.0070 -0.1956
 1927W        W18188  11.801  18.440  13.067 -0.0474 -0.0685 -0.4253
 1928W        W18189   7.022   3.336   4.062  0.1752 -0.1813 -0.2883
 1929W        W18190  17.044  15.455   2.092  0.3304  0.0765  0.0795
 1930W        W18191  13.442  11.234   4.271 -0.2958 -0.0437  0.0022
 1931W        W18192   1.782   4.341   9.310  0.0661 -0.1733  0.0268
 1932W        W18193  12.767   8.077   3.534  0.0788  0.2508  0.0338
 1933W        W18194  12.680  13.674  11.253  0.2453 -0.1176  0.0941
 1934W        W18195   6.977   2.975  10.102  0.3409  0.0075  0.1014
 1935W        W18196   4.083   8.237  10.746  0.0356  0.0955  0.1187
 1936W        W18197   5.848  12.128  12.517  0.1035  0.2522  0.0044
 1937W        W18198   2.804   7.353   2.875 -0.2304 -0.5790 -0.2094
 1938W        W18199   7.918  14.989  14.120 -0.2069 -0.1116 -0.0861
 1939W        W18200   9.117   7.420   4.031 -0.3640 -0.2794 -0.2109
 1940W        W18201  18.619  14.259   5.159 -0.0924 -0.0280  0.1080
 1941W        W18202   7.844   1.609  10.608 -0.0114  0.0600  0.1000
 1942W        W18203   2.825   1.083  12.185 -0.1552  0.0886  0.1242
 1943W        W18204   5.316  12.374   3.610 -0.0133  0.0629 -0.1640
 1944W        W18205   6.869   9.374  11.846  0.0403  0.1987 -0.2378
 1945W        W18206  17.333  14.687   2.632  0.1862 -0.1025 -0.1768
 1946W        W18207  16.710  19.388  12.438 -0.1659 -0.2446 -0.0668
 1947W        W18208   7.448   3.065   9.998 -0.2315 -0.1333 -0.2769
 1948W        W18209  16.535   2.535  11.115  0.2318  0.2258  0.1725
 1949W        W18210   6.437  15.967  12.540  0.2281  0.2441 -0.0782
 1950W        W18211   1.480  13.160   2.194  0.5882 -0.0887  0.0947
 1951W        W18212  16.058  13.376  11.662 -0.1428  0.0840  0.1286
 1952W        W18213   8.998   0.682  14.312  0.0724 -0.2552  0.0358
 1953W        W18214   0.836   9.786  13.462  0.0195 -0.2728 -0.2541
 1954W        W18215   4.343   5.306   0.185 -0.0465 -0.1190 -0.2345
 1955W        W18216   6.518  18.976  10.470  0.2308  0.0381 -0.0141
 1956W        W18217   2.356   9.851   2.641 -0.0150 -0.3412 -0.1864
 1957W        W18218   7.997  13.470   4.142 -0.0185 -0.1950 -0.0289
 1958W        W18219   0.565  15.857  13.513  0.0616  0.3018 -0.1300
 1959W        W18220   1.778  14.738  10.793  0.0315  0.0479 -0.1822
 1960W        W18221   1.290  11.737  10.887 -0.0912 -0.3478  0.0797
 1961W        W18222  17.824   4.487   4.507 -0.0550  0.1252 -0.2435
 1962W        W18223  16.526  16.888  10.677  0.1145 -0.1763  0.2810
 1963W        W18224  11.994  13.078  12.442  0.1477 -0.2666 -0.1982
 1964W        W18225  18.175   5.795  13.782 -0.2402  0.2291 -0.2212
 1965W        W18226  15.568  18.406   1.749 -0.3729 -0.1436 -0.2623
 1966W        W18227   1.483   3.570   4.340  0.0372 -0.0390  0.1816
 1967W        W18228   1.371   2.666  13.952  0.0720 -0.0075 -0.1453
 1968W        W18229  10.571   8.074  12.155 -0.1741 -0.3268  0.0847
 1969W        W18230  13.291  15.526   2.333 -0.2267 -0.2692 -0.1058
 1970W        W18231   5.040   8.252  14.044  0.0367 -0.0009 -0.2615
 1971W        W18232  19.277  10.065   0.571  0.0117 -0.3984  0.1600
 1972W        W18233  11.731   9.329   4.967 -0.0738  0.4683 -0.1843
 1973W        W18234  10.108   4.199  13.652 -0.4478  0.1714  0.0461
 1974W        W18235  11.379   0.507   2.859  0.4487  0.1171 -0.2323
 1975W        W18236   8.484  12.071   4.985 -0.0706  0.2317 -0.1378
 1976W        W18237  12.534  16.193  11.866  0.0563 -0.3152 -0.1556
 1977W        W18238   2.867  17.109   3.964 -0.5002  0.2041  0.0453
 1978W        W18239   3.675   6.491  13.802  0.2688  0.0620 -0.1541
 1979W        W18240   7.868   6.636  10.886 -0.0083 -0.1635  0.3714
 1980W        W18241   6.195  12.173   4.915 -0.2437 -0.2106  0.1074
 1981W        W18242  17.983  18.008   5.557  0.1626 -0.3406 -0.2437
 1982W        W18243   2.752   1.943  11.457 -0.2778 -0.2032  0.3756
 1983W        W18244   7.414   6.362   2.369  0.0196  0.2107  0.1854
 1984W        W18245   8.636  11.705   1.080 -0.0260 -0.1650 -0.0153
 1985W        W18246  18.605  13.398  12.695  0.1771 -0.0986 -0.1035
 1986W        W18247  10.344  10.762   1.251  0.0258  0.0258 -0.4308
 1987W        W18248   0.990  15.550   5.039  0.0008  0.2828  0.0206
 1988W        W18249   5.186  13.715  13.893  0.0094  0.0016  0.1590
 1989W        W18250   4.391  10.824   4.368  0.1044  0.0250 -0.1020
 1990W        W18251  17.245  15.300  10.754 -0.2755  0.3172 -0.0914
 1991W        W18252   4.483  19.272   0.038 -0.0114  0.3671 -0.0831
 1992W        W18253  10.156   9.891   3.465 -0.0355 -0.0784 -0.0683
 1993W        W18254  13.173  16.310  13.284  0.0290 -0.2122  0.2054
 1994W        W18255  12.727  15.708   3.284  0.2410 -0.0915  0.1190
 1995W        W18256   0.401  14.967  14.125 -0.0030 -0.2688  0.3557
 1996W        W18257  14.671   7.209  13.532  0.1961  0.1838  0.1958
 1997W        W18258  12.751   7.625  13.429  0.1379  0.4638  0.1166
 1998W        W18259  13.634  18.181  14.009  0.2012 -0.1584  0.0317
 1999W        W18260   6.591   4.638   0.550 -0.1288  0.0783  0.1112
 2000W        W18261   1.673  14.341  11.247  0.1271  0.1031 -0.1092
 2001W        W18262  10.917  16.179  12.885 -0.1840 -0.1317 -0.1564
 2002W        W18263   4.040  14.186   4.332  0.0498 -0.0766  0.1002
 2003W        W18264   6.071   7.068  12.763  0.1245 -0.1603 -0.2793
 2004W        W18265  15.136  17.697  11.642 -0.4134  0.0718  0.0633
 2005W        W18266  11.348  17.977   2.620 -0.1805  0.4295 -0.2284
 2006W        W18267  13.353  18.085   6.096  0.0267 -0.0980 -0.1984
 2007W        W18268   0.235  17.942   0.543 -0.0712  0.2303  0.1170
 2008W        W18269  17.256  17.493  13.465 -0.0613  0.1567  0.3707
 2009W        W18270  16.838   0.039   0.307 -0.0181 -0.0162  0.1590
 2010W        W18271  10.659   4.905   9.859  0.5088 -0.3844  0.2435
 2011W        W18272  12.102  16.227   1.016  0.1809 -0.3847  0.0911
 2012W        W18273  11.759  18.123   3.409  0.1907  0.0213 -0.3064
 2013W        W18274   2.034  16.114  11.972  0.0003 -0.3074 -0.3905
 2014W        W18275   7.242   4.202   1.429 -0.0424  0.1030  0.0256
 2015W        W18276   0.288   3.546   1.876 -0.3600  0.2180 -0.1507
 2016W        W18277  14.478  18.301   0.639 -0.2957 -0.1653 -0.1896
 2017W        W18278   9.216  17.161  14.033  0.0120 -0.1524 -0.2229
 2018W        W18279  12.364  15.582  13.991 -0.2123  0.0606  0.1717
 2019W        W18280   8.630   9.452  10.595  0.1006  0.1702  0.0090
 2020W        W18281   4.792   9.231   9.772  0.0475 -0.2112 -0.0223
 2021W        W18282   1.580  13.549   5.845  0.0819  0.1756 -0.1224
 2022W        W18283   2.985  14.640  10.645  0.1476  0.1239 -0.1061
 2023W        W18284   6.299  14.545   3.671 -0.3217 -0.1181 -0.0718
 2024W        W18285   6.725   0.513   2.036 -0.2099  0.1614  0.3429
 2025W        W18286   6.439   3.866  13.349  0.0638  0.1675  0.3968
 2026W        W18287  15.245   1.953   9.870  0.0216 -0.0314  0.0330
 2027W        W18288  12.572  18.677  13.576 -0.0052 -0.0588  0.1850
 2028W        W18289  10.397   9.699  12.133 -0.1543  0.1143 -0.0134
 2029W        W18290   6.010   6.844  13.234  0.2098 -0.4242  0.0698
 2030W        W18291   1.667  16.491  13.896  0.0789 -0.0467  0.1506
 2031W        W18292   9.237   0.399  10.714  0.0031  0.1563  0.1820
 2032W        W18293  11.452   2.678  12.444 -0.1941  0.1592 -0.0555
 2033W        W18294   4.558  13.638   3.207  0.0954  0.1785 -0.1780
 2034W        W18295   8.585   3.075   1.348 -0.0313  0.0503  0.0608
 2035W        W18296   7.491  12.296   2.728 -0.2971 -0.0162 -0.1547
 2036W        W18297  10.596   3.527  13.599  0.0178 -0.1711  0.2582
 2037W        W18298  12.452  13.258   1.449  0.1379 -0.1376  0.0251
 2038W        W18299  12.791  17.088   3.861 -0.2594 -0.2329 -0.1625
 2039W        W18300   8.160   8.577  10.446  0.2224 -0.1954  0.2970
 2040W        W18301   7.088  15.954   3.330 -0.2689  0.2267  0.2828
 2041W        W18302   3.545  17.093   1.641 -0.1864 -0.0174  0.1131
 2042W        W18303  11.849   8.508   0.809 -0.0376  0.1874 -0.3883
 2043W        W18304  19.455   0.872  14.369  0.1074 -0.1667 -0.1618
 2044W        W18305   8.147   7.585   1.730  0.3339 -0.0882  0.0173
 2045W        W18306   0.326  14.407   4.515 -0.1164 -0.0542 -0.0574
 2046W        W18307   3.066   7.472  13.353  0.1831 -0.2924 -0.1011
 2047W        W18308  10.648  15.904  10.638  0.0653 -0.0962 -0.1756
 2048W        W18309   3.361   8.991  11.110 -0.1038  0.2010 -0.1497
 2049W        W18310  13.610   7.858  12.924  0.2249  0.2598 -0.0860
 2050W        W18311   5.317   0.920  14.697 -0.4566 -0.0846  0.0492
 2051W        W18312  15.653  13.290   4.543 -0.0169  0.2528 -0.1736
 2052W        W18313   4.418   1.948   1.363 -0.1697  0.2696  0.1960
 2053W        W18314  18.121  10.666   1.977  0.4178  0.1534  0.3016
 2054W        W18315   2.624   3.650  13.542  0.1068 -0.0149  0.0144
 2055W        W18316   9.036   1.991   2.089  0.2665 -0.0012 -0.2703
 2056W        W18317   9.870  15.039   4.528 -0.1097 -0.1081  0.1541
 2057W        W18318  18.485   4.603   3.245  0.1265 -0.0747  0.1171
 2058W        W18319  19.197  11.005  12.453 -0.0123 -0.0732  0.0822
 2059W        W18320   2.652  14.859  11.374  0.0129  0.0895  0.0583
 2060W        W18321  11.557  11.252   1.436 -0.1020 -0.0573 -0.0939
 2061W        W18322   8.739  17.664   2.503 -0.2287 -0.1229  0.0007
 2062W        W18323  14.816  17.448   2.852 -0.0471 -0.1714 -0.2342
 2063W        W18324   2.164   8.750   0.583  0.1371 -0.0373  0.3735
 2064W        W18325   1.019  15.265   4.157 -0.0589  0.1686  0.0268
 2065W        W18326  11.061  13.979  12.092  0.2451 -0.1911 -0.1399
 2066W        W18327  11.953   9.456  14.222 -0.1078  0.2327 -0.1251
 2067W        W18328  19.174   2.689  10.826  0.1023  0.0970 -0.0259
 2068W        W18329  18.427   8.649  11.344  0.1937  0.0208  0.0840
 2069W        W18330  12.677  14.298  11.336  0.0498  0.1230 -0.0489
 2070W        W18331   2.493   5.881  11.355  0.0492  0.2304 -0.1776
 2071W        W18332   8.407  17.747   2.152  0.1211  0.0272 -0.1446
 2072W        W18333   0.394   0.469   3.547  0.3060  0.0413  0.0327
 2073W        W18334  13.237   8.748  14.203  0.2193 -0.1834  0.0163
 2074W        W18335   9.263   6.493   1.501  0.1938 -0.0601 -0.1615
 2075W        W18336  17.279   5.747   0.930 -0.3168  0.0918  0.1923
 2076W        W18337  14.172  11.548   4.298 -0.3893  0.2832  0.2893
 2077W        W18338   4.331   8.636  12.778 -0.0065  0.1401  0.3637
 2078W        W18339  10.119   5.544  12.314  0.4678  0.0213 -0.0014
 2079W        W18340  19.151   0.594  12.185  0.4572 -0.2216 -0.4643
 2080W        W18341   8.248  12.827  12.547  0.2839 -0.2871  0.1139
 2081W        W18342   9.606  19.426   0.519 -0.1059 -0.1683  0.1054
 2082W        W18343   2.104  17.616   2.355  0.1026 -0.0347  0.2018
 2083W        W18344   1.282   6.263  12.771 -0.1806  0.4004 -0.3635
 2084W        W18345  19.127   2.154   4.492 -0.0494 -0.0125  0.2369
 2085W        W18346  17.416   8.282  13.424  0.0430 -0.1492  0.0007
 2086W        W18347   0.079   6.452  12.596  0.2832 -0.2063  0.3703
 2087W        W18348  10.422  14.828  14.698  0.0073  0.2045  0.0220
 2088W        W18349   8.859   7.989   1.555  0.2648 -0.3724 -0.2251
 2089W        W18350   9.788  12.988   1.938 -0.1426 -0.2802  0.1217
 2090W        W18351   6.482  13.080  11.395 -0.0871 -0.1789 -0.0112
 2091W        W18352   4.531  13.281  11.331  0.1982 -0.2026  0.2939
 2092W        W18353   3.987  12.094  11.931 -0.1282  0.0078 -0.0199
 2093W        W18354  16.887   6.996  13.149  0.3325  0.3515  0.2883
 2094W        W18355  16.456  12.918   4.944  0.0846 -0.0840  0.3239
 2095W        W18356  12.728   8.407  13.495  0.2692  0.0607 -0.0605
 2096W        W18357  16.549  14.856  12.228 -0.1632  0.0265 -0.0517
 2097W        W18358   2.136   8.274   5.363 -0.2773  0.2032  0.0726
 2098W        W18359   4.419  10.108  14.493 -0.0016 -0.0868  0.0909
 2099W        W18360   3.463   9.508   2.469  0.0365  0.2262 -0.2681
 2100W        W18361   9.626  11.052   4.805 -0.0226 -0.2092  0.0415
 2101W        W18362   6.544  19.039   1.020  0.2747 -0.0356 -0.0955
 2102W        W18363  18.702   0.815  12.104 -0.2052  0.0701  0.0826
 2103W        W18364  11.063   3.119  10.342 -0.0152 -0.1391  0.0530
 2104W        W18365  15.394  12.367   4.672 -0.1212  0.2956 -0.2812
 2105W        W18366  10.769   1.818  14.369  0.1640  0.0518  0.1099
 2106W        W18367  15.048   1.151  11.500  0.2323  0.0221 -0.0491
 2107W        W18368  11.708  17.807   5.371  0.0148  0.1443  0.0554
 2108W        W18369   1.018  13.354  11.406  0.0872  0.1193  0.1402
 2109W        W18370   3.180   4.391  12.057  0.0936  0.4662  0.0357
 2110W        W18371   4.201   8.542   4.689  0.0609 -0.2107  0.2404
 2111W        W18372  13.664   3.619  11.484 -0.0987 -0.6815  0.3199
 2112W        W18373  10.731   4.391   1.937  0.0792 -0.2640  0.1000
 2113W        W18374  19.325  11.774  12.416  0.1098 -0.0265  0.3002
 2114W        W18375   9.292   1.080   3.182 -0.2395 -0.2790  0.0549
 2115W        W18376  15.697  16.594   2.693  0.1035 -0.2848 -0.0516
 2116W        W18377  12.172   3.611  11.753  0.0397  0.0637  0.2471
 2117W        W18378  17.987   6.784   2.754 -0.2972  0.1974 -0.2759
 2118W        W18379   5.033   9.663   4.224  0.0882 -0.1045 -0.0329
 2119W        W18380  11.666   5.362   1.404 -0.2844 -0.1627  0.0425
 2120W        W18381   2.859  15.054  12.382  0.1323  0.0521 -0.1272
 2121W        W18382   7.893   6.844   9.437  0.3534 -0.0904 -0.2859
 2122W        W18383  15.285   5.128  11.290  0.3219 -0.1014 -0.0124
 2123W        W18384  10.207   1.650  12.918  0.0601 -0.2920 -0.4847
 2124W        W18385  14.733  16.972   4.163  0.2699  0.4172 -0.1717
 2125W        W18386   8.650   6.083   1.998  0.1211 -0.0427  0.0089
 2126W        W18387   4.428   2.475   9.825 -0.0950 -0.0643  0.0126
 2127W        W18388  13.720  16.576   2.706 -0.1834  0.0727  0.0065
 2128W        W18389  13.591   3.229  11.136 -0.0170 -0.0674  0.0451
 2129W        W18390  11.632   5.257   4.758 -0.1152  0.1209 -0.1943
 2130W        W18391  11.347   5.538  13.587  0.2232 -0.1627 -0.0071
 2131W        W18392   8.048   3.692   3.701  0.1265 -0.1269 -0.0825
 2132W        W18393  10.930  17.510  10.902  0.1597  0.1001 -0.0251
 2133W        W18394  10.239   2.718  10.654  0.0280  0.0067  0.0053
 2134W        W18395  18.757   8.041  10.864 -0.1591  0.0192  0.0554
 2135W        W18396   0.291   2.984   2.163 -0.0608  0.2799  0.0838
 2136W        W18397  11.515  18.141  14.671  0.6266 -0.0312  0.1840
 2137W        W18398  16.914   4.303   0.389  0.1173  0.1402  0.1643
 2138W        W18399  12.611  14.132   4.381  0.2225 -0.2100  0.0409
 2139W        W18400  10.291  14.599  14.023  0.0346 -0.0591 -0.0273
 2140W        W18401   8.954  11.713   0.692  0.0517 -0.0422  0.1720
 2141W        W18402   2.941   8.771   2.737  0.0487 -0.2009  0.0960
 2142W        W18403  18.466  16.150  14.155  0.2144 -0.0681  0.0654
 2143W        W18404   7.696   4.048   1.246  0.0578 -0.0733  0.2224
 2144W        W18405  16.913  11.719  12.891 -0.2656 -0.1613  0.0631
 2145W        W18406   0.923  10.936   5.203 -0.0160  0.0007 -0.1543
 2146W        W18407   8.617  13.635   1.276  0.1501  0.1016  0.0246
 2147W        W18408   7.607  14.227   9.911  0.1886 -0.1251  0.0417
 2148W        W18409   6.322  15.440   5.343  0.2666 -0.3333  0.0554
 2149W        W18410  13.301   5.829   3.113  0.0438 -0.0923 -0.1788
 2150W        W18411  12.286   3.321  14.403 -0.2104  0.1566  0.2181
 2151W        W18412   2.683   9.461   5.550 -0.2971 -0.1795 -0.0303
 2152W        W18413   3.220  10.855  14.653 -0.2299 -0.3095 -0.0489
 2153W        W18414   9.750   6.246   1.789 -0.4381 -0.0779  0.3405
 2154W        W18415   4.343  14.817   1.949 -0.1636 -0.1283  0.0940
 2155W        W18416   3.425  17.534  12.200  0.0177 -0.3640 -0.2137
 2156W        W18417  13.341  15.454  11.118  0.1127 -0.0989 -0.2612
 2157W        W18418  13.317  11.876   5.261 -0.0073 -0.0986  0.1745
 2158W        W18419   4.557   5.594   4.938 -0.1236 -0.1873 -0.1287
 2159W        W18420   6.209  11.175   0.552  0.0723 -0.0692 -0.2526
 2160W        W18421   4.018   1.969  12.432  0.0920  0.0984  0.1893
 2161W        W18422  10.302   6.084   2.977  0.1610  0.3814  0.0062
 2162W        W18423  15.604  12.070  11.456 -0.0100  0.0402 -0.0825
 2163W        W18424   6.163   9.711   2.880  0.3458  0.3044 -0.1286
 2164W        W18425  17.265   8.102  13.919  0.0515 -0.0512  0.0527
 2165W        W18426  18.891   2.793   4.911 -0.2025 -0.1443 -0.0913
 2166W        W18427  12.757   1.668   2.598  0.1089 -0.1285 -0.1422
 2167W        W18428  16.745  17.797  10.711  0.1678  0.1715 -0.0865
 2168W        W18429   8.480  17.767   3.626  0.1804  0.0465 -0.2664
 2169W        W18430  16.093   8.222   1.750 -0.0099  0.1223  0.2874
 2170W        W18431  14.099  14.016   1.312  0.0919  0.0044  0.0059
 2171W        W18432  15.481  18.418  13.735  0.0872 -0.1315  0.0684
 2172W        W18433  12.586   3.365  13.925  0.0552  0.1102  0.1325
 2173W        W18434  16.705  15.176  13.347  0.1341  0.0532 -0.3551
 2174W        W18435   3.927  18.950   1.060  0.2606  0.2271 -0.1931
 2175W        W18436  17.107  18.167  14.503 -0.0881 -0.3158 -0.2575
 2176W        W18437   1.930   1.027  13.292  0.0546  0.0153 -0.4052
 2177W        W18438   0.685  11.288   1.167 -0.2109  0.0052  0.1085
 2178W        W18439  16.617  15.213   1.274 -0.0681  0.0922  0.0381
 2179W        W18440   3.772  14.969  13.648 -0.3356  0.2682  0.3338
 2180W        W18441   3.438   3.816  12.812  0.2449 -0.0304 -0.1446
 2181W        W18442   1.206  10.389  14.013 -0.1377 -0.0432 -0.2784
 2182W        W18443  18.943   4.562  13.696 -0.1355  0.4481  0.3654
 2183W        W18444  16.434  11.880   3.224 -0.4376  0.0888  0.0871
 2184W        W18445  18.556   3.958  11.645 -0.0644 -0.1297 -0.0864
 2185W        W18446  13.941   4.234  10.513 -0.3061 -0.0073 -0.1027
 2186W        W18447  16.702  14.263  11.702  0.1067 -0.0441 -0.0530
 2187W        W18448   4.939  15.028   4.348  0.1568  0.2244  0.0513
 2188W        W18449  14.723   1.683   5.745  0.4125 -0.2716 -0.1907
 2189W        W18450  11.143   0.878   0.059  0.2603  0.3290  0.1998
 2190W        W18451  19.361  11.305  13.045 -0.0496 -0.0528  0.1287
 2191W        W18452  15.540  16.117   0.250 -0.0114 -0.2177  0.2155
 2192W        W18453  12.445   5.923   2.548  0.0247 -0.0119  0.0870
 2193W        W18454   1.044   9.199  14.163  0.2237 -0.0300 -0.0030
 2194W        W18455   9.387  16.240  13.623 -0.1595  0.2124 -0.1595
 2195W        W18456  19.018   7.206  14.076 -0.0845 -0.1779  0.1226
 2196W        W18457  15.179  14.027   9.650 -0.0640  0.2034  0.0551
 2197W        W18458   6.904   8.048   0.110  0.0670  0.1292  0.0374
 2198W        W18459  18.767   8.855   1.862 -0.1936 -0.1486  0.3199
 2199W        W18460   5.185  18.932   0.744 -0.3538 -0.0598  0.3821
 2200W        W18461  11.080   8.999   2.211  0.0848  0.0174 -0.1113
 2201W        W18462   0.990   3.654  11.086 -0.1042  0.1728  0.2311
 2202W        W18463  19.047  14.585   4.729 -0.0949 -0.0405 -0.2379
 2203W        W18464  15.167  17.351   1.232 -0.1356 -0.0888  0.1306
 2204W        W18465   9.255  14.973   5.178  0.0918  0.0606  0.1364
 2205W        W18466  10.763   0.615   5.248 -0.0841  0.1070  0.0850
 2206W        W18467   3.718   8.187   3.370  0.0146  0.3548  0.1242
 2207W        W18468  10.806  13.173   3.326  0.2476 -0.0250 -0.2828
 2208W        W18469  13.946  13.492   0.187 -0.1745  0.0375  0.1954
 2209W        W18470  17.873  12.079  11.983  0.0350 -0.0864 -0.1992
 2210W        W18471   9.925   2.130   0.272  0.2590  0.1825  0.0944
 2211W        W18472  13.348  10.568   4.732  0.1608 -0.0135  0.1429
 2212W        W18473   4.354   5.492   1.584 -0.2621 -0.2962 -0.0797
 2213W        W18474  15.544   9.776   3.140  0.0344 -0.1257 -0.1671
 2214W        W18475   7.786   5.388   1.934 -0.1224 -0.1291 -0.1514
 2215W        W18476   2.498   7.607  14.675  0.1201  0.2392  0.0875
 2216W        W18477   5.719  14.393   5.443  0.0228 -0.0946 -0.1745
 2217W        W18478   9.883  15.838  14.394  0.1182  0.1524 -0.0019
 2218W        W18479   1.300  10.387   5.184  0.0812  0.0803  0.1551
 2219W        W18480   1.126   3.191   2.734  0.1058  0.2245  0.1367
 2220W        W18481   6.489   0.848   1.767  0.2489  0.2563 -0.0812
 2221W        W18482   7.589  10.088  10.180 -0.0176  0.0300  0.0904
 2222W        W18483  18.794   3.008  12.995 -0.1416  0.3185  0.0560
 2223W        W18484   1.177  11.104  10.504 -0.3549 -0.4700  0.1418
 2224W        W18485   3.081  12.534  13.519  0.1812  0.2227  0.1386
 2225W        W18486   2.480   5.102   1.363 -0.1658 -0.0291 -0.0103
 2226W        W18487   6.469  14.339   0.509 -0.1100 -0.1571 -0.0072
 2227W        W18488  10.467   6.421   3.354 -0.1061  0.0135  0.0688
 2228W        W18489  12.876   1.085   4.346  0.1827  0.2064  0.2839
 2229W        W18490   2.652  15.190  12.965  0.0508 -0.1029 -0.0285
 2230W        W18491  13.069   0.563  13.578  0.0626  0.1044 -0.0177
 2231W        W18492  12.593   5.843   5.173  0.1014 -0.2701  0.2001
 2232W        W18493   6.581  13.658  12.206  0.0041 -0.0159  0.1019
 2233W        W18494   1.121   7.831  11.735 -0.2742  0.2032 -0.1821
 2234W        W18495  18.160  11.196   1.912  0.1693 -0.0103 -0.1132
 2235W        W18496  10.923   9.915   4.487  0.0357  0.0403  0.1732
 2236W        W18497   0.996   5.357  13.622 -0.1368  0.0150 -0.0749
 2237W        W18498  12.231   7.094   1.046 -0.2464  0.0599  0.0778
 2238W        W18499  15.304   7.954  14.036 -0.2013  0.1958 -0.1008
 2239W        W18500  13.100   7.496  14.674  0.1371 -0.2913 -0.3142
 2240W        W18501   8.118   6.095   9.776 -0.0884 -0.3724 -0.1866
 2241W        W18502  17.557   0.687  12.750  0.1245  0.0780  0.4425
 2242W        W18503   7.817  11.641   0.480 -0.3299  0.0624  0.0927
 2243W        W18504  16.837   0.624  10.458 -0.0830  0.1273 -0.3948
 2244W        W18505  12.947  14.533   5.808  0.0962 -0.2786  0.2515
 2245W        W18506   3.795   9.192  10.419  0.0830 -0.0140  0.1896
 2246W        W18507   5.139   8.549   2.184 -0.0420  0.3100  0.0502
 2247W        W18508  13.716   8.328   2.100 -0.2203 -0.1759 -0.3914
 2248W        W18509   4.027  10.151  12.395  0.1669 -0.1648  0.0459
 2249W        W18510  11.550   3.197   0.411 -0.2908  0.0103  0.1362
 2250W        W18511   8.872  12.081   4.270 -0.0854  0.2695 -0.1127
 2251W        W18512   7.798   3.896  14.549  0.1020  0.0823  0.0632
 2252W        W18513   7.695   9.565   2.912  0.0188 -0.0157 -0.1419
 2253W        W18514   6.947  11.101  11.711 -0.2541 -0.2479  0.0459
 2254W        W18515  10.058   7.522   0.626  0.2611  0.1250  0.3111
 2255W        W18516   2.509  14.079   4.937  0.2859 -0.0389 -0.1539
 2256W        W18517   2.834   4.832  14.123 -0.3369  0.1930  0.0483
 2257W        W18518  15.855  15.816  12.531  0.0702 -0.1043 -0.2533
 2258W        W18519  14.232   0.378  11.652 -0.0897 -0.0262 -0.1103
 2259W        W18520   9.616  15.017  10.880 -0.1176 -0.3081 -0.1019
 2260W        W18521   3.638  19.312  14.132 -0.3713 -0.0197 -0.0901
 2261W        W18522  15.635  10.641   1.511  0.0579  0.2844 -0.5083
 2262W        W18523   0.477  15.545  11.292  0.2091  0.0417 -0.1827
 2263W        W18524   5.853   9.050  11.887  0.0292  0.2173 -0.1792
 2264W        W18525   8.560   1.781   0.271 -0.0685  0.0625  0.1501
 2265W        W18526  18.283   7.298   3.403 -0.1154 -0.1899  0.2444
 2266W        W18527  14.443   0.363  11.177 -0.5740 -0.0719 -0.0491
 2267W        W18528  16.532  19.195   0.021  0.2315  0.1241  0.1227
 2268W        W18529  16.554   4.147   5.323  0.1790  0.2041 -0.0726
 2269W        W18530  15.928   3.913  11.489 -0.1804  0.1004  0.4059
 2270W        W18531   6.933  15.913  11.125 -0.0045 -0.0730  0.0708
 2271W        W18532   2.103  12.305   5.814  0.1792  0.0466 -0.0335
 2272W        W18533  10.746  14.303   4.434 -0.1618  0.2428 -0.1860
 2273W        W18534   7.608   0.742  12.924 -0.2521 -0.3629 -0.1166
 2274W        W18535   8.122   0.386   1.466 -0.1685 -0.4473 -0.2599
 2275W        W18536   5.248  13.826   3.327 -0.1236 -0.1517  0.0035
 2276W        W18537   0.086   0.360   4.748 -0.0669  0.1034 -0.3602
 2277W        W18538  18.668   0.572   5.392  0.0896  0.0012  0.2195
 2278W        W18539  11.553   5.695   5.073  0.0103  0.3920  0.2957
 2279W        W18540  12.257  10.032   3.486 -0.0066 -0.0355  0.0786
 2280W        W18541   5.930  11.969   0.937  0.3069 -0.2411 -0.0773
 2281W        W18542  15.988   8.124   5.107  0.0071  0.1918  0.2421
 2282W        W18543  18.263   4.135   0.955  0.0384 -0.0322 -0.0680
 2283W        W18544  15.013   0.625  13.657  0.1846 -0.2653 -0.1659
 2284W        W18545   5.621   1.360  13.104 -0.1464 -0.1392 -0.1766
 2285W        W18546   0.898   8.277  11.589 -0.1002 -0.2061  0.1030
 2286W        W18547   8.318  16.485   4.253 -0.1617 -0.4706  0.1430
 2287W        W18548  12.176  17.715   4.003  0.0337 -0.3460 -0.1206
 2288W        W18549  18.435  12.996   4.013  0.1432 -0.2391  0.1940
 2289W        W18550   9.359  17.830   2.873  0.2822  0.0635  0.0275
 2290W        W18551   7.392  16.773  13.557 -0.0435 -0.1934  0.1001
 2291W        W18552   9.412  14.382   1.785  0.5015 -0.0600  0.1472
 2292W        W18553  19.083   4.094   3.282  0.4156  0.1185  0.0879
 2293W        W18554   6.201   4.013  14.161  0.2361 -0.3066  0.1057
 2294W        W18555  19.339   0.385  14.795  0.0220  0.0740  0.0398
 2295W        W18556   9.640   0.750  12.301  0.0272 -0.1459  0.1504
 2296W        W18557  18.334   5.716   1.096 -0.1833  0.0213 -0.4251
 2297W        W18558   9.048  19.332  12.785  0.0097 -0.2354  0.0503
 2298W        W18559   6.976  14.672   0.705  0.0449  0.4037  0.0351
 2299W        W18560   9.466   1.045   0.906 -0.1258  0.2382  0.0755
 2300W        W18561   9.322   6.991   0.735  0.5072 -0.0607 -0.1055
 2301W        W18562  19.281  13.683   4.151  0.2832 -0.1162  0.1376
 2302W        W18563  18.205   6.731  12.774 -0.1488  0.0251 -0.0199
 2303W        W18564  18.352  11.889   1.263 -0.2075 -0.3103  0.2193
 2304W        W18565   7.302   2.881   1.683  0.0931 -0.1971  0.1308
 2305W        W18566   2.814  12.602   1.633 -0.0625 -0.0664  0.0654
 2306W        W18567  11.032  12.728   4.085  0.1184 -0.4839 -0.0191
 2307W        W18568   3.396   3.291   4.148  0.1934 -0.0374  0.1553
 2308W        W18569  19.480   3.195  13.730  0.1852  0.2324  0.3647
 2309W        W18570   4.281  14.755   2.762 -0.0429  0.1838 -0.0175
 2310W        W18571   5.302  17.618   5.584  0.2925  0.1131 -0.0185
 2311W        W18572  18.034  19.128  12.675 -0.3134 -0.1649  0.1651
 2312W        W18573  14.892   6.455  12.696 -0.2072 -0.3645  0.1655
 2313W        W18574  10.836   9.656  12.363 -0.0062 -0.0109 -0.2909
 2314W        W18575  11.292   6.162  12.852  0.2223  0.4039  0.0012
 2315W        W18576   0.789  10.756   3.526  0.2241 -0.0441  0.2524
 2316W        W18577  18.699   5.600  13.461  0.2060 -0.0771 -0.4674
 2317W        W18578   0.192  13.639   1.888  0.0423  0.2088  0.1354
 2318W        W18579   1.672   2.607   4.252 -0.3002 -0.1864 -0.3260
 2319W        W18580  10.435   4.215  13.295  0.0546  0.2064 -0.0878
 2320W        W18581   3.481  11.979   4.583  0.2316  0.2551  0.1724
 2321W        W18582   1.594   3.883   1.122  0.1060  0.0540  0.0475
 2322W        W18583   0.198  15.082   0.148 -0.3385 -0.1239  0.1116
 2323W        W18584  17.928  10.221  13.559  0.0961  0.2079  0.3004
 2324W        W18585   7.319   2.341   3.804  0.2187  0.2369  0.0811
 2325W        W18586  10.535   1.802   2.172  0.1989  0.1057 -0.0783
 2326W        W18587  11.260  11.769  11.244  0.0624  0.0262  0.1479
 2327W        W18588   5.927   1.086  13.323  0.2308  0.1740  0.1813
 2328W        W18589   7.365   9.461   1.395  0.0359  0.2893 -0.2685
 2329W        W18590  19.317   4.269  13.899 -0.0330 -0.0473 -0.2099
 2330W        W18591   1.645  10.600   4.223  0.1407 -0.1556 -0.1687
 2331W        W18592  12.748  18.941   2.424 -0.0397 -0.0601 -0.1888
 2332W        W18593   8.163   4.679  14.604  0.1614 -0.0100 -0.2507
 2333W        W18594   4.711   4.551   9.777  0.2247 -0.1417 -0.2124
 2334W        W18595   7.995   2.347  12.096 -0.3936  0.1170  0.1292
 2335W        W18596  11.771  15.263   9.623 -0.0313  0.1151 -0.2164
 2336W        W18597  17.873  16.673   2.206  0.0414  0.0965  0.4002
 2337W        W18598  16.760   3.870  13.590  0.0653 -0.0381 -0.1292
 2338W        W18599   2.051   4.519   2.871  0.1634  0.1799  0.0031
 2339W        W18600   0.773   9.327   2.290 -0.2420 -0.1958 -0.2693
 2340W        W18601   9.750   1.930  10.723  0.1191  0.1130 -0.0647
 2341W        W18602  13.864   2.835  11.411 -0.2982 -0.1162  0.0022
 2342W        W18603   9.775  14.085   2.755  0.2099 -0.1505 -0.2186
 2343W        W18604   4.499  17.156   3.175 -0.0531 -0.1509 -0.0171
 2344W        W18605   1.958  10.938  14.677  0.0980  0.5118  0.0455
 2345W        W18606  12.999   1.398  10.730 -0.0336 -0.2378  0.0916
 2346W        W18607   1.989   5.659  11.498  0.0824 -0.3684  0.2845
 2347W        W18608   8.472   1.567  14.197 -0.2135  0.0736 -0.0297
 2348W        W18609   5.918   6.813  12.309  0.1272  0.0200  0.1328
 2349W        W18610  11.054  14.087   4.930 -0.1168  0.1384 -0.3038
 2350W        W18611  14.198   9.736  10.319  0.0313  0.0986 -0.2502
 2351W        W18612  11.228   0.096   0.048 -0.1358  0.0349  0.0178
 2352W        W18613   9.927  13.471  11.875 -0.2011 -0.0813 -0.0450
 2353W        W18614  11.481  16.208  10.315  0.2646  0.2255 -0.6148
 2354W        W18615  16.243  13.855  14.048  0.0802  0.0672  0.1081
 2355W        W18616  11.375  19.166   4.097 -0.0614 -0.2651 -0.5019
 2356W        W18617   2.733  17.024   3.473  0.0299  0.0997  0.0258
 2357W        W18618   8.487  15.906  14.048 -0.2103  0.0004  0.1142
 2358W        W18619  11.349   2.575   1.016  0.1830  0.5160 -0.2578
 2359W        W18620  17.596   9.261  11.439 -0.2400  0.2912 -0.1436
 2360W        W18621  13.534   0.473  14.359  0.1687 -0.1077  0.1005
 2361W        W18622  19.410   1.487  13.038 -0.1561 -0.2185  0.1210
 2362W        W18623   4.456   1.746   1.886  0.0484  0.0891  0.0825
 2363W        W18624  18.570   6.540   0.861 -0.2151  0.0020 -0.0779
 2364W        W18625   5.301  16.653  14.093  0.2778 -0.2240  0.2144
 2365W        W18626  18.900  11.087   3.055 -0.0970 -0.1115  0.1593
 2366W        W18627   0.552   9.717   3.792 -0.1378 -0.3768  0.0885
 2367W        W18628   8.612   3.024   3.994 -0.0353 -0.2739 -0.1014
 2368W        W18629   2.610   9.019   5.296 -0.2050  0.1562 -0.0885
 2369W        W18630  14.971   2.126   1.553  0.1192  0.0907 -0.1003
 2370W        W18631  12.038  11.042  12.927  0.0661  0.3640 -0.2813
 2371W        W18632   6.044   3.634   9.396  0.1589  0.0256  0.1056
 2372W        W18633  12.978   2.066  14.258  0.2573 -0.1661 -0.2576
 2373W        W18634  12.848   2.788  13.131  0.1451  0.1851 -0.0805
 2374W        W18635  14.619   3.110   0.660  0.1244 -0.0992 -0.0349
 2375W        W18636   7.977   7.708   3.481 -0.0015  0.1165 -0.0503
 2376W        W18637  16.534   8.180  14.094  0.2403  0.1362  0.0082
 2377W        W18638   1.236  17.931   0.063  0.3326 -0.3103 -0.0757
 2378W        W18639  19.188  11.298   1.003 -0.0028 -0.0536  0.2000
 2379W        W18640  12.131  15.518   4.442 -0.0219 -0.2837 -0.0094
 2380W        W18641  14.295  17.388   1.587 -0.0752 -0.0774  0.0681
 2381W        W18642   7.394   3.469  13.844  0.0555  0.0694  0.4256
 2382W        W18643  12.064  18.877   0.974  0.1664 -0.0705 -0.2135
 2383W        W18644  14.089  11.088   3.124 -0.1477 -0.0725 -0.0482
 2384W        W18645  15.076   6.885   1.542  0.1751  0.0170  0.1519
 2385W        W18646  17.522   5.265   1.008 -0.1727 -0.1318  0.1386
 2386W        W18647   0.402  12.724   1.417 -0.1545 -0.3908  0.2097
 2387W        W18648  10.574   0.635   4.502 -0.1842  0.0834 -0.0476
 2388W        W18649   6.609  10.359  10.432 -0.0311  0.0679  0.2213
 2389W        W18650  12.781  11.237  12.843 -0.1226 -0.0325  0.1948
 2390W        W18651   2.678   0.348   1.952 -0.1567 -0.0359  0.3425
 2391W        W18652  18.188   6.932   3.763  0.1721 -0.2936 -0.2931
 2392W        W18653  18.720  10.965   4.824  0.0772 -0.3030  0.0342
 2393W        W18654   4.107  10.534   3.286 -0.0496 -0.4343 -0.1694
 2394W        W18655  14.385  18.356  11.307 -0.1648  0.2164 -0.2527
 2395W        W18656   9.197  13.310   4.880  0.1486 -0.1108  0.2949
 2396W        W18657   2.354   6.204   4.284  0.0699 -0.0082  0.1596
 2397W        W18658  13.022   0.323  14.671  0.2287  0.0705 -0.4987
 2398W        W18659   8.360  16.629  13.338  0.1632  0.0605  0.1709
 2399W        W18660   6.396  10.348   0.739 -0.0221 -0.1009  0.0687
 2400W        W18661   3.012  10.512   0.809 -0.1284 -0.1592 -0.1715
 2401W        W18662   9.617   0.698  14.089 -0.1385  0.0380 -0.1862
 2402W        W18663  13.853   1.222   0.434 -0.0540  0.0045  0.0571
 2403W        W18664  13.964  13.432   5.729 -0.2590 -0.0914 -0.1867
 2404W        W18665   3.181  15.949  14.556  0.1214 -0.0690  0.4390
 2405W        W18666  18.871   8.891  11.413 -0.1711  0.0548  0.1401
 2406W        W18667   1.027  10.079   2.488 -0.0634 -0.2036  0.3308
 2407W        W18668   0.081   8.244   4.286  0.2946  0.0280  0.0294
 2408W        W18669   0.633   6.907   2.072 -0.1315 -0.2234  0.2675
 2409W        W18670  17.686  17.412   1.114  0.0540  0.1729 -0.2804
 2410W        W18671   9.327   1.599  13.000  0.0655  0.1224 -0.0193
 2411W        W18672  14.498  16.247  11.473  0.1402 -0.2155 -0.1381
 2412W        W18673   9.176  16.494   3.882 -0.0481 -0.3613  0.1897
 2413W        W18674   3.483  14.940   0.776  0.2334  0.4435  0.2381
 2414W        W18675   4.296   1.112  14.765 -0.0126 -0.0151 -0.0092
 2415W        W18676  13.778  18.089   0.672  0.1896  0.1328  0.3794
 2416W        W18677  12.746   9.374  13.505 -0.0277 -0.0783  0.0404
 2417W        W18678  19.246  12.591  12.577 -0.1725  0.0298 -0.2138
 2418W        W18679  12.896  10.611   3.911  0.2797  0.0604 -0.2297
 2419W        W18680   2.825   2.770   4.940  0.2661  0.2179  0.3066
 2420W        W18681  18.089   9.005  11.104 -0.0242 -0.2952 -0.1694
 2421W        W18682  17.574  12.055   0.194  0.5392  0.1662 -0.0230
 2422W        W18683  11.277   3.127   4.420 -0.0689 -0.2174 -0.0233
 2423W        W18684  14.596  12.514   4.108 -0.1419  0.0618 -0.0059
 2424W        W18685   7.528  18.260   3.708 -0.2295 -0.0236 -0.0662
 2425W        W18686  11.419  18.087  10.005 -0.3716 -0.0426  0.1770
 2426W        W18687   6.470   0.153  12.454 -0.1548 -0.1238 -0.0573
 2427W        W18688   0.928  19.341  12.530 -0.3547 -0.2390  0.3172
 2428W        W18689  19.284  15.760   1.421  0.0160  0.0425  0.1557
 2429W        W18690  12.684   4.126  11.626 -0.0757 -0.0208 -0.1251
 2430W        W18691  18.152   0.051   0.130 -0.0102  0.0066 -0.1631
 2431W        W18692  12.783  17.582   2.384  0.2458  0.0077  0.0064
 2432W        W18693   7.535   1.143  11.398  0.1485 -0.5556 -0.3087
 2433W        W18694  16.504   7.403  12.384 -0.5205 -0.0651 -0.4936
 2434W        W18695  16.638   7.812  12.677 -0.0804  0.4166 -0.2524
 2435W        W18696   9.832   8.796  14.540  0.3319 -0.0398 -0.0788
 2436W        W18697   4.514   7.656   0.806 -0.0959 -0.1936 -0.1218
 2437W        W18698  13.609  10.970   3.832  0.1438  0.1426  0.0535
 2438W        W18699   5.687  15.876   5.695 -0.0890 -0.2043  0.1452
 2439W        W18700  11.696   1.941   9.337 -0.0196 -0.0788  0.2051
 2440W        W18701  14.791  10.811   5.266  0.1389 -0.1757  0.2460
 2441W        W18702  13.333  16.932   3.225  0.1909  0.0008  0.1266
 2442W        W18703  12.450  12.497  13.624  0.1233  0.3598  0.0479
 2443W        W18704  14.188   9.129   2.818 -0.0415  0.3741 -0.1768
 2444W        W18705  12.112  16.393   4.381  0.0689 -0.2268  0.0536
 2445W        W18706  12.369   4.245   2.053  0.2627  0.3053 -0.1235
 2446W        W18707   6.362   9.624   2.438  0.0689 -0.2825 -0.0370
 2447W        W18708   5.743   8.738   0.143  0.0650  0.0213 -0.1902
 2448W        W18709  17.398   3.664  10.191 -0.3777  0.1431  0.0375
 2449W        W18710   4.785   8.685  13.389  0.1617 -0.1362  0.2161
 2450W        W18711   7.140  14.378   2.667 -0.1665 -0.1318  0.2533
 2451W        W18712  13.739   3.002  12.892 -0.3600 -0.0387  0.1615
 2452W        W18713  15.377   0.857   5.944  0.1162 -0.0682  0.1526
 2453W        W18714   9.562   2.283  12.632 -0.0142  0.2848  0.0003
 2454W        W18715   7.296   9.682  12.573  0.0053 -0.1541  0.0618
 2455W        W18716   4.492   4.083  13.840  0.2092 -0.1102  0.1146
 2456W        W18717   6.072   2.295  13.053 -0.2558 -0.2184  0.0719
 2457W        W18718  13.493  19.308  11.898  0.0984 -0.0885  0.0196
 2458W        W18719   5.421   8.547   1.252 -0.1120 -0.2775  0.1632
 2459W        W18720  12.187  14.168   1.301 -0.3862  0.0008 -0.1456
 2460W        W18721  13.452  13.926  12.217  0.1794  0.1674 -0.0255
 2461W        W18722  17.493  15.203  11.767  0.0414 -0.4520  0.4778
 2462W        W18723   2.019   0.806   3.438  0.2640 -0.2340 -0.1270
 2463W        W18724  18.636  11.685  14.753 -0.0660  0.0425 -0.0505
 2464W        W18725   2.084   3.426   4.110 -0.0631 -0.0778 -0.0067
 2465W        W18726  15.948  12.781   5.252  0.1121 -0.1653 -0.1301
 2466W        W18727  14.140  12.090   4.068  0.2862  0.1037  0.0923
 2467W        W18728   4.199  16.684   1.004  0.0718  0.3595  0.4464
 2468W        W18729  14.176   9.899   3.524 -0.1996 -0.0841 -0.2077
 2469W        W18730  16.211   8.668   1.498  0.0757  0.3308  0.0085
 2470W        W18731   0.493   1.585  14.508  0.0402  0.0693 -0.2741
 2471W        W18732   9.405  11.849   5.314  0.3612  0.0811 -0.1037
 2472W        W18733  15.881   6.752  11.713  0.0456 -0.4232 -0.3078
 2473W        W18734  13.405   1.905   0.815 -0.0432  0.2414  0.4315
 2474W        W18735   2.797   7.720  14.313  0.0696 -0.1903 -0.1598
 2475W        W18736  18.914   3.461   3.398  0.1121  0.3359  0.0989
 2476W        W18737   7.102   4.929  11.689  0.2011  0.1924  0.0388
 2477W        W18738  14.139   3.277   3.552  0.0001  0.1274 -0.1188
 2478W        W18739   2.654   2.207   0.661  0.1384 -0.3001  0.1597
 2479W        W18740   5.260  11.962   3.105  0.2273  0.3700 -0.0738
 2480W        W18741   8.214   7.543   4.299 -0.1527  0.1520  0.0007
 2481W        W18742  17.437   3.068   4.576 -0.3281 -0.0801 -0.0727
 2482W        W18743  10.723   7.752   3.834 -0.0631  0.1076 -0.0487
 2483W        W18744   8.642  16.946   4.265  0.4366 -0.4132 -0.1490
 2484W        W18745   1.012  11.402   0.824  0.1807  0.2795  0.1429
 2485W        W18746  12.548  16.224   4.170 -0.0894 -0.0507 -0.1673
 2486W        W18747   8.328  12.154   4.050 -0.0446  0.1724 -0.1891
 2487W        W18748  10.164  17.870   1.973  0.1472  0.3030 -0.1555
 2488W        W18749  16.553  14.037   1.954 -0.2172 -0.1435  0.1416
 2489W        W18750   6.066   5.692  11.497 -0.1000  0.0524  0.2963
 2490W        W18751  12.414  18.401  10.850  0.1049 -0.3536  0.0453
 2491W        W18752   1.430  17.840  10.388 -0.0180 -0.0718 -0.0813
 2492W        W18753  19.216   8.271   0.376 -0.1387  0.0002  0.1222
 2493W        W18754   3.635   5.194  10.854  0.0447  0.5334 -0.0741
 2494W        W18755   3.512   8.394   1.581  0.0378 -0.4163 -0.0390
 2495W        W18756   3.543   2.142   2.957  0.0423 -0.1272 -0.1624
 2496W        W18757   6.533  12.089   0.356 -0.5118  0.0074 -0.1476
 2497W        W18758  13.176  11.672   1.822 -0.1253 -0.0497  0.0162
 2498W        W18759  12.503  17.548   0.085  0.0933  0.1173 -0.0466
 2499W        W18760   0.316  11.460  10.785  0.0058 -0.1098  0.1346
 2500W        W18761   5.301   6.246   2.513 -0.1861  0.1413  0.1299
 2501W        W18762  19.223   6.689   4.555 -0.0821 -0.1053  0.0673
 2502W        W18763  14.999   2.306  10.844  0.3982 -0.2275  0.2003
 2503W        W18764  17.493   1.262   0.976 -0.1921  0.0927 -0.1019
 2504W        W18765   7.706  16.946   4.664  0.0315  0.0280 -0.3097
 2505W        W18766   7.582  14.641   1.755  0.1091  0.1089  0.0055
 2506W        W18767  14.594   6.191  11.362  0.0279 -0.0378 -0.1683
 2507W        W18768   3.921  10.247  11.566 -0.0085  0.2711 -0.0580
 2508W        W18769   4.192  17.735   2.864  0.0066  0.1476  0.0020
 2509W        W18770   1.772  13.386  12.840  0.0730 -0.2418  0.3534
 2510W        W18771   9.956  18.202   3.637 -0.0014 -0.2623  0.1572
 2511W        W18772  10.850  17.846   3.812 -0.0811  0.2162  0.0503
 2512W        W18773  17.886   9.771  12.442 -0.2642  0.1436  0.0702
 2513W        W18774  13.046  13.587  14.065  0.0311 -0.2569  0.0944
 2514W        W18775   6.379   7.463  13.881 -0.2512  0.2877  0.0904
 2515W        W18776  12.680  11.323   1.984 -0.1697  0.3392 -0.0359
 2516W        W18777   6.156  17.851  12.858  0.2542  0.0183  0.3145
 2517W        W18778   5.828  13.576  12.706  0.0036  0.1768 -0.0277
 2518W        W18779  12.596   3.079   4.270 -0.0246 -0.1016 -0.1152
 2519W        W18780   4.902  10.765   3.734  0.2928 -0.0585  0.1519
 2520W        W18781  10.694  15.098   1.426 -0.1235 -0.1611 -0.0527
 2521W        W18782   0.555   4.896  14.342 -0.2415 -0.1501  0.2699
 2522W        W18783   3.582  14.191   2.640  0.1913 -0.3692 -0.1232
 2523W        W18784   2.645   1.272   2.134 -0.2651 -0.2566  0.4250
 2524W        W18785  18.031   1.926  14.085 -0.2210  0.0259  0.4058
 2525W        W18786   6.348   7.663  10.593 -0.1354 -0.3520 -0.2289
 2526W        W18787  11.970   4.252  14.224 -0.1256  0.1230  0.0235
 2527W        W18788   7.842   6.097   0.233 -0.3285  0.0549  0.0584
 2528W        W18789  11.604  15.587   3.400 -0.4412  0.2251  0.3861
 2529W        W18790  10.073   2.013   0.855 -0.1841 -0.0250 -0.3710
 2530W        W18791   5.177  17.538  11.731  0.2854  0.2332 -0.0750
 2531W        W18792  16.481  10.410   4.529 -0.0756  0.1578  0.0441
 2532W        W18793  14.378   4.119   3.993 -0.0931 -0.0483  0.1566
 2533W        W18794  15.425  13.649  13.734 -0.2077  0.0059 -0.0872
 2534W        W18795   5.446   9.094   2.399 -0.1341 -0.2318 -0.3532
 2535W        W18796  16.092  12.925   3.144 -0.0285  0.1584 -0.4250
 2536W        W18797  15.023   0.597   0.816 -0.0451 -0.1161  0.0077
 2537W        W18798  10.462  16.006   4.383 -0.0188  0.3119  0.0094
 2538W        W18799  12.965   0.376  10.784 -0.2514 -0.1008  0.5142
 2539W        W18800  11.645  13.100   0.517 -0.2823  0.1312  0.0957
 2540W        W18801  13.449  13.348   3.673 -0.1308 -0.0019 -0.3929
 2541W        W18802  16.884   0.668   1.648 -0.1364  0.0648  0.0404
 2542W        W18803  14.782  18.846   4.397  0.1117 -0.0072 -0.1233
 2543W        W18804  12.498  16.380   2.034 -0.1080  0.1515 -0.5012
 2544W        W18805  12.290   2.924   3.576  0.3212  0.0673  0.0783
 2545W        W18806  11.497   7.339   3.174  0.2302  0.1849  0.1690
 2546W        W18807   5.706  13.000  14.423  0.0676 -0.1312  0.0749
 2547W        W18808   7.467  17.516  11.602  0.1247  0.1879  0.1652
 2548W        W18809   4.748  16.585   3.852  0.0188 -0.2875 -0.1097
 2549W        W18810  13.121  15.208  14.732 -0.2647 -0.0122 -0.1873
 2550W        W18811   6.233   5.856  12.926 -0.2409  0.0116 -0.0245
 2551W        W18812   2.217   4.165  11.112  0.0601 -0.0622  0.0566
 2552W        W18813  13.908  12.215  13.588 -0.1810  0.0521 -0.2214
 2553W        W18814   7.583   5.190  10.492 -0.0549 -0.0272 -0.1747
 2554W        W18815   6.964  11.882   0.579 -0.1093  0.1459  0.2272
 2555W        W18816  17.848   3.584  11.534 -0.3096 -0.0030  0.1305
 2556W        W18817  17.191  18.660   0.012 -0.1129 -0.0478  0.1600
 2557W        W18818   0.061   2.742  13.466 -0.0732 -0.1285 -0.2295
 2558W        W18819  12.669   5.443  11.970 -0.2501  0.0980 -0.5003
 2559W        W18820   3.893  13.039   2.136 -0.1102 -0.1613  0.0707
 2560W        W18821  16.282  18.706   4.108  0.1455  0.0709  0.2611
 2561W        W18822   8.811  15.743  10.846  0.0682  0.2525  0.4088
 2562W        W18823  10.876  16.107  11.035 -0.1894  0.2931 -0.0988
 2563W        W18824   7.551  19.400  11.880 -0.4009  0.1842  0.0992
 2564W        W18825  18.724  16.709   5.514  0.1118  0.1367  0.1168
 2565W        W18826   0.150   1.865  13.538  0.1750 -0.2519  0.0888
 2566W        W18827  12.785   8.463  10.752 -0.0038  0.1223 -0.0917
 2567W        W18828   1.140  14.459   3.042  0.2617 -0.1444 -0.1296
 2568W        W18829   3.321   7.906   1.253  0.1562  0.1392  0.0810
 2569W        W18830   6.785   2.744   0.458 -0.0099  0.1479  0.1268
 2570W        W18831  10.528  17.748   2.788  0.0240 -0.0408 -0.0550
 2571W        W18832  12.676  12.476  13.177 -0.0715 -0.3726  0.1568
 2572W        W18833   0.985   1.662  12.217 -0.2809  0.2595  0.3196
 2573W        W18834  10.901   3.406   4.223 -0.1630 -0.2354  0.0434
 2574W        W18835   0.595   4.390   1.190 -0.0999  0.0155  0.0095
 2575W        W18836  12.532   9.725  13.187 -0.0549 -0.0012  0.2673
 2576W        W18837  15.528   1.730   3.807 -0.0479 -0.2795  0.1215
 2577W        W18838   3.774   7.564  13.401  0.0038  0.3151  0.0763
 2578W        W18839   1.571  15.915   0.325  0.0697 -0.0736  0.1606
 2579W        W18840   3.150  13.611  13.842 -0.1184 -0.0622 -0.0833
 2580W        W18841  13.989  11.760  14.594 -0.0657  0.1540 -0.1632
 2581W        W18842  16.030  15.194   0.785 -0.0795  0.1780 -0.0171
 2582W        W18843  11.591   5.672  14.422  0.0593  0.0534 -0.0485
 2583W        W18844   4.804   8.851   1.917  0.0957 -0.1316  0.1884
 2584W        W18845   6.954  13.253  11.185 -0.1241  0.0131  0.0738
 2585W        W18846   4.649   3.088   2.726 -0.2342 -0.3226  0.0474
 2586W        W18847  17.826   9.575  13.711  0.1353  0.2331 -0.0423
 2587W        W18848  19.235  11.646  10.861 -0.1019 -0.0258  0.2420
 2588W        W18849   3.221   6.045  11.760 -0.0435  0.0814  0.3045
 2589W        W18850   8.000  14.724  13.665 -0.1445  0.3716  0.3088
 2590W        W18851   1.966   4.814   3.349 -0.2706 -0.2178 -0.1710
 2591W        W18852   7.669   6.195   3.888  0.1317  0.0573  0.3660
 2592W        W18853  12.415   3.495   3.905 -0.2580 -0.0217  0.0024
 2593W        W18854  11.578   4.364  13.946  0.0599 -0.0121 -0.0425
 2594W        W18855   2.053  16.343   9.493  0.0780  0.1604 -0.3281
 2595W        W18856  10.892  18.230  11.964  0.0784  0.2642 -0.0369
 2596W        W18857  17.815   9.134  14.408 -0.3102 -0.3327 -0.0874
 2597W        W18858   2.209   9.751  11.862  0.5768  0.0272  0.0816
 2598W        W18859  12.505   0.991   1.896  0.1518  0.0678  0.0158
 2599W        W18860  19.257   8.808   4.562 -0.2443 -0.0020  0.3432
 2600W        W18861  13.595   0.307   4.454 -0.2119  0.1607 -0.0240
 2601W        W18862  17.278   9.233  10.680  0.0635 -0.1697  0.0762
 2602W        W18863   2.392   9.106  10.718  0.2328  0.1516 -0.0657
 2603W        W18864  17.124   1.129   3.012  0.3169 -0.2385 -0.2308
 2604W        W18865   9.430   0.775  13.483 -0.2189  0.1082 -0.0769
 2605W        W18866   4.985  19.031   3.096  0.1616 -0.0029 -0.0502
 2606W        W18867  11.167   7.250   1.339 -0.0132 -0.1076  0.0900
 2607W        W18868  14.616  13.344  13.927 -0.0873 -0.0537 -0.1538
 2608W        W18869   3.751  12.734   5.476  0.1657 -0.0942 -0.3359
 2609W        W18870  15.235   6.907  12.923 -0.0185 -0.3804  0.0312
 2610W        W18871  16.645   1.454   1.051 -0.2023  0.2949  0.1603
 2611W        W18872  15.159  10.843   1.557  0.2134 -0.0947 -0.1189
 2612W        W18873   7.066  17.700  14.401 -0.1346  0.0126  0.1649
 2613W        W18874   7.794  18.885   2.528  0.2005 -0.0849 -0.2038
 2614W        W18875  19.000  17.590  14.740  0.2036  0.1838 -0.1820
 2615W        W18876  14.426  17.605   3.857 -0.1111  0.0745 -0.0388
 2616W        W18877  12.982  13.905  11.852  0.0276  0.0921  0.0001
 2617W        W18878  12.516  17.721   5.630 -0.0760  0.0942  0.0172
 2618W        W18879   9.449   4.306   0.991  0.0874 -0.0269 -0.0811
 2619W        W18880   3.770  13.198   5.314  0.3895 -0.0896 -0.0556
 2620W        W18881  10.330  17.543   0.379 -0.2494  0.0507 -0.1926
 2621W        W18882   1.882   0.646  10.338 -0.0643 -0.0472 -0.3800
 2622W        W18883   3.307   5.872  10.803 -0.4141 -0.2761  0.0269
 2623W        W18884  18.651   9.317  14.398 -0.2772  0.2079 -0.2201
 2624W        W18885  12.484   2.986   0.329  0.1247 -0.0960 -0.2752
 2625W        W18886   4.761  16.049  10.185 -0.0255  0.1539  0.1119
 2626W        W18887  10.030   3.260   3.827  0.1312 -0.1228  0.1235
 2627W        W18888  12.422   8.055   0.854  0.0205  0.3064 -0.1998
 2628W        W18889  19.187   7.111   2.356 -0.1046  0.0251 -0.0781
 2629W        W18890  16.917  10.667   0.484 -0.1254 -0.3405  0.0451
 2630W        W18891   8.814  11.411   1.477 -0.0123  0.0216 -0.1161
 2631W        W18892   0.973  18.231   2.323 -0.1693  0.0318 -0.1778
 2632W        W18893  18.086  11.210   2.836  0.0335 -0.0436 -0.2236
 2633W        W18894   3.199  14.651   1.136  0.2889 -0.0896 -0.0748
 2634W        W18895  10.809   2.231   2.343 -0.1738 -0.1823 -0.0348
 2635W        W18896   2.622   5.882  14.621  0.2244  0.0663 -0.3140
 2636W        W18897  17.348  16.573   1.192 -0.1517 -0.0009  0.0212
 2637W        W18898   3.763  10.646   2.641  0.0190  0.4097 -0.2453
 2638W        W18899   6.538  11.959  12.280 -0.0108 -0.0432 -0.2628
 2639W        W18900   2.894   9.907  13.015  0.2289  0.0188  0.0355
 2640W        W18901   4.290  11.481  13.542 -0.1910  0.1308 -0.1851
 2641W        W18902   0.333   5.094   1.017 -0.1107  0.0236 -0.0110
 2642W        W18903   2.183   8.218  10.888  0.0820 -0.0921  0.1860
 2643W        W18904  10.035   2.250   3.606  0.2752 -0.2582  0.0184
 2644W        W18905  17.359   6.154  14.790 -0.1049 -0.0227  0.2506
 2645W        W18906  18.325   0.353  13.768  0.1081  0.0130  0.1023
 2646W        W18907   7.340  15.861   2.508 -0.2594  0.0420 -0.3286
 2647W        W18908   9.814  12.902  10.719  0.4681  0.1314  0.0196
 2648W        W18909   9.268  15.620  12.695  0.2110  0.0719 -0.2543
 2649W        W18910  13.192  17.860  11.407  0.2903 -0.1710 -0.0592
 2650W        W18911  15.937  17.261  12.003  0.0182 -0.2835 -0.0137
 2651W        W18912  13.268  18.431   5.731 -0.0464  0.3145 -0.0087
 2652W        W18913   0.281  13.567   0.530 -0.1136  0.2089 -0.0146
 2653W        W18914  19.125  15.537  11.216  0.0347 -0.1682 -0.2444
 2654W        W18915  16.003  18.675   2.747  0.4056 -0.0814  0.0816
 2655W        W18916   2.373  11.725   3.372  0.3230 -0.3872  0.2497
 2656W        W18917  14.032   8.338  11.183  0.2359  0.2951 -0.4378
 2657W        W18918   5.671  10.021   4.957 -0.3050 -0.1387 -0.4599
 2658W        W18919   5.192   3.874   3.617  0.0352  0.3745 -0.2903
 2659W        W18920   5.080   4.684   1.844  0.0857 -0.1680  0.5739
 2660W        W18921   6.720  10.393   4.846 -0.1762 -0.3514  0.2480
 2661W        W18922   6.829  11.124  12.625 -0.0400 -0.0935  0.0128
 2662W        W18923   2.889   0.224   3.531  0.1260 -0.1947  0.1183
 2663W        W18924  18.215   6.770   0.073  0.3969  0.1712 -0.4264
 2664W        W18925  17.331  16.215  12.832  0.0855  0.0024 -0.2380
 2665W        W18926   4.641  16.115   5.320  0.0256 -0.0094  0.0426
 2666W        W18927   5.639   1.914   4.213 -0.0086 -0.0019 -0.0267
 2667W        W18928  18.181   8.848  10.597  0.0544  0.0368 -0.2040
 2668W        W18929  19.235   3.435   0.903 -0.2644 -0.2154 -0.0410
 2669W        W18930   8.553   7.704   0.531  0.4600 -0.1140 -0.0488
 2670W        W18931  12.878  16.059   2.925  0.2544  0.2810 -0.0453
 2671W        W18932  18.906  19.198   4.435  0.1946  0.0639 -0.1935
 2672W        W18933   2.839  13.384   4.233 -0.0006 -0.0370 -0.0356
 2673W        W18934   3.519  13.549   5.660  0.0707 -0.0199 -0.0902
 2674W        W18935   8.847   2.571  14.542  0.3812  0.1715 -0.2024
 2675W        W18936   5.613   8.066  12.551 -0.0464 -0.1642  0.1697
 2676W        W18937  16.389   6.188   2.199  0.0315 -0.0581  0.2517
 2677W        W18938   5.902   6.488   3.742  0.1916  0.1405  0.2546
 2678W        W18939  19.359  13.787   3.301 -0.2581  0.0972  0.0430
 2679W        W18940  15.961   6.042   1.499 -0.0819 -0.2372  0.0224
 2680W        W18941   6.150  19.443   4.802 -0.5648 -0.1808  0.0273
 2681W        W18942  17.668   7.196  10.423  0.0258  0.2180  0.2169
 2682W        W18943   7.309  12.747  12.683  0.4059 -0.3355 -0.0189
 2683W        W18944   0.825  15.930   2.504 -0.2056  0.1247  0.1460
 2684W        W18945   8.308   5.875  10.217  0.0363  0.4603  0.0710
 2685W        W18946   3.055   3.342  13.443 -0.0195  0.2702  0.3353
 2686W        W18947   6.843   4.989  13.654  0.5250  0.3486 -0.0026
 2687W        W18948  16.195  10.349   2.166 -0.0342 -0.1340  0.0009
 2688W        W18949   8.152  10.240  11.787  0.0477 -0.4250 -0.2009
 2689W        W18950  10.825   2.870  12.606 -0.1308 -0.1337  0.0740
 2690W        W18951  14.243  17.324   4.280  0.0271  0.1113  0.1619
 2691W        W18952   0.732  13.510   1.713 -0.0510 -0.0353 -0.4802
 2692W        W18953  18.524  10.280   1.088  0.2568 -0.1598  0.0214
 2693W        W18954   3.685   1.419   4.168  0.0562  0.3259  0.2305
 2694W        W18955   2.570   3.733  10.734 -0.1257  0.3018 -0.1416
 2695W        W18956   1.346   3.684  11.490  0.0913 -0.2580 -0.2393
 2696W        W18957  18.218   5.411  10.530  0.0584 -0.1819  0.2091
 2697W        W18958  18.801   3.610  14.570  0.0919  0.0302 -0.4081
 2698W        W18959  15.088   9.768  13.666 -0.2682  0.0371  0.1910
 2699W        W18960  19.062  11.466  12.683 -0.1216 -0.2062  0.3212
 2700W        W18961   8.243   1.691  12.057 -0.1887 -0.0814  0.0718
 2701W        W18962  19.122   9.039   2.338 -0.0113 -0.1265  0.3530
 2702W        W18963   9.559  12.138   0.962 -0.3345 -0.4049  0.3860
 2703W        W18964  17.792  11.423   4.412  0.0011 -0.3436  0.0886
 2704W        W18965  16.705  10.146   0.615 -0.0438  0.0557 -0.0379
 2705W        W18966   3.596   3.644   0.146  0.1733 -0.2242  0.1115
 2706W        W18967   0.506   3.886   2.995 -0.0716  0.2258  0.1028
 2707W        W18968   7.391   8.942  11.255 -0.2526 -0.2509  0.1084
 2708W        W18969   3.898   7.678   0.203  0.1361 -0.0679  0.2160
 2709W        W18970  15.119  15.710   4.870  0.2917  0.0536  0.0072
 2710W        W18971   9.532  17.814  10.004  0.3421  0.5596  0.0369
 2711W        W18972   8.915  10.301   5.300 -0.0321 -0.1461 -0.2326
 2712W        W18973   0.943   8.306  12.695 -0.1887 -0.1538 -0.1621
 2713W        W18974  18.136  11.767   4.375  0.2821  0.4999 -0.2089
 2714W        W18975  15.601   1.679  11.151 -0.0424  0.1532  0.1342
 2715W        W18976  10.117  14.304  13.595 -0.0404 -0.2785  0.1313
 2716W        W18977   2.963   6.380  10.465 -0.1413 -0.0513 -0.3284
 2717W        W18978  10.619  16.212   0.038  0.2833  0.1439  0.1499
 2718W        W18979   5.716   4.982  10.080  0.4085  0.0005 -0.1533
 2719W        W18980   1.187  16.409  10.551 -0.0937  0.3317  0.0879
 2720W        W18981   4.880  11.906   1.756  0.2233 -0.2355  0.2076
 2721W        W18982  12.065  18.568   3.035  0.0361 -0.3190 -0.1043
 2722W        W18983   9.321  12.840   2.478 -0.1643  0.1451  0.0855
 2723W        W18984   3.302   3.855   2.381 -0.2629  0.0424 -0.4293
 2724W        W18985   3.412   7.289  13.723 -0.0750 -0.1309  0.2436
 2725W        W18986  16.009  16.333  11.677 -0.0054 -0.0090 -0.3450
 2726W        W18987  17.894   6.453   3.789 -0.3468 -0.0058 -0.3971
 2727W        W18988   9.984  15.729   0.953 -0.1792  0.1957  0.0298
 2728W        W18989   3.201   7.400   4.640 -0.2734  0.0383  0.1423
 2729W        W18990  19.077   1.139   3.671 -0.0335 -0.0979  0.2843
 2730W        W18991  18.345   5.763   2.629 -0.3037  0.1059  0.1749
 2731W        W18992   2.663   3.166  12.512 -0.1624 -0.2256 -0.3023
 2732W        W18993  12.443   7.213   0.438  0.0698  0.1026  0.2134
 2733W        W18994   7.835  11.137   1.140 -0.0253  0.0295 -0.3673
 2734W        W18995  12.274   5.297   1.497  0.2413  0.2482 -0.0311
 2735W        W18996  11.929   7.113  12.415  0.0150 -0.0596  0.1853
 2736W        W18997   9.241   1.424  11.731  0.1759  0.3728 -0.0186
 2737W        W18998   6.970  13.907  10.475  0.3413  0.0604  0.1605
 2738W        W18999  16.190   8.689  12.887  0.3621  0.2408  0.0599
 2739W        W19000  16.954   5.969   4.834  0.0821  0.0930 -0.0454
 2740W        W19001  13.408   0.171  13.378  0.3706 -0.1711  0.0145
 2741W        W19002  15.694   7.817   0.520 -0.2505  0.0085  0.0223
 2742W        W19003   1.401   5.063   2.561 -0.4371 -0.0055 -0.1464
 2743W        W19004  16.631  19.377   3.352  0.1686 -0.0444 -0.3152
 2744W        W19005  14.731   7.523  12.288 -0.0091 -0.4049  0.0335
 2745W        W19006  17.467   6.271   1.008  0.1086  0.2774 -0.0573
 2746W        W19007   4.741   8.328   0.543  0.0568  0.2783 -0.0899
 2747W        W19008  19.367  14.900   5.133  0.0654  0.0585 -0.0967
 2748W        W19009   9.468   5.615  13.814 -0.1277 -0.0516 -0.0712
 2749W        W19010   1.003   1.706  10.363 -0.1605 -0.2300 -0.1791
 2750W        W19011   0.868   0.842   1.460  0.1681 -0.0547  0.0611
 2751W        W19012  16.795  13.443  13.216 -0.0009  0.1970  0.1543
 2752W        W19013  14.797  15.934   0.407 -0.0754 -0.1105 -0.1182
 2753W        W19014   4.045   4.998  10.596 -0.1349  0.0521  0.1316
 2754W        W19015   6.712  15.407   0.485 -0.0062  0.0366  0.1244
 2755W        W19016   0.038   7.838   4.612 -0.4334 -0.1372  0.3320
 2756W        W19017   2.388  10.194  11.619 -0.0243 -0.1755  0.0347
 2757W        W19018   8.049   2.730   1.483  0.1716  0.2998 -0.1330
 2758W        W19019   7.305  18.691  10.808  0.1507 -0.2909 -0.0179
 2759W        W19020  15.287  12.070  13.868  0.1778 -0.2700  0.2191
 2760W        W19021  10.085  11.273  14.357  0.3202 -0.0007  0.0452
 2761W        W19022  18.761  19.471   3.045  0.3988 -0.0256 -0.1136
 2762W        W19023   2.288   8.117   3.133  0.0125 -0.1893  0.0313
 2763W        W19024  16.382  17.675  11.476 -0.1953 -0.2830 -0.3830
 2764W        W19025  16.944  14.558   1.899 -0.0567 -0.1255 -0.2056
 2765W        W19026   1.356   6.690  12.244  0.0252  0.0309 -0.0577
 2766W        W19027   0.759  15.970  11.163 -0.0735  0.0195 -0.0515
 2767W        W19028  12.609  18.924   2.945 -0.1092  0.2887  0.2110
 2768W        W19029   6.838   1.581  13.846  0.2940 -0.3006  0.1389
 2769W        W19030   0.704  16.319  13.220  0.1013  0.1696 -0.3393
 2770W        W19031   0.236  17.005   4.858  0.1129  0.0299  0.0634
 2771W        W19032   0.440   7.308  10.554 -0.4137 -0.1267 -0.4822
 2772W        W19033  12.761   9.645  10.591  0.1959 -0.0722  0.1902
 2773W        W19034  12.913  11.179   5.167  0.1597  0.1716 -0.1258
 2774W        W19035  19.391   4.980   0.890  0.1641  0.0307  0.2548
 2775W        W19036  17.563  13.659   0.248  0.0109 -0.2515 -0.0845
 2776W        W19037  12.432  16.823  11.633  0.1456  0.0119  0.1220
 2777W        W19038  10.915  11.073  12.605  0.1209 -0.0328 -0.1017
 2778W        W19039   2.661  18.106   4.873 -0.1380  0.1301  0.1270
 2779W        W19040   3.228  13.589   0.365 -0.2633  0.2433 -0.0559
 2780W        W19041   1.156  17.547  13.559 -0.1876  0.1780 -0.0557
 2781W        W19042   8.909  13.331  10.971  0.3017  0.2729 -0.3696
 2782W        W19043  14.557  18.369  11.801 -0.1055 -0.2302 -0.0913
 2783W        W19044  16.774  10.879  12.161  0.2446 -0.0800 -0.0397
 2784W        W19045  18.315   8.929  13.246 -0.3732 -0.1168  0.2874
 2785W        W19046   3.666   0.098  12.797 -0.0753 -0.1184  0.2357
 2786W        W19047   3.418   5.200   2.579  0.0005 -0.1245  0.3120
 2787W        W19048   2.008  13.470   5.436  0.1842  0.0716  0.1315
 2788W        W19049   1.067  18.684   1.978 -0.0405  0.0369 -0.0995
 2789W        W19050  11.192   4.194   3.610 -0.2330 -0.2042  0.1108
 2790W        W19051  19.322   0.176   2.155  0.1217 -0.0390 -0.0774
 2791W        W19052  18.121  18.107   4.752 -0.2736 -0.0412  0.2968
 2792W        W19053   2.290  19.482  10.840 -0.2150  0.0846 -0.3666
 2793W        W19054   3.622   7.523   2.576 -0.1197 -0.1362 -0.4950
 2794W        W19055   1.906   8.828  10.065 -0.3054 -0.1802 -0.0805
 2795W        W19056  14.572   4.081   2.901  0.0946 -0.2496  0.0478
 2796W        W19057  16.262  14.322  11.460 -0.0139  0.0534 -0.7069
 2797W        W19058   5.022  15.982   1.340 -0.5510 -0.0704  0.4833
 2798W        W19059   6.190   5.452   3.303  0.2289 -0.2731  0.3381
 2799W        W19060   6.805   8.487   0.336  0.2790  0.1550  0.5246
 2800W        W19061   8.092   8.912  14.602  0.2064  0.1044  0.0434
 2801W        W19062   7.354  18.138  14.310  0.2931  0.2518  0.4095
 2802W        W19063  17.724   3.531   4.425  0.3361 -0.1379 -0.0101
 2803W        W19064  18.701   8.441   2.687  0.0889  0.3030 -0.0658
 2804W        W19065   2.202  16.955  10.997 -0.1979  0.1429  0.0254
 2805W        W19066   9.701  12.660   0.671 -0.2374  0.1511 -0.2778
 2806W        W19067  12.762  14.609   4.372  0.0566 -0.1304  0.1326
 2807W        W19068  16.985  12.868  11.385  0.0648 -0.2147 -0.0249
 2808W        W19069  13.817   0.029   4.137 -0.3433  0.1569  0.0577
 2809W        W19070   6.490  15.090  12.248 -0.0996 -0.0613  0.1934
 2810W        W19071  15.720  15.962  13.865 -0.3192  0.1337  0.4065
 2811W        W19072   5.327   7.967   3.984 -0.1569  0.3229  0.3579
 2812W        W19073  16.718   5.871  12.248  0.2403  0.2411  0.0894
 2813W        W19074  15.280  14.918  10.904 -0.3041  0.2976 -0.0547
 2814W        W19075  13.159  17.916   3.589  0.1211 -0.0530  0.0197
 2815W        W19076   7.542   8.770  13.756  0.1173  0.0476 -0.3135
 2816W        W19077   4.115   4.002  12.779 -0.1132 -0.2746  0.0099
 2817W        W19078   7.556   7.941   3.319  0.0006  0.0140 -0.3164
 2818W        W19079  15.916   9.200  14.695  0.1871 -0.4825 -0.1526
 2819W        W19080   9.420   4.171   3.688  0.2292  0.0532  0.0749
 2820W        W19081   8.704  18.891   2.195  0.1390 -0.0248 -0.1960
 2821W        W19082   3.037   3.643  14.334 -0.2334  0.4006 -0.1738
 2822W        W19083  17.001  16.798   3.282  0.1932  0.1775  0.3989
 2823W        W19084  13.115   0.081  12.191 -0.0545 -0.0819  0.3744
 2824W        W19085  13.004   2.744   2.760  0.0468  0.0692 -0.3291
 2825W        W19086   8.357  10.821   3.356 -0.1401 -0.2312  0.0544
 2826W        W19087  14.506  11.022   0.848  0.0194  0.1469 -0.0199
 2827W        W19088   3.768  15.797   1.774 -0.0667  0.2541  0.1230
 2828W        W19089   0.872  16.855  14.478 -0.0449  0.2016  0.0385
 2829W        W19090   8.060  16.415  13.670  0.0856 -0.0349 -0.0450
 2830W        W19091   3.628  10.050  10.322  0.4136  0.0386  0.2239
 2831W        W19092   8.380  18.882  14.695 -0.3455 -0.1924 -0.1062
 2832W        W19093   4.427  15.148  11.779  0.2221  0.4570  0.0688
 2833W        W19094   5.323  13.033  11.624 -0.0089 -0.2186 -0.0883
 2834W        W19095   6.389   0.370   4.630  0.0508  0.0631  0.0836
 2835W        W19096   1.242   2.040  13.614 -0.0051  0.0536  0.0067
 2836W        W19097   3.501   5.963   0.975 -0.0630 -0.0907  0.0423
 2837W        W19098   6.139  15.117  13.315  0.1188  0.1418 -0.2059
 2838W        W19099   8.807  15.620   3.616  0.4971 -0.0872  0.3226
 2839W        W19100   5.223   2.001  13.140  0.5482 -0.1192  0.0270
 2840W        W19101   6.902   3.409  12.428  0.1168  0.1001  0.0449
 2841W        W19102  11.276   2.040   5.426  0.0497 -0.0281  0.3216
 2842W        W19103  18.718   5.426   2.495 -0.0875  0.0562  0.0284
 2843W        W19104   6.311   3.070  10.164  0.2118  0.1685  0.1633
 2844W        W19105  18.367   0.411   0.948 -0.0737 -0.2642  0.3382
 2845W        W19106  19.095  15.818  12.667  0.2069 -0.1678  0.2515
 2846W        W19107  10.743  18.307   5.226 -0.0101  0.1124  0.3891
 2847W        W19108  14.822   9.544   2.927  0.1177  0.4261 -0.2188
 2848W        W19109   3.301  18.339   4.386 -0.0032  0.2447 -0.1508
 2849W        W19110   2.251  18.788   2.868  0.2462  0.0699  0.0047
 2850W        W19111   9.092  16.190   3.038  0.0301  0.1011  0.0842
 2851W        W19112  14.735  13.256  11.550  0.4395  0.0808 -0.2298
 2852W        W19113   8.741  12.198  14.808 -0.2637 -0.2754 -0.0625
 2853W        W19114   3.201   8.113  14.475 -0.3664 -0.1133 -0.2998
 2854W        W19115   2.263   7.763  13.605  0.0203 -0.2564 -0.0142
 2855W        W19116   1.548  13.570   2.738 -0.0728 -0.3565  0.5405
 2856W        W19117  17.299  10.401   3.909 -0.3222 -0.2137 -0.2668
 2857W        W19118  12.148  10.185  13.990 -0.3426  0.1208 -0.1451
 2858W        W19119  10.045  11.868   4.505 -0.4635  0.3159  0.0780
 2859W        W19120   1.383  14.694  14.267 -0.1552  0.0141  0.1880
 2860W        W19121  10.341  15.156   4.622 -0.3393  0.0067 -0.0263
 2861W        W19122   5.252   9.111  10.553 -0.1474  0.1331  0.2612
 2862W        W19123   5.587   5.153   3.552  0.1389  0.3379 -0.0634
 2863W        W19124  13.842   1.730  10.910  0.4277 -0.0297  0.1320
 2864W        W19125  10.798  18.573  12.350 -0.2516 -0.1081  0.0271
 2865W        W19126   8.379  10.100  13.778 -0.1900  0.3122 -0.0042
 2866W        W19127  14.896  10.444  14.771  0.1086  0.2069  0.2123
 2867W        W19128  16.152   1.983  14.223  0.0771 -0.2515  0.0766
 2868W        W19129  17.313  12.286   2.742 -0.3262 -0.0676  0.0115
 2869W        W19130  15.762   5.339   2.157 -0.2804  0.1599 -0.0080
 2870W        W19131   8.493   6.045   9.428  0.2251  0.2072  0.0491
 2871W        W19132   1.845  14.249  13.337  0.2089 -0.1037 -0.4642
 2872W        W19133   4.747   8.321   2.395 -0.3529 -0.2169  0.0831
 2873W        W19134  14.047  13.514  11.986 -0.0006 -0.0541 -0.0066
 2874W        W19135  15.212  18.038  13.485  0.1682 -0.0373 -0.0075
 2875W        W19136  16.138   0.829   5.142 -0.1133  0.2510  0.1639
 2876W        W19137   6.862   6.366  12.299 -0.0243 -0.1026 -0.1964
 2877W        W19138  10.331   2.275   2.163  0.1372 -0.1259 -0.0808
 2878W        W19139  12.173  17.736  13.380  0.2446 -0.1514  0.0101
 2879W        W19140   4.716   2.472  13.494 -0.1935 -0.1888  0.1433
 2880W        W19141   8.304   3.674   2.293 -0.0618 -0.0957 -0.2608
 2881W        W19142   4.791  18.697   3.690 -0.1467  0.0263  0.0548
 2882W        W19143  14.762  16.450   2.886 -0.0535 -0.4373  0.2510
 2883W        W19144  12.355  18.676  14.402 -0.2207 -0.1116 -0.0664
 2884W        W19145  15.266   0.670   2.073 -0.0120 -0.2513  0.1668
 2885W        W19146  15.236  10.972   1.014  0.2902  0.1784 -0.0562
 2886W        W19147   8.403   1.975  10.129  0.2606 -0.3660 -0.1371
 2887W        W19148  14.850   8.103   4.589 -0.1866  0.1628  0.1364
 2888W        W19149  17.329   5.860   1.871  0.0689  0.3743 -0.2062
 2889W        W19150   3.280   1.082   5.272  0.1417  0.1741 -0.0908
 2890W        W19151  18.978   8.410  11.125  0.1559 -0.2120 -0.1509
 2891W        W19152   6.767  11.422   1.379 -0.0381  0.1987 -0.0699
 2892W        W19153  12.838  19.068   3.346  0.0306  0.0010 -0.2093
 2893W        W19154   1.600  12.911   3.194 -0.2390 -0.0260  0.0086
 2894W        W19155   3.298   4.657   4.313  0.0756 -0.2029  0.0712
 2895W        W19156   2.207  16.190   2.214  0.1405  0.2071  0.0086
 2896W        W19157   2.980  15.437   3.492 -0.2375  0.1439  0.0497
 2897W        W19158  13.792   5.623  14.787 -0.4291  0.0067 -0.1695
 2898W        W19159   8.435   2.176  11.787  0.1489  0.0869  0.2562
 2899W        W19160   6.810   0.980   0.991 -0.2323  0.1900 -0.4232
 2900W        W19161   4.992  11.897   2.645 -0.0550  0.1151  0.0028
 2901W        W19162   7.914  15.885   3.403 -0.0236 -0.0844  0.0516
 2902W        W19163  15.596  13.488   2.381 -0.1738  0.0313  0.4301
 2903W        W19164  15.001   1.305  14.679  0.0033 -0.2164 -0.1981
 2904W        W19165   1.961  14.449   3.849 -0.1448 -0.0961  0.1206
 2905W        W19166   7.757   5.796  13.773  0.3459 -0.1910 -0.0526
 2906W        W19167   3.141  14.390   1.605  0.1405 -0.0189 -0.1870
 2907W        W19168  13.164   2.349   4.482  0.1928 -0.1262 -0.0300
 2908W        W19169   0.589   8.945   2.582 -0.0648  0.3581  0.3260
 2909W        W19170   1.072  16.531  13.515 -0.1295 -0.0081 -0.0127
 2910W        W19171   4.124  10.905  10.560 -0.0130 -0.1837 -0.0398
 2911W        W19172   5.952   2.405   3.812  0.2507 -0.1156  0.0461
 2912W        W19173   5.994   0.976  11.658 -0.2050  0.2134 -0.0205
 2913W        W19174   7.708  17.956   1.305  0.1808 -0.1112  0.1791
 2914W        W19175  12.856  12.575  12.034 -0.0536  0.4274 -0.1384
 2915W        W19176   9.758   4.400  12.658 -0.1624  0.0769 -0.0427
 2916W        W19177   2.726  16.251  14.214 -0.0314 -0.1530  0.1175
 2917W        W19178   8.215  17.305  13.720 -0.0361  0.1147 -0.2135
 2918W        W19179   5.659  11.776  11.713  0.0184  0.1227  0.0808
 2919W        W19180  15.817  17.726  14.359  0.0982 -0.1012  0.1821
 2920W        W19181  16.049  18.434   1.774  0.5234 -0.0379 -0.2037
 2921W        W19182   9.516  12.455  13.991  0.1114  0.1635  0.0311
 2922W        W19183   2.415  10.995   4.387 -0.0324 -0.1090  0.0310
 2923W        W19184   9.476  14.229   0.582 -0.0687  0.3282  0.0088
 2924W        W19185  11.891  15.342   0.902 -0.1087  0.0463  0.0137
 2925W        W19186   2.066  16.794   4.641  0.1129 -0.4472 -0.2816
 2926W        W19187  14.713  19.122   0.060  0.0143 -0.1048  0.3908
 2927W        W19188  15.595  18.799   3.062 -0.0381  0.0308 -0.1410
 2928W        W19189   3.616  17.690  10.302  0.0067 -0.0246  0.0958
 2929W        W19190   2.274   4.812   0.874  0.1857  0.1458 -0.0194
 2930W        W19191   3.841   6.747   1.311  0.0756 -0.0265  0.2717
 2931W        W19192  19.416   2.154   0.893 -0.2243  0.0655  0.2548
 2932W        W19193   5.968   5.613  13.986  0.3032  0.0729 -0.3478
 2933W        W19194   0.901   5.180  11.083 -0.0881  0.0807 -0.1651
 2934W        W19195  18.363   6.348  13.041  0.2560  0.1076  0.2031
 2935W        W19196  16.931   3.038  10.833  0.2211 -0.2018 -0.0581
 2936W        W19197   6.181   1.011  10.193  0.1802 -0.1401  0.2155
 2937W        W19198   9.115   0.655   4.534 -0.0051 -0.0561 -0.2755
 2938W        W19199   5.920  11.886   0.424 -0.1065 -0.2097 -0.1159
 2939W        W19200  18.080  15.579   3.442 -0.0525  0.1207  0.4016
 2940W        W19201   6.060   7.772  13.745 -0.1658  0.0279  0.1975
 2941W        W19202   0.645  12.065   2.320  0.0026  0.1743  0.1042
 2942W        W19203  17.160   7.076   1.951 -0.2172 -0.4000 -0.1597
 2943W        W19204  12.981   7.848  10.882  0.0308  0.0088 -0.0406
 2944W        W19205  14.227  14.099   2.928 -0.2897 -0.2151  0.1459
 2945W        W19206  19.220  16.301  13.523  0.0889  0.0330  0.1423
 2946W        W19207  17.311  18.022   3.398 -0.0319  0.2125  0.0747
 2947W        W19208   7.989   2.683  12.597  0.2053 -0.1399  0.1274
 2948W        W19209   3.355   2.469   0.136  0.0801 -0.1683 -0.0141
 2949W        W19210  17.133  13.141  10.854 -0.0626 -0.3460  0.4140
 2950W        W19211  17.934   0.987  12.725 -0.0948 -0.2786 -0.3574
 2951W        W19212  13.810  14.683  12.069 -0.4238  0.1640 -0.4923
 2952W        W19213  19.038   5.482   3.015  0.0543  0.1312 -0.2408
 2953W        W19214  11.957   3.676   5.385  0.0524  0.5553  0.0098
 2954W        W19215   4.292  12.435   1.465  0.3322 -0.3280  0.1330
 2955W        W19216   0.187   5.486   1.533  0.1147  0.0342  0.2295
 2956W        W19217   7.827  19.365   3.737  0.1329  0.2933  0.0501
 2957W        W19218  14.232   2.326  14.750  0.0948  0.3080  0.1361
 2958W        W19219   5.684  10.948   4.634  0.0061 -0.2713 -0.0154
 2959W        W19220   1.525   3.760   9.043  0.3164  0.0836 -0.2505
 2960W        W19221  15.483   3.263  14.577  0.0080 -0.3969 -0.2306
 2961W        W19222   9.235   2.816  10.828  0.2016  0.1785 -0.2828
 2962W        W19223  10.005  15.474  14.081 -0.2263 -0.1514  0.2066
 2963W        W19224   0.177   6.087  11.993 -0.0792 -0.0794 -0.0046
 2964W        W19225  16.833  10.990  10.913 -0.2328 -0.3112 -0.2747
 2965W        W19226  10.967  16.878   4.552 -0.1809  0.0678  0.1773
 2966W        W19227  11.794  15.281   2.081 -0.4406  0.1918 -0.3210
 2967W        W19228   5.754   8.312  12.074  0.0030  0.0848  0.1651
 2968W        W19229   3.175   1.571   3.145 -0.2459  0.2005 -0.0973
 2969W        W19230   2.556  15.877   0.428  0.0573  0.1620 -0.1774
 2970W        W19231  10.515   9.344   1.432  0.1497 -0.2071 -0.3024
 2971W        W19232   1.008  17.166   3.959 -0.1058  0.0822  0.3362
 2972W        W19233  12.723  11.220   3.327 -0.1492 -0.0891 -0.3225
 2973W        W19234   4.185   2.193   4.089 -0.0076 -0.0695  0.2172
 2974W        W19235   6.707  14.850  11.805  0.1324  0.0089  0.2120
 2975W        W19236  16.008   3.844  13.858 -0.0315 -0.1208 -0.2490
 2976W        W19237   0.556   4.328   9.741 -0.0765 -0.2282 -0.0786
 2977W        W19238  10.798   2.019   1.862 -0.2938  0.1887 -0.1267
 2978W        W19239   5.654  17.841  12.985 -0.0480  0.0027  0.2772
 2979W        W19240   2.972  15.771  10.450  0.2379 -0.2206 -0.0321
 2980W        W19241   8.826   6.804   3.120 -0.0838  0.1402 -0.2147
 2981W        W19242   4.673  11.719   3.991  0.0438 -0.1039 -0.0631
 2982W        W19243  18.709  15.577   5.706 -0.0001  0.3592 -0.0994
 2983W        W19244   9.149   4.501  14.666  0.3806 -0.0055 -0.2594
 2984W        W19245   7.637  10.665  12.927 -0.2456  0.3793 -0.0489
 2985W        W19246   4.492  15.786   4.863  0.1928  0.3132  0.1337
 2986W        W19247   5.904   9.537   9.933 -0.0147 -0.0218 -0.4012
 2987W        W19248   6.228   8.142   3.634  0.2659 -0.0594  0.3306
 2988W        W19249   5.259   9.003  13.945 -0.0861 -0.3088  0.0281
 2989W        W19250   4.855   6.063  13.242 -0.0940  0.0932  0.0205
 2990W        W19251   1.643  18.782  11.131  0.1430 -0.1341 -0.0980
 2991W        W19252   9.329   8.016   1.822 -0.0704 -0.3707 -0.1703
 2992W        W19253   9.740   9.058   0.765  0.2045 -0.0826  0.1597
 2993W        W19254  12.631  11.002   3.766 -0.2024  0.1386  0.0542
 2994W        W19255   2.961   2.560   0.954  0.2027 -0.0981 -0.0661
 2995W        W19256  10.245   7.660   3.283 -0.1470  0.1829  0.1949
 2996W        W19257  17.269   4.992  14.135 -0.1612 -0.1176 -0.1597
 2997W        W19258   5.044  18.442  11.471 -0.0335  0.1252  0.0669
 2998W        W19259  19.203   2.205  14.349  0.0278 -0.3000  0.1509
 2999W        W19260   2.123   3.675  13.494 -0.0799  0.0874 -0.3516
 3000W        W19261   7.731  12.873   4.042  0.3647  0.0384 -0.0569
 3001W        W19262   3.628   3.285  11.269 -0.1693  0.1510  0.1042
 3002W        W19263   7.271  10.990   2.207 -0.0266 -0.0394  0.2505
 3003W        W19264  17.986  15.276   2.426  0.2203 -0.2790 -0.0780
 3004W        W19265  14.255   0.956   3.950  0.0381 -0.2312 -0.0210
 3005W        W19266   1.701   5.062  13.427  0.2260  0.1001 -0.2659
 3006W        W19267   4.110  13.281   1.747 -0.1441  0.0357  0.0792
 3007W        W19268   5.468   6.043  12.190  0.1540 -0.1386 -0.1200
 3008W        W19269   0.636   3.636   0.116  0.1780  0.0177 -0.1882
 3009W        W19270  16.694  14.666   0.455  0.0871  0.0468 -0.3868
 3010W        W19271   5.741  16.613  14.337 -0.0761  0.2393  0.4149
 3011W        W19272   7.270   8.446   0.136  0.0169  0.6269 -0.0195
 3012W        W19273   7.831   4.302   9.429  0.0217 -0.0758  0.4738
 3013W        W19274  18.937  12.687  14.760 -0.2543  0.0763  0.0320
 3014W        W19275   0.628  17.831   2.059 -0.0271 -0.0266  0.1272
 3015W        W19276   8.310  14.486   2.644 -0.0244  0.1869  0.0416
 3016W        W19277   9.081   0.865  10.616 -0.1151  0.0965  0.0857
 3017W        W19278   2.599  15.708  12.770  0.0934  0.0571  0.2042
 3018W        W19279  13.256  15.210   5.526  0.2135  0.3065  0.2197
 3019W        W19280   6.477   7.283  11.843 -0.3438 -0.2520 -0.2473
 3020W        W19281  12.707   8.340   1.206  0.0732 -0.2043 -0.0956
 3021W        W19282  15.792   7.744  13.248 -0.0923 -0.1401 -0.1335
 3022W        W19283  11.412  16.976  13.054 -0.1180 -0.0442  0.0504
 3023W        W19284  19.131   6.757   0.696 -0.0391  0.0476 -0.0346
 3024W        W19285   1.919  17.537  11.588 -0.0487  0.0832  0.0528
 3025W        W19286  14.009   4.264   4.194  0.0186 -0.1085 -0.1237
 3026W        W19287  14.530  15.192  13.683  0.1407  0.0968  0.3119
 3027W        W19288   7.841  11.443   4.016  0.0118  0.0405  0.0269
 3028W        W19289   2.299   2.801  13.370  0.0578 -0.2215 -0.0148
 3029W        W19290   6.634  12.261   0.931 -0.1399 -0.0873  0.1542
 3030W        W19291   4.510  18.752   0.117  0.0853 -0.0733 -0.0849
 3031W        W19292  16.735   9.325  12.440 -0.2828 -0.1170  0.1075
 3032W        W19293  14.240  12.137  11.533 -0.3016  0.1238  0.0192
 3033W        W19294  13.260   9.531   2.445 -0.1586  0.1261 -0.1172
 3034W        W19295   4.755  13.775   4.538  0.1924 -0.1437  0.2247
 3035W        W19296  12.348  13.965   2.752 -0.1244  0.1950  0.0942
 3036W        W19297  15.727  12.921  14.631  0.0774 -0.2622 -0.1589
 3037W        W19298  16.676   2.191  14.482 -0.0230  0.3743  0.0856
 3038W        W19299  15.897   3.107   1.067  0.2739  0.2871 -0.1975
 3039W        W19300  11.502  15.933   1.642  0.1079 -0.0436 -0.0079
 3040W        W19301  11.328  18.465  10.803  0.0981  0.2635  0.1049
 3041W        W19302  15.990   6.825   1.588 -0.0939 -0.3016 -0.0132
 3042W        W19303   4.605  12.935   4.868  0.1296  0.0910 -0.0105
 3043W        W19304  18.574   9.060  11.059  0.1313 -0.2700 -0.0518
 3044W        W19305  16.178   3.666   5.039 -0.5311 -0.0553  0.1769
 3045W        W19306  18.441  19.486   1.778 -0.0383  0.0712  0.2025
 3046W        W19307   9.945  14.984   0.035 -0.1372 -0.1815 -0.0324
 3047W        W19308   5.248   5.346   2.843  0.0836 -0.1273 -0.1587
 3048W        W19309  16.939   8.361   3.911  0.3181 -0.2540 -0.1635
 3049W        W19310   6.259  12.926   2.817 -0.1248  0.2548 -0.2224
 3050W        W19311  19.198   7.324  12.732  0.2497 -0.1415 -0.0829
 3051W        W19312  17.622   4.288  14.618  0.3692 -0.2130  0.2231
 3052W        W19313   5.700   7.012   3.859  0.1881 -0.0283 -0.1052
 3053W        W19314   3.419  11.314   1.186 -0.1697 -0.1851 -0.2324
 3054W        W19315   5.855  19.155  14.369  0.1871  0.0277  0.2369
 3055W        W19316   5.043   2.037  13.602 -0.0816  0.2595  0.3253
 3056W        W19317  11.658   2.718   2.350 -0.0075 -0.2575 -0.1861
 3057W        W19318   9.247  11.905   0.341  0.0720 -0.1486  0.1285
 3058W        W19319   5.386   9.916  11.807  0.0364 -0.1481 -0.0998
 3059W        W19320   2.145   2.112   1.745  0.0383 -0.2793  0.1259
 3060W        W19321   0.367   9.381   4.102  0.0200 -0.1914  0.2465
 3061W        W19322  18.762  17.169  13.859  0.2445 -0.2894 -0.0320
 3062W        W19323   3.873  14.321  11.676  0.1287  0.1288 -0.2138
 3063W        W19324  10.633   0.341   2.925  0.1132  0.1243  0.5265
 3064W        W19325  13.928  16.786   5.829 -0.3260 -0.1067 -0.1598
 3065W        W19326   9.699  13.603   1.676  0.0741 -0.3033 -0.2025
 3066W        W19327  12.052   0.083   0.353  0.1004 -0.2401  0.1146
 3067W        W19328  17.104   9.865   0.079 -0.1303 -0.1326 -0.1208
 3068W        W19329   6.208  17.251   4.240 -0.0375  0.3091  0.4986
 3069W        W19330   8.119   5.949   2.615 -0.3026  0.2343 -0.1584
 3070W        W19331   5.141   7.486   1.974  0.0238  0.1520 -0.1279
 3071W        W19332  16.559  10.506   1.028 -0.2510 -0.0491  0.1388
 3072W        W19333   7.601   1.735  13.885 -0.0444 -0.1356 -0.3284
 3073W        W19334  12.439  17.298   4.187  0.1758 -0.1811 -0.0697
 3074W        W19335  13.572   0.694  13.355  0.2401  0.1940  0.1578
 3075W        W19336  11.947   5.796  11.934 -0.0314  0.1483  0.2000
 3076W        W19337   5.957  18.516  11.806  0.0452  0.0164  0.0232
 3077W        W19338   4.069   2.206  10.834  0.3671  0.0202  0.3522
 3078W        W19339   5.476  11.251   2.280 -0.0030  0.1891  0.1919
 3079W        W19340  18.314   7.906   2.173  0.2803 -0.3838  0.2623
 3080W        W19341   2.387  15.217   2.131  0.4242 -0.0651  0.0038
 3081W        W19342  18.641   3.520   2.661 -0.0354  0.0043  0.0262
 3082W        W19343  14.094  11.063   4.791 -0.1001 -0.0688 -0.3100
 3083W        W19344  10.057   5.041   2.665 -0.0633  0.1157  0.1168
 3084W        W19345   8.652  18.097  11.173  0.1158 -0.0319 -0.1978
 3085W        W19346   7.891  11.648   2.266  0.2097  0.0073  0.1135
 3086W        W19347   4.730   1.425   3.065 -0.1830  0.2097 -0.3041
 3087W        W19348  14.175   7.230   9.232  0.0669  0.0901 -0.1835
 3088W        W19349  16.320   5.711  10.601  0.0222  0.1447  0.1036
 3089W        W19350  11.736  16.962   5.254 -0.1170  0.3174 -0.0263
 3090W        W19351  18.944   9.728   0.426  0.0100 -0.0533  0.1431
 3091W        W19352   9.796  17.685  14.510 -0.2036  0.0034 -0.1698
 3092W        W19353  14.641   7.101   4.581  0.0910  0.1634 -0.2873
 3093W        W19354  13.196   7.337   9.661 -0.0366  0.0308  0.1993
 3094W        W19355   5.008  12.072   1.055  0.0409  0.0684  0.2165
 3095W        W19356   9.787   2.912   2.242 -0.0719 -0.0154  0.0244
 3096W        W19357   6.737   5.736   2.005  0.1391 -0.2215  0.1784
 3097W        W19358   4.682   3.340   0.264 -0.3642 -0.3251 -0.0479
 3098W        W19359  13.018  15.737  11.497 -0.1276  0.1751 -0.3933
 3099W        W19360  15.529   9.572   5.463  0.2375 -0.0069 -0.0255
 3100W        W19361  10.268   6.641   9.983 -0.0618  0.1260 -0.0200
 3101W        W19362  18.244  17.390   0.917 -0.2642  0.2265  0.1615
 3102W        W19363   9.184   4.946   2.650  0.4498 -0.1192 -0.1226
 3103W        W19364   3.172   3.006  10.019  0.1748  0.1551  0.1132
 3104W        W19365  11.349   4.353  12.148 -0.2044 -0.0990  0.1709
 3105W        W19366   9.573  16.906   0.496 -0.2437  0.0522 -0.0980
 3106W        W19367  12.045   9.888   1.783 -0.0852 -0.1673  0.0371
 3107W        W19368   1.497   6.674  13.248  0.2419 -0.2771 -0.2341
 3108W        W19369  11.291  18.203   0.718  0.0259  0.1307  0.0262
 3109W        W19370   8.399   5.015  14.231 -0.1111 -0.2502  0.0305
 3110W        W19371   1.827  19.075  13.590 -0.0083  0.1378 -0.1286
 3111W        W19372   6.659   7.242  10.973 -0.0500 -0.2756 -0.2558
 3112W        W19373   7.821   9.179  10.527 -0.1912 -0.2052 -0.1987
 3113W        W19374   2.192   1.599   1.244  0.0628  0.0186  0.0302
 3114W        W19375   4.924   4.549   2.918 -0.1396  0.1876  0.2386
 3115W        W19376  12.585  12.210  14.660 -0.0243 -0.0725  0.0356
 3116W        W19377   4.461   4.455  12.756  0.0280 -0.0430  0.2944
 3117W        W19378  16.688  10.140   1.856  0.1050 -0.0668  0.2869
 3118W        W19379  12.432   8.211   4.982  0.1442  0.2271 -0.1500
 3119W        W19380  18.683   7.119   5.074  0.3833 -0.2273  0.1255
 3120W        W19381  18.191   9.217  10.170  0.1499  0.2446  0.0116
 3121W        W19382   2.494  10.346   2.664 -0.1455  0.1682 -0.1343
 3122W        W19383  14.848  12.831  11.968  0.0880 -0.1006  0.3727
 3123W        W19384  10.439  19.033  14.758 -0.5614  0.0363  0.4036
 3124W        W19385  15.084  16.462   1.859  0.2626  0.0742  0.0528
 3125W        W19386   4.267   8.319  10.293 -0.2072 -0.0586  0.0763
 3126W        W19387  11.711   2.472  13.445 -0.1531 -0.3088  0.0014
 3127W        W19388   8.986  14.008  12.695 -0.4196  0.1111  0.0850
 3128W        W19389  17.369  14.693  11.284  0.0639 -0.0961 -0.1600
 3129W        W19390   0.880   7.530  10.460  0.2748  0.0841 -0.1281
 3130W        W19391  17.391   2.306  13.324 -0.1706 -0.0502 -0.1257
 3131W        W19392  17.673   7.300  13.920  0.1401  0.0259  0.0855
 3132W        W19393   4.502  14.874   3.292  0.0103 -0.0241  0.0898
 3133W        W19394  17.685   2.762  14.081 -0.1334  0.1759  0.0407
 3134W        W19395   7.091   9.260   0.596  0.1548 -0.0796 -0.0014
 3135W        W19396  13.532   5.738  12.484  0.3687 -0.1557 -0.1306
 3136W        W19397   4.120   4.674   9.008  0.2127  0.3317  0.5355
 3137W        W19398   1.095   2.741   4.100 -0.2764  0.1382 -0.0601
 3138W        W19399   2.683   5.935  14.080  0.0732  0.0029 -0.1977
 3139W        W19400  16.425   6.552  14.549 -0.3101 -0.2024  0.0269
 3140W        W19401   5.266  13.623  12.653  0.2938 -0.0098 -0.0272
 3141W        W19402   8.452  12.809   2.715  0.1315  0.0004 -0.0979
 3142W        W19403   1.090  18.392   4.388  0.2212  0.0146  0.1562
 3143W        W19404   4.540  14.050   1.768  0.5989  0.0594  0.1855
 3144W        W19405   5.281   0.962   3.661 -0.1740 -0.2196 -0.0811
 3145W        W19406  16.146  11.062  11.451 -0.2918 -0.1544 -0.0370
 3146W        W19407   9.153   0.125   3.220 -0.1073 -0.0171 -0.1139
 3147W        W19408  13.741  16.829   2.304 -0.2715 -0.0547  0.1358
 3148W        W19409   8.835  14.537  13.278  0.1983  0.0114 -0.0791
 3149W        W19410  11.465  13.116   4.510  0.0244 -0.0396 -0.0218
 3150W        W19411   9.871   9.686   0.185 -0.1135 -0.2818  0.1339
 3151W        W19412   3.085   2.045   0.186 -0.2240 -0.3982  0.2037
 3152W        W19413  14.616  14.961  11.462 -0.2488  0.2391 -0.2844
 3153W        W19414  14.641  14.039   5.565 -0.0942 -0.1177  0.3605
 3154W        W19415  14.107   2.639  13.003  0.4601  0.0344  0.0716
 3155W        W19416   8.083   0.362  10.837  0.3403  0.0029  0.3563
 3156W        W19417  12.777   0.840   3.408  0.2854  0.0565  0.0957
 3157W        W19418   5.570   2.979  11.230 -0.0557 -0.1597 -0.2818
 3158W        W19419   1.439   6.594  10.549 -0.1016  0.2338 -0.1662
 3159W        W19420   5.126  18.686   4.091  0.2966 -0.4194  0.2243
 3160W        W19421   3.517  12.431   1.595  0.1010  0.0131  0.2095
 3161W        W19422   2.195   5.860  13.793 -0.3093  0.2894 -0.2585
 3162W        W19423  15.369  17.398  11.036  0.0958  0.2267 -0.2024
 3163W        W19424   4.255  15.296   1.061  0.3028 -0.2117  0.2052
 3164W        W19425  17.968  17.683  14.061  0.0378 -0.2780  0.0421
 3165W        W19426  10.607  12.067  11.678 -0.0287  0.2131 -0.1270
 3166W        W19427  13.950  17.479  11.514 -0.0015 -0.3311  0.2331
 3167W        W19428  15.131  15.632  11.618 -0.2072  0.2034  0.1441
 3168W        W19429  11.744  12.395   1.215 -0.2139  0.0265  0.3328
 3169W        W19430  17.182   0.362   1.447 -0.1769  0.1912  0.0871
 3170W        W19431   5.635  16.727   1.320  0.1498  0.3507 -0.1477
 3171W        W19432   1.163   7.429  10.866 -0.1712  0.0042  0.2194
 3172W        W19433   8.301   9.390  13.708  0.0747 -0.2139 -0.2084
 3173W        W19434  10.800   5.823  13.602  0.0506 -0.2360 -0.0363
 3174W        W19435   6.341   4.134  12.096 -0.1598  0.0778  0.3305
 3175W        W19436   4.273   2.197   2.808 -0.2867 -0.1236  0.1511
 3176W        W19437  10.106   4.430  13.015 -0.3957 -0.0774  0.0160
 3177W        W19438   1.446  15.259   2.023 -0.3316 -0.1838  0.0629
 3178W        W19439   8.148   5.286  12.859  0.0548 -0.1995 -0.0417
 3179W        W19440   6.593   8.329   1.269  0.1160  0.0131 -0.2281
 3180W        W19441  15.963  17.690   0.010 -0.0672  0.2125 -0.0053
 3181W        W19442   0.016  16.720  10.880 -0.1095  0.0310  0.3642
 3182W        W19443  18.722  13.597   2.391 -0.0118  0.2460  0.0158
 3183W        W19444  14.917   0.541   3.425 -0.4584  0.0146 -0.0691
 3184W        W19445   9.948  14.477   5.607  0.0046 -0.0374 -0.1797
 3185W        W19446  15.362   8.301   3.316 -0.3532 -0.2172  0.0797
 3186W        W19447   4.589   1.681   9.810 -0.0394 -0.1521  0.1005
 3187W        W19448   3.928  11.871   2.561  0.2199 -0.0116  0.0024
 3188W        W19449  16.780   3.055   4.101 -0.0643  0.0977  0.1634
 3189W        W19450   0.817  16.403   2.156  0.2993 -0.2185  0.0199
 3190W        W19451  11.342  18.107   5.156 -0.4457 -0.1555 -0.0288
 3191W        W19452   8.151  15.069  12.725 -0.1670  0.0251 -0.0146
 3192W        W19453  11.318   1.309   3.811  0.0213 -0.0404  0.3493
 3193W        W19454   8.432  13.239  13.676  0.0713 -0.1482 -0.0670
 3194W        W19455   9.481   5.745   0.125  0.2166  0.1618  0.2571
 3195W        W19456  12.566   1.478   1.723 -0.3599  0.0914 -0.1508
 3196W        W19457  13.860  17.599   0.780 -0.0581  0.0309  0.1484
 3197W        W19458  16.742   6.196   1.756 -0.2017  0.0935  0.0150
 3198W        W19459   0.575   6.467   1.050  0.1484  0.3780  0.2955
 3199W        W19460   7.478   6.746  11.421 -0.2069  0.0087 -0.0904
 3200W        W19461   5.066   4.587  10.824  0.0727 -0.4025 -0.1903
 3201W        W19462   4.297  19.217   2.863  0.2873 -0.2282 -0.2408
 3202W        W19463  10.278  13.238   4.807  0.0591  0.0934 -0.1709
 3203W        W19464  19.316  17.079  13.260 -0.0095 -0.0476 -0.2475
 3204W        W19465  10.361   6.227  12.456  0.0910 -0.0708  0.0684
 3205W        W19466   7.480  10.633  11.357  0.0077 -0.1546  0.0750
 3206W        W19467   2.482  12.708   3.039  0.3342 -0.2245 -0.0613
 3207W        W19468   2.021   8.987   0.213  0.1749  0.0017 -0.0685
 3208W        W19469   0.877   3.524   3.038  0.3324  0.3168 -0.1022
 3209W        W19470  11.488   8.193   0.993  0.3200 -0.1405 -0.1660
 3210W        W19471   2.409  19.420  12.670 -0.3747 -0.1218  0.3101
 3211W        W19472   6.247  19.473  10.742 -0.1345  0.1214  0.0266
 3212W        W19473  11.810   9.560  12.029  0.0554 -0.1087 -0.0052
 3213W        W19474  18.498  17.872  11.156  0.0033 -0.2545  0.2483
 3214W        W19475   0.865  10.809   1.095 -0.0614 -0.2088 -0.1566
 3215W        W19476   2.479   7.474  13.947 -0.0816 -0.1169 -0.0324
 3216W        W19477  15.541  16.153   2.762 -0.0344  0.0534 -0.1419
 3217W        W19478  19.366  11.997   4.578  0.0032 -0.0273 -0.2768
 3218W        W19479  19.484   1.995   2.274  0.0773 -0.0634 -0.1730
 3219W        W19480  17.712   6.953   3.999 -0.1232 -0.2380  0.2030
 3220W        W19481   4.819  12.365  11.906  0.0408  0.0524 -0.0505
 3221W        W19482   9.049  14.506  11.739 -0.0738 -0.0575  0.3609
 3222W        W19483  15.883   5.350   5.626 -0.0078  0.0619  0.0644
 3223W        W19484   1.502   5.171   3.181  0.1707  0.0133  0.0068
 3224W        W19485   1.690   3.610  10.535  0.1493 -0.0175  0.2014
 3225W        W19486  15.823   1.038   1.233 -0.1201  0.0521  0.2083
 3226W        W19487   1.859   9.081   3.487 -0.2263 -0.2609 -0.1529
 3227W        W19488   9.911  12.691  12.604  0.2040 -0.0366 -0.1697
 3228W        W19489  14.490  14.522  11.271 -0.2151  0.1206  0.1010
 3229W        W19490  16.375  13.503  13.693  0.3413 -0.1419  0.1591
 3230W        W19491  16.965   9.166   1.253 -0.2983  0.0850 -0.2173
 3231W        W19492  16.186  15.358   2.857  0.0975 -0.0101 -0.0055
 3232W        W19493   8.246   2.913   3.652 -0.0948 -0.1157 -0.1191
 3233W        W19494  11.279  15.161   4.773  0.0558  0.1353  0.0914
 3234W        W19495   9.340  18.541  11.348 -0.1556 -0.0731  0.6724
 3235W        W19496   3.273   6.830   4.852  0.1278  0.0780  0.2288
 3236W        W19497  15.410  13.286  10.377 -0.2389 -0.2601 -0.0413
 3237W        W19498  14.848   2.402  12.822 -0.0464  0.0744  0.0614
 3238W        W19499   1.283   0.561   0.184  0.0332 -0.1739  0.3398
 3239W        W19500  16.427  12.545  14.807  0.2118 -0.0852 -0.0585
 3240W        W19501  13.822  13.611   1.083 -0.0594 -0.4207 -0.4211
 3241W        W19502  19.254   4.377  11.120  0.0788 -0.3640 -0.4249
 3242W        W19503  13.945  10.063  12.424  0.3878 -0.2921 -0.1525
 3243W        W19504   5.999  12.568   3.013  0.2672  0.1674 -0.0060
 3244W        W19505   6.194  12.612  10.207 -0.0740  0.2331 -0.2806
 3245W        W19506  15.628   9.218   3.086 -0.1382  0.2126  0.0513
 3246W        W19507   6.115   3.834   0.201  0.1582 -0.1905  0.0423
 3247W        W19508  12.215   0.427   2.767  0.3193 -0.0257 -0.2307
 3248W        W19509   4.564  12.389  13.577  0.1701 -0.0163 -0.2425
 3249W        W19510  13.134  10.636   5.243  0.2969 -0.1441  0.2032
 3250W        W19511  10.507  17.333   3.045 -0.1865 -0.0936 -0.2160
 3251W        W19512   2.132  17.225   5.160  0.2107 -0.1174  0.1543
 3252W        W19513  17.841   7.125   4.526  0.0330 -0.2472 -0.0277
 3253W        W19514  11.076   3.778   0.129  0.2759  0.2066  0.2298
 3254W        W19515  18.437   7.523   9.956  0.0822  0.2014  0.2527
 3255W        W19516   4.466   3.548   4.851  0.0066 -0.2785 -0.0613
 3256W        W19517   1.688  15.107  14.045 -0.1086  0.3581 -0.3643
 3257W        W19518  12.237   0.796   0.961 -0.1645 -0.1638 -0.0426
 3258W        W19519   7.516  11.589   5.490 -0.0410 -0.3239 -0.0993
 3259W        W19520  13.746   7.253  10.500 -0.1313  0.1553  0.1271
 3260W        W19521   0.797  14.192  10.894 -0.0066 -0.1530  0.1041
 3261W        W19522  18.001  15.176   4.192  0.0565  0.3804 -0.2790
 3262W        W19523   4.810   1.234   0.792 -0.0155  0.2563  0.0421
 3263W        W19524  14.922   0.868   0.132 -0.3073  0.0209  0.0276
 3264W        W19525  11.857  10.676  11.047 -0.0848 -0.0445  0.0003
 3265W        W19526  14.836  13.131   2.931 -0.2908  0.0520  0.0717
 3266W        W19527   0.419   6.073   2.286  0.2315  0.4552  0.1420
 3267W        W19528   2.363   8.913   2.762  0.3469 -0.2084 -0.2376
 3268W        W19529  13.819  14.756  12.706 -0.0049  0.2201 -0.0304
 3269W        W19530   3.666   8.251   0.712  0.2183  0.0264  0.3052
 3270W        W19531   3.320   1.515  10.397  0.2253  0.0702 -0.2313
 3271W        W19532  13.177  17.486   2.120  0.0842 -0.2386 -0.0293
 3272W        W19533   9.810  11.446  11.463  0.0076 -0.0283 -0.0275
 3273W        W19534   9.566   8.495   1.513 -0.2933  0.2651  0.1472
 3274W        W19535   4.071  18.631   2.546 -0.1714 -0.0053  0.0350
 3275W        W19536  10.827   5.271  13.596 -0.2047 -0.1821  0.0389
 3276W        W19537   8.001   1.871   2.971  0.0362 -0.1196  0.0260
 3277W        W19538   8.563  11.685   3.390  0.1093  0.0541 -0.2097
 3278W        W19539   2.785  17.598  11.452  0.1569  0.0114 -0.2059
 3279W        W19540   7.912  19.275  12.848 -0.3816 -0.1250 -0.3446
 3280W        W19541   6.920  15.584  12.350  0.1417  0.4091 -0.3624
 3281W        W19542  13.085  16.798  13.523  0.2203 -0.2042 -0.0466
 3282W        W19543  18.756  13.310   0.855  0.0571  0.0061  0.0971
 3283W        W19544   4.156  12.928   4.639  0.4045  0.1687  0.0771
 3284W        W19545  14.901   4.750  13.873 -0.1583  0.0170 -0.2741
 3285W        W19546   4.695   3.656  11.479 -0.1344 -0.1474  0.2584
 3286W        W19547   9.715  18.280  11.969 -0.1013 -0.0881  0.0135
 3287W        W19548  12.477  12.268  11.888 -0.0491  0.1000  0.0479
 3288W        W19549  16.271  17.234   0.040 -0.1152 -0.0956  0.0347
 3289W        W19550   7.264   4.614  11.385  0.0571  0.0439  0.0317
 3290W        W19551  17.196  17.485  11.453  0.1282  0.0569 -0.1105
 3291W        W19552  18.266  18.538   2.478 -0.1251  0.0994  0.0959
 3292W        W19553  13.539   9.672   5.756 -0.4821 -0.1790  0.1925
 3293W        W19554   4.838   4.121  14.187 -0.3165  0.2081 -0.0514
 3294W        W19555  13.249   5.569  13.756 -0.3351 -0.2343 -0.3128
 3295W        W19556  11.293  16.509   0.488  0.0866  0.0099 -0.0106
 3296W        W19557  10.446  13.992   0.889 -0.0082  0.0135  0.1694
 3297W        W19558  11.704  16.868   0.126  0.1670  0.1592  0.0762
 3298W        W19559  12.581   8.802   1.048 -0.3696  0.3436  0.2023
 3299W        W19560   1.973   6.456   2.133 -0.1639 -0.0083 -0.1781
 3300W        W19561  18.127  12.462  12.002  0.3978 -0.0613 -0.1813
 3301W        W19562   0.407   7.506   1.540  0.0274 -0.0308 -0.2107
 3302W        W19563   9.913  10.275  12.477  0.1149  0.2565 -0.0182
 3303W        W19564  11.192   9.725   5.042  0.0298 -0.0102  0.1063
 3304W        W19565  10.746   6.710  14.710  0.0792  0.4142 -0.0947
 3305W        W19566  12.495   8.378  10.319  0.1017 -0.0014 -0.3343
 3306W        W19567  18.144  16.772   4.271 -0.3537 -0.3496 -0.4134
 3307W        W19568   8.802   9.986  14.655  0.0477 -0.0623 -0.0140
 3308W        W19569  18.192  14.036   0.625  0.0289 -0.0881  0.3240
 3309W        W19570   5.142   8.240  14.541 -0.0673  0.0362  0.3108
 3310W        W19571  13.076  18.826  10.153 -0.0620 -0.2977 -0.0249
 3311W        W19572  16.034   4.687   4.866  0.3787  0.0059 -0.0106
 3312W        W19573   4.107   5.121   3.009  0.0560  0.0005  0.0038
 3313W        W19574  15.451   0.641   0.264 -0.0790 -0.2231 -0.2285
 3314W        W19575  19.181  12.769   4.672 -0.3052 -0.0352 -0.0107
 3315W        W19576   8.028   2.080   0.797  0.0465 -0.0889 -0.0240
 3316W        W19577  11.548   7.896  10.992 -0.1903 -0.0647  0.3578
 3317W        W19578   7.225  14.243   0.453  0.4024  0.3961 -0.0140
 3318W        W19579   1.206   1.221  14.099  0.1020  0.1845  0.0751
 3319W        W19580  15.657  18.066   4.440 -0.3048  0.0711 -0.0604
 3320W        W19581  12.812  10.133  10.441  0.1583 -0.2864 -0.1693
 3321W        W19582   9.810   3.008  10.700 -0.0480  0.1577 -0.1665
 3322W        W19583  13.420   7.094   0.424  0.0721  0.3192 -0.1328
 3323W        W19584   0.040   7.512  13.074 -0.0697 -0.0142 -0.0724
 3324W        W19585  14.315  17.651  14.485  0.2667  0.0133  0.2016
 3325W        W19586  12.520   0.007   4.398  0.0197 -0.2471  0.2134
 3326W        W19587  15.893  18.911  12.581  0.3934 -0.0810 -0.1208
 3327W        W19588  19.271  14.970   0.442  0.4162  0.0301  0.1019
 3328W        W19589  10.290   0.321  13.002  0.3265 -0.0968 -0.3295
 3329W        W19590   7.728   1.838  12.092  0.1015 -0.1098 -0.1852
 3330W        W19591   6.429   1.845   1.580  0.2895 -0.1154  0.0838
 3331W        W19592  16.424  15.924  12.143  0.0458  0.0272  0.0473
 3332W        W19593  10.410   9.232  13.451  0.1521 -0.3556 -0.2041
 3333W        W19594  19.120  17.308  10.807 -0.4157  0.2794  0.0127
 3334W        W19595   5.320  10.066   4.464  0.0864  0.2281  0.3217
 3335W        W19596  12.912  11.720  11.887  0.2374  0.2273 -0.0246
 3336W        W19597  16.719   0.148   1.468  0.0004  0.0558 -0.0939
 3337W        W19598  17.752  13.654   5.339 -0.0256  0.1336 -0.1023
 3338W        W19599   8.027  18.924   1.461 -0.0002 -0.0454 -0.0292
 3339W        W19600  11.361  16.002  10.782 -0.2112  0.2389 -0.0545
 3340W        W19601  11.120   6.875  11.860 -0.3911  0.0592  0.0141
 3341W        W19602   7.111  10.959  12.250 -0.1557  0.1047  0.1534
 3342W        W19603   7.144  10.041   0.690 -0.0507 -0.1196  0.0241
 3343W        W19604  14.053  18.099   0.267  0.4950  0.0842 -0.0555
 3344W        W19605  11.579   4.838  12.407 -0.1684 -0.2469 -0.1235
 3345W        W19606  15.013   2.745   4.627  0.0751 -0.1716 -0.3051
 3346W        W19607   8.268  18.900  10.735 -0.0748 -0.2334 -0.0576
 3347W        W19608   2.136   8.395   1.009 -0.1336 -0.0584 -0.3930
 3348W        W19609  13.762  17.083   1.007 -0.1890 -0.0274  0.1893
 3349W        W19610   4.787  17.562   2.994  0.1082  0.2435 -0.1358
 3350W        W19611   8.224   4.171  13.315 -0.2371  0.2411  0.0562
 3351W        W19612  13.318   7.266  10.171  0.3668  0.1356 -0.0578
 3352W        W19613  14.452  11.901  12.399 -0.0018  0.2079 -0.0190
 3353W        W19614   4.410   5.285  10.508  0.2009  0.0669  0.4322
 3354W        W19615  12.591  14.687   0.478  0.3332 -0.0260  0.1167
 3355W        W19616  16.702  17.457  13.187 -0.1126 -0.3471  0.0627
 3356W        W19617   8.106  12.171   2.701  0.2723  0.0282 -0.3122
 3357W        W19618  11.096   0.560  12.144  0.1173  0.2629 -0.0207
 3358W        W19619   8.756   4.646   2.767 -0.0438  0.4388  0.0268
 3359W        W19620   4.414  17.427  11.443  0.0343 -0.1133  0.1481
 3360W        W19621  11.166   4.620  14.305 -0.0525 -0.0582  0.0794
 3361W        W19622   2.628  16.486  10.200 -0.2033  0.1596 -0.2051
 3362W        W19623  10.246   5.796  11.502 -0.2965 -0.0663 -0.1156
 3363W        W19624   1.171   6.084  13.418 -0.3540  0.1559 -0.1141
 3364W        W19625  14.904   8.216  14.739  0.2570  0.2074  0.1823
 3365W        W19626   6.763   3.247   1.571 -0.0378 -0.0227  0.1663
 3366W        W19627   6.654   8.982   5.080  0.2651 -0.0507  0.0826
 3367W        W19628  18.363  14.115   4.680 -0.0313 -0.2446  0.2042
 3368W        W19629  18.576  18.775   4.214 -0.3953  0.2576 -0.0179
 3369W        W19630  16.251  17.553  14.397  0.1218 -0.1152  0.1278
 3370W        W19631  13.594  10.192   3.055  0.1434 -0.0253  0.2588
 3371W        W19632  17.447   8.393  14.295 -0.1135 -0.1665  0.0932
 3372W        W19633   9.422  11.951  13.237  0.1743  0.1325  0.1560
 3373W        W19634   0.837  14.847  13.294  0.2094  0.0659  0.3920
 3374W        W19635  15.413   0.078  11.934  0.2780  0.0696  0.0864
 3375W        W19636   2.963   7.727   0.761 -0.1475 -0.1708  0.1188
 3376W        W19637  12.082   0.053   2.456 -0.0105 -0.0214  0.1045
 3377W        W19638  17.029  13.565   2.546 -0.2808 -0.4073  0.1303
 3378W        W19639   5.986  13.419  10.801  0.0898 -0.2327  0.1563
 3379W        W19640   2.429   7.833  11.794  0.0766 -0.2279 -0.1869
 3380W        W19641   6.638   0.366   2.574 -0.0803 -0.1669 -0.0031
 3381W        W19642  18.788  10.085  10.373 -0.0602  0.1177 -0.0460
 3382W        W19643  13.357   6.642  13.360  0.0201 -0.1767  0.0053
 3383W        W19644  11.591  18.664   4.588 -0.0133 -0.2435 -0.0577
 3384W        W19645   2.542  12.201  14.359  0.1408 -0.0318 -0.0169
 3385W        W19646  16.357   6.845  12.934  0.0898 -0.0310  0.0029
 3386W        W19647   8.688   0.484  10.733 -0.1882  0.3964  0.1989
 3387W        W19648   6.227   1.535  14.612 -0.2513 -0.1915  0.0136
 3388W        W19649  19.167   1.945   1.363  0.1450  0.1127 -0.1423
 3389W        W19650   2.752  14.870   2.836  0.0818 -0.1144 -0.2277
 3390W        W19651   7.898   6.974   2.849 -0.0168 -0.0967 -0.1421
 3391W        W19652   9.248  14.202   0.061 -0.1039  0.1142  0.2385
 3392W        W19653  17.049   4.452  13.434  0.0587  0.2862 -0.0593
 3393W        W19654  12.463   4.522  11.805 -0.0231  0.1338  0.1372
 3394W        W19655  17.221  18.711  12.389 -0.2453 -0.1075  0.1185
 3395W        W19656  17.043   1.648   0.590 -0.0687  0.1969  0.0760
 3396W        W19657  14.290  19.167  11.148 -0.1191 -0.0641 -0.0184
 3397W        W19658   3.472  11.404   3.742  0.1183  0.0525 -0.0544
 3398W        W19659  13.874   2.030   0.103 -0.0080  0.1468 -0.1573
 3399W        W19660  10.621   1.956  11.752  0.0929  0.1272 -0.3485
 3400W        W19661   1.469   5.555   2.785  0.1557  0.0076  0.1130
 3401W        W19662  12.283   4.814   3.709  0.2168  0.1463 -0.0689
 3402W        W19663  10.737   8.255   0.269  0.3173 -0.1601 -0.1829
 3403W        W19664  13.305   6.004   0.329  0.4517  0.0292 -0.2699
 3404W        W19665   5.911  14.106   1.933 -0.0711  0.0868  0.1577
 3405W        W19666  11.941  17.974  10.909  0.0076  0.1178  0.0323
 3406W        W19667  15.926   4.018   2.009  0.0330  0.1101 -0.0632
 3407W        W19668  15.672  16.044   3.283 -0.0727  0.3088  0.0119
 3408W        W19669  14.776  10.151   4.819  0.1280 -0.0777 -0.1262
 3409W        W19670   7.641  10.296   1.692  0.3441 -0.4093 -0.1806
 3410W        W19671  16.727  12.748  14.408 -0.4836  0.1123 -0.0035
 3411W        W19672  18.370  12.507   2.026 -0.0064  0.1436  0.1121
 3412W        W19673  19.046   2.792   1.640  0.0364 -0.0333 -0.1445
 3413W        W19674  14.320  10.806   1.424  0.3750 -0.4062 -0.2010
 3414W        W19675  11.481  10.252  13.367 -0.1919  0.3019 -0.0970
 3415W        W19676  18.719   5.680  11.483 -0.3196  0.2013 -0.2669
 3416W        W19677   2.625  13.479   0.889  0.2381  0.0372 -0.1287
 3417W        W19678  14.836  14.867  11.050  0.3921  0.1457 -0.4098
 3418W        W19679  16.263   3.557  14.658 -0.0203  0.0377  0.1000
 3419W        W19680   7.879  15.306  13.623  0.1679 -0.0588  0.1221
 3420W        W19681   5.117  11.112   0.781 -0.2992  0.0158 -0.1704
 3421W        W19682  17.304  14.174   2.619  0.2749 -0.0268  0.0212
 3422W        W19683  13.775  10.868   0.616 -0.2871  0.3497  0.3007
 3423W        W19684  12.893   3.189   4.685 -0.0407 -0.1601  0.1317
 3424W        W19685   9.262  17.535   1.438  0.1294  0.0360  0.0548
 3425W        W19686  18.370  14.505  13.133 -0.2762 -0.1520 -0.0839
 3426W        W19687   6.032  14.692   0.462 -0.1219  0.2290  0.0353
 3427W        W19688   8.630   9.647   0.800 -0.0137 -0.3809 -0.2343
 3428W        W19689  14.056   0.456   0.459  0.0205 -0.1092  0.0784
 3429W        W19690  12.667   2.966   2.380  0.4072 -0.0538  0.3154
 3430W        W19691   0.082  17.278  10.401  0.0175 -0.0954 -0.1675
 3431W        W19692  15.703   2.439  14.772 -0.4708 -0.0949  0.1242
 3432W        W19693  19.144   2.336   0.543  0.0113 -0.2785  0.1069
 3433W        W19694  12.672  11.140   5.663  0.1334  0.2197  0.0083
 3434W        W19695  18.907   1.471   1.578  0.3072 -0.3164  0.0341
 3435W        W19696   2.638  14.887   3.345  0.0304 -0.1469 -0.0542
 3436W        W19697  19.018   2.385  11.890 -0.3245 -0.0173 -0.2894
 3437W        W19698  16.030  14.127  10.725  0.0020  0.1229  0.2665
 3438W        W19699   7.680   2.856   4.499 -0.3324 -0.1749 -0.1076
 3439W        W19700  16.427   7.764  13.919  0.4053  0.1283 -0.0888
 3440W        W19701  17.365   9.538  11.738 -0.2325  0.2094  0.0775
 3441W        W19702  18.294   7.054  13.184  0.0318 -0.2191  0.0455
 3442W        W19703  17.896  13.863   1.760  0.0842 -0.0096  0.0153
 3443W        W19704  18.331   3.438   0.510 -0.3129  0.0791 -0.0513
 3444W        W19705  17.160   2.924  12.554 -0.1886  0.0481 -0.0071
 3445W        W19706  11.696   6.376  13.172  0.0636 -0.0680  0.1107
 3446W        W19707  18.623  17.251   0.109 -0.0272  0.3541  0.2885
 3447W        W19708  10.373  18.958  14.062 -0.2001 -0.1472 -0.0610
 3448W        W19709  13.079   2.337   0.126  0.0487  0.1336 -0.1446
 3449W        W19710   2.966  15.951   3.421 -0.0190  0.1114  0.3112
 3450W        W19711  12.144  11.818   5.324  0.1883 -0.0139  0.0357
 3451W        W19712  19.359   4.522   2.454  0.0110  0.0065 -0.4036
 3452W        W19713  14.882  18.350   3.327  0.0462  0.0524 -0.1624
 3453W        W19714  15.166   8.414  11.206  0.2024 -0.0092  0.1015
 3454W        W19715  10.893   6.813   3.794  0.1955  0.1830  0.0248
 3455W        W19716   9.579  14.536  11.650  0.0944  0.0994 -0.1099
 3456W        W19717  18.462  17.983   2.404 -0.2497 -0.3533 -0.2394
 3457W        W19718  15.748  10.997  12.960  0.1354  0.0812  0.2464
 3458W        W19719   6.276  15.995   4.825  0.0734 -0.4852 -0.1151
 3459W        W19720   9.484  16.280  12.767 -0.3211  0.4736  0.0610
 3460W        W19721  17.542   8.527   3.012  0.0928  0.0120  0.0979
 3461W        W19722   4.025   0.542  10.856  0.2842 -0.0596  0.1239
 3462W        W19723  19.142   3.047  13.371 -0.2264  0.1122  0.0364
 3463W        W19724  10.533   1.353   2.513  0.4303  0.1342  0.3766
 3464W        W19725  12.016  18.100   2.991 -0.1654 -0.0181  0.3383
 3465W        W19726   6.220   5.861   2.048 -0.1051  0.0742 -0.1334
 3466W        W19727  14.671  16.767   1.852  0.6252 -0.0337 -0.1412
 3467W        W19728   8.185   6.278  14.377 -0.0808 -0.0357  0.0763
 3468W        W19729  13.078   8.810   0.975 -0.0535  0.0404 -0.2368
 3469W        W19730  13.295  12.743   3.658  0.3878 -0.2492  0.2980
 3470W        W19731   3.780  13.518   4.359  0.1143  0.1069 -0.1877
 3471W        W19732  13.246  15.711   5.760  0.1037  0.0140 -0.1033
 3472W        W19733  12.398  11.508   1.438  0.2298  0.0083  0.0545
 3473W        W19734   9.630  13.197  13.776 -0.0688 -0.0632  0.2784
 3474W        W19735   7.174   7.025   3.617  0.1787 -0.1882  0.2361
 3475W        W19736   5.414  16.642  13.605  0.0612  0.1648  0.0080
 3476W        W19737   3.573  15.882   2.745 -0.2291  0.0238 -0.3845
 3477W        W19738  12.430   9.808  12.720 -0.2525  0.2190 -0.2079
 3478W        W19739   9.988  14.135   0.666  0.0740 -0.1600  0.1136
 3479W        W19740  15.634  15.366   2.844  0.1385 -0.1862 -0.2490
 3480W        W19741  16.217   1.622   2.794  0.0673  0.1577 -0.1540
 3481W        W19742   7.407   5.970  13.469 -0.0547  0.0954 -0.0244
 3482W        W19743   5.043  12.319   1.464 -0.0468  0.0049 -0.0682
 3483W        W19744   6.070   2.725  11.021  0.1245 -0.0777  0.2001
 3484W        W19745  10.395   6.763   9.454 -0.1166 -0.0458 -0.0923
 3485W        W19746  19.223   1.899   4.910 -0.1637 -0.1103 -0.0648
 3486W        W19747  13.752   7.995  11.425  0.0527  0.2473  0.0689
 3487W        W19748  16.683   0.534  11.215  0.0651  0.1839  0.1530
 3488W        W19749   0.668   6.077   3.707  0.2321  0.2012 -0.1646
 3489W        W19750   7.225  14.008  10.864  0.1743 -0.1727  0.0174
 3490W        W19751  16.753   2.024  13.507  0.0183  0.1322  0.1108
 3491W        W19752   1.415   5.320  12.348  0.1290 -0.0449  0.0152
 3492W        W19753   8.361   8.222   1.161  0.3240 -0.1432 -0.1322
 3493W        W19754  16.228   7.245  14.785 -0.2606  0.1872 -0.0454
 3494W        W19755  16.657   6.588   9.883  0.0768 -0.1348 -0.1421
 3495W        W19756  12.605  17.387   1.019 -0.0962  0.1486 -0.2475
 3496W        W19757   8.512   7.635   1.373  0.1018  0.0992  0.6043
 3497W        W19758   6.703  14.547  11.287  0.3374 -0.1255  0.0850
 3498W        W19759  16.869  17.248  14.718  0.0293  0.4101 -0.2596
 3499W        W19760  12.774   6.455  11.664  0.0013  0.1061 -0.0219
 3500W        W19761  14.000   9.978   4.876 -0.0101 -0.2302  0.1724
 3501W        W19762  11.734  17.330  13.581 -0.1514  0.1804  0.1220
 3502W        W19763   6.621  15.470   1.451  0.3978 -0.0708  0.0799
 3503W        W19764   1.957   9.000  10.952 -0.1816  0.6167 -0.0589
 3504W        W19765  18.427   4.532   3.736  0.0659  0.0814 -0.1494
 3505W        W19766   7.025   5.060  11.198  0.0518 -0.3015 -0.2186
 3506W        W19767  10.734  10.187  12.468  0.1159 -0.0912  0.1065
 3507W        W19768   7.467   7.615  14.231 -0.0553  0.2363  0.0648
 3508W        W19769  16.406  19.078  10.513 -0.4029 -0.2175 -0.1688
 3509W        W19770  12.689  10.116   3.129 -0.4789  0.1464 -0.0746
 3510W        W19771   4.967   7.011  10.709 -0.0834 -0.1857  0.0247
 3511W        W19772   9.579  19.174  14.444 -0.2015 -0.1086  0.0151
 3512W        W19773   7.908   6.615   1.075 -0.2526 -0.2279 -0.4194
 3513W        W19774  18.456   1.143   3.998 -0.2365  0.4353 -0.0574
 3514W        W19775  15.904   5.544   1.713  0.1280  0.3440 -0.1014
 3515W        W19776   9.357   6.522   2.764  0.0580  0.0318 -0.0297
 3516W        W19777  13.015   3.211   0.864  0.0546  0.1481 -0.0134
 3517W        W19778  16.536  11.282   3.961 -0.0793  0.1704  0.2661
 3518W        W19779  14.263  19.378  12.409  0.0100 -0.0899 -0.1558
 3519W        W19780  10.443  14.066   2.478  0.0136  0.0984  0.1150
 3520W        W19781  13.755  12.036  11.845  0.1853 -0.0707 -0.2727
 3521W        W19782  19.376   2.028  12.063  0.2489  0.1566 -0.0348
 3522W        W19783   8.797   9.283  13.553  0.4601 -0.0661 -0.1090
 3523W        W19784   3.780   8.757   1.421 -0.2997 -0.1358 -0.0493
 3524W        W19785  14.587   7.814   1.706 -0.4215 -0.5238  0.2708
 3525W        W19786  17.232  10.014   4.305  0.0831 -0.3405 -0.1226
 3526W        W19787  12.671  14.261   4.914 -0.2419 -0.0698 -0.0342
 3527W        W19788  18.435  16.327  13.687  0.4282  0.2737  0.0580
 3528W        W19789   4.417  14.547  10.605 -0.3670  0.2216 -0.1586
 3529W        W19790  10.643  14.918  14.233 -0.0831  0.3676 -0.3200
 3530W        W19791  10.030   1.845   2.155 -0.1358 -0.0773  0.0817
 3531W        W19792  13.535  17.641   5.977 -0.1333  0.2021 -0.1173
 3532W        W19793  10.566  12.435  13.037  0.2419  0.0125 -0.0264
 3533W        W19794   1.191   3.043   3.627 -0.1637  0.1084  0.0225
 3534W        W19795  11.137   1.904  11.846  0.0357  0.2437  0.0673
 3535W        W19796   1.489   8.800   1.562  0.0260 -0.0638  0.0138
 3536W        W19797   2.213   5.639  10.244 -0.2780 -0.2781  0.3299
 3537W        W19798  18.867   0.064  10.285 -0.2992 -0.1765  0.0578
 3538W        W19799   5.413   1.458  14.571 -0.4214  0.0559 -0.0160
 3539W        W19800   1.814   7.498   2.759  0.0772  0.4257 -0.1418
 3540W        W19801   2.225   8.421  13.554 -0.1968  0.5289  0.1143
 3541W        W19802  14.304  16.107   0.748  0.0415  0.0260 -0.0226
 3542W        W19803   9.022   7.452   1.571 -0.0895 -0.0515  0.2527
 3543W        W19804  11.835   3.001  13.566 -0.2185  0.0298  0.3442
 3544W        W19805  10.058   9.292   5.497  0.2585  0.3772 -0.1980
 3545W        W19806   2.283  12.634   0.667  0.2002  0.2836 -0.2134
 3546W        W19807  16.198  18.687  13.981 -0.0859 -0.0158  0.1517
 3547W        W19808  13.491  19.178  13.054  0.3533  0.2437 -0.1022
 3548W        W19809   9.126   7.285  14.601  0.0581 -0.0390 -0.0012
 3549W        W19810  16.798   1.294  11.792 -0.0485  0.0807 -0.1825
 3550W        W19811   2.202  15.698   2.869 -0.4018  0.2496  0.0393
 3551W        W19812   8.907   1.966   2.883 -0.1117 -0.0016 -0.0460
 3552W        W19813  11.271  15.839   3.102  0.0897  0.5494  0.0516
 3553W        W19814  12.195   1.166  11.214 -0.0948 -0.0062  0.1251
 3554W        W19815  18.945  18.798   3.854 -0.2473  0.5568  0.1771
 3555W        W19816   4.801  11.433   1.464 -0.0712  0.0548 -0.1767
 3556W        W19817   4.449   8.355   3.010  0.1803 -0.0751 -0.0924
 3557W        W19818   2.517   8.032  10.540 -0.1770  0.1680 -0.0741
 3558W        W19819   1.476  17.610  14.508 -0.2559  0.1383  0.1404
 3559W        W19820   0.916  13.863  14.191 -0.2048 -0.2516 -0.0960
 3560W        W19821  10.270   2.742   4.430  0.5497  0.0488  0.0260
 3561W        W19822   3.532   9.125  14.443  0.3566 -0.2449  0.2009
 3562W        W19823  16.428  16.019  13.745 -0.0470  0.1638 -0.1824
 3563W        W19824  19.373  12.387  14.600 -0.3456  0.0718 -0.0744
 3564W        W19825  14.162   1.680   4.342  0.0442  0.3435 -0.1144
 3565W        W19826   4.924   5.151   9.089  0.0425  0.1595  0.4544
 3566W        W19827  13.357   5.998   1.410  0.1883  0.1311 -0.1652
 3567W        W19828   1.369   2.096   3.288  0.3063 -0.0194  0.0538
 3568W        W19829   6.132   9.192  11.068 -0.6025  0.1053  0.2301
 3569W        W19830   9.614  18.574   3.585 -0.1533  0.2237 -0.3905
 3570W        W19831   7.852   4.870   0.726 -0.0957  0.1419 -0.1449
 3571W        W19832   2.285   3.032   3.109 -0.0891 -0.0361 -0.3106
 3572W        W19833   2.051  11.491  12.962  0.1619 -0.6322  0.1525
 3573W        W19834  16.854   5.652   1.661  0.0467  0.0414  0.1419
 3574W        W19835   0.966   7.533   3.611  0.1526 -0.0774 -0.0664
 3575W        W19836   6.319   9.958   0.384 -0.0510 -0.0412  0.1028
 3576W        W19837  11.336  11.334  10.881 -0.1341 -0.0717 -0.3292
 3577W        W19838  18.795   3.555   0.318 -0.1351 -0.2963  0.1862
 3578W        W19839  11.466   6.749   4.589  0.0922  0.2764 -0.4342
 3579W        W19840  16.556   2.129   2.225  0.2304  0.1370  0.0168
 3580W        W19841   3.889  19.024   0.488  0.0992  0.0186 -0.1106
 3581W        W19842   3.144  14.160  11.022  0.0358 -0.1443  0.0952
 3582W        W19843  15.922   6.176  11.709  0.0286  0.0472  0.1276
 3583W        W19844   7.569  10.135   0.183 -0.2188 -0.2233 -0.1013
 3584W        W19845  10.077   5.620  10.376  0.2009 -0.0335  0.2328
 3585W        W19846  16.924  14.697   2.936 -0.1159  0.0797 -0.0418
 3586W        W19847   0.774  11.137   2.959 -0.0345  0.4012 -0.0557
 3587W        W19848  16.905   5.921   2.319 -0.0339  0.1061  0.2229
 3588W        W19849   5.752  10.270   4.344  0.0132 -0.1453 -0.0801
 3589W        W19850  19.370  11.880   0.038 -0.3626  0.0941  0.0181
 3590W        W19851  17.650   1.468  10.750 -0.0752 -0.1134  0.1025
 3591W        W19852  14.027  15.851   4.237 -0.0083 -0.0452 -0.1382
 3592W        W19853  11.805   0.689   2.027 -0.0875  0.2631  0.1040
 3593W        W19854   0.593   0.628   1.804  0.1008  0.4256  0.5775
 3594W        W19855  13.023  19.403   2.481  0.1541  0.0154  0.0695
 3595W        W19856  17.992  17.756   2.489 -0.2903 -0.4035 -0.1022
 3596W        W19857   7.463  16.750   2.671 -0.1032  0.1422 -0.0338
 3597W        W19858  16.587  16.550  12.902  0.0326  0.0407  0.2634
 3598W        W19859  15.558  17.468   6.271  0.0242  0.0352 -0.1887
 3599W        W19860  15.383   7.317   2.315 -0.1355  0.0511  0.1421
 3600W        W19861  16.136  14.553  12.496  0.0005 -0.0973  0.1615
 3601W        W19862  12.973   4.438  14.701 -0.0452  0.2314 -0.0490
 3602W        W19863   9.132  11.907  14.628  0.4656  0.0793 -0.1886
 3603W        W19864   2.343   0.816  13.001  0.0213  0.0427 -0.2019
 3604W        W19865   7.753   6.328   9.557 -0.3910 -0.0405 -0.0500
 3605W        W19866  12.315   5.480  10.149 -0.3551  0.1032 -0.0157
 3606W        W19867  19.042  17.255   4.424  0.3055 -0.0285  0.1430
 3607W        W19868  14.932  13.513  13.536 -0.5571  0.0187  0.0609
 3608W        W19869   9.640   0.446   0.716 -0.0155 -0.1020  0.0420
 3609W        W19870  13.269  12.564  10.689 -0.0591 -0.1861  0.1330
 3610W        W19871   4.928   3.078   1.809  0.0966 -0.0479  0.0104
 3611W        W19872  13.629  10.662   2.919  0.0388 -0.0089 -0.2255
 3612W        W19873  15.636   5.672   2.559 -0.3206  0.0421 -0.2879
 3613W        W19874  11.885  13.711   2.747  0.1453 -0.1384  0.1471
 3614W        W19875  19.343   5.608  11.288 -0.3356  0.0070  0.0634
 3615W        W19876   7.810  15.040   3.220  0.0790 -0.0344  0.1301
 3616W        W19877  14.858   0.353  11.565  0.0585 -0.1770 -0.0154
 3617W        W19878   3.562   0.070  13.292  0.0282 -0.1524 -0.1684
 3618W        W19879   3.311  11.630  13.373 -0.2848  0.0023  0.0845
 3619W        W19880   2.447  16.080  10.493 -0.1209  0.1671  0.0666
 3620W        W19881  15.760   7.299  10.807 -0.3163 -0.1678 -0.0919
 3621W        W19882  14.510  13.822  13.739  0.2332  0.1364  0.1432
 3622W        W19883  17.112   3.199   0.330  0.1363 -0.1579 -0.0591
 3623W        W19884   9.321   9.523  12.768 -0.1153  0.1828  0.3040
 3624W        W19885  15.582  15.261   3.808  0.2048 -0.0581  0.4927
 3625W        W19886   0.139  14.353   2.604 -0.0725 -0.3166  0.1743
 3626W        W19887   5.880  10.405   3.851  0.0934 -0.2217 -0.3214
 3627W        W19888  13.697   6.831   3.928 -0.3164  0.2523 -0.2717
 3628W        W19889  13.861  14.932   1.137 -0.0730 -0.1491  0.4639
 3629W        W19890   3.596  10.528  14.138 -0.0535  0.0966 -0.2433
 3630W        W19891   0.702  16.495   0.441 -0.3505 -0.0391  0.1036
 3631W        W19892   5.396   1.050  11.256  0.2297 -0.2133 -0.2512
 3632W        W19893  15.062  19.299  11.616  0.0024 -0.0917 -0.2387
 3633W        W19894   7.182  18.435   4.582  0.1937 -0.0029  0.0233
 3634W        W19895   0.181   8.396  13.449  0.1985 -0.1289 -0.2660
 3635W        W19896  17.372  12.571  11.536  0.0713 -0.0291  0.1868
 3636W        W19897  13.468  19.116  14.509  0.0800 -0.2125  0.0620
 3637W        W19898  16.749   9.253   2.831  0.0979  0.3728  0.1832
 3638W        W19899  12.922  14.616   3.375  0.0851 -0.0312 -0.0918
 3639W        W19900   6.761   1.394  10.309  0.0578 -0.1509  0.0613
 3640W        W19901   2.317  12.033  11.879  0.1039  0.4393  0.0096
 3641W        W19902   6.556   5.918  11.498 -0.0115 -0.0086 -0.0027
 3642W        W19903  11.279  15.117   1.370  0.2221  0.0584  0.4169
 3643W        W19904   9.560   6.859  12.641 -0.0077  0.2208  0.0404
 3644W        W19905  18.348   5.520  11.991 -0.1367 -0.1218 -0.1452
 3645W        W19906   1.095  18.818  12.566  0.0113 -0.0619 -0.2104
 3646W        W19907  11.783   8.926   1.085  0.2474 -0.1641  0.1067
 3647W        W19908  14.233  13.784   4.153 -0.0631 -0.1680  0.2473
 3648W        W19909  16.528   8.862  13.393 -0.1985 -0.3362 -0.0376
 3649W        W19910   3.479  12.251   4.188 -0.0427 -0.6326  0.1181
 3650W        W19911  15.867   9.416   5.833 -0.0042 -0.5436  0.1707
 3651W        W19912  11.758  10.888  12.095  0.3034  0.2584  0.2729
 3652W        W19913   6.974   6.112  10.293 -0.0115 -0.0516 -0.1359
 3653W        W19914  16.769   7.737  14.339  0.1413  0.0942  0.1977
 3654W        W19915   0.257  16.241  14.316  0.0714  0.0441  0.0264
 3655W        W19916  15.190   7.847   1.508  0.4706 -0.0560 -0.2040
 3656W        W19917   0.381   7.716  10.285  0.2756 -0.0683 -0.0489
 3657W        W19918  17.882   3.446  12.403  0.0957  0.0168 -0.0336
 3658W        W19919   5.826  10.545   0.060 -0.1153 -0.1289  0.0599
 3659W        W19920  10.017  18.700  11.086 -0.0109  0.1102 -0.0854
 3660W        W19921  15.464   7.113  12.403 -0.3384  0.1078 -0.1980
 3661W        W19922  18.879   5.681  12.080 -0.0398  0.0003  0.0228
 3662W        W19923  17.520   0.266   2.023  0.1514  0.2518 -0.1391
 3663W        W19924   0.430  12.634  11.346 -0.3780  0.0494  0.1462
 3664W        W19925   5.496   2.483   4.046 -0.1091  0.2058  0.3121
 3665W        W19926   3.783  14.446   0.150 -0.1941  0.0598 -0.2626
 3666W        W19927   2.149  10.742   3.223 -0.0460 -0.0098  0.0312
 3667W        W19928  11.013   2.454   0.252  0.1910 -0.1924  0.1314
 3668W        W19929  15.032  10.750  14.063  0.1148  0.3097 -0.2930
 3669W        W19930  13.451  16.410   3.684 -0.3180  0.0798 -0.0681
 3670W        W19931  10.090   5.468  13.088 -0.2817 -0.0926 -0.2302
 3671W        W19932   4.767   5.828   1.614  0.1909  0.0224  0.0712
 3672W        W19933  14.001  19.079   0.743 -0.0128  0.0547  0.0065
 3673W        W19934   8.164   6.677  14.044 -0.0033 -0.3789 -0.1591
 3674W        W19935   6.822  10.685  11.363  0.1607 -0.4346 -0.1288
 3675W        W19936  17.079  12.160  13.126  0.0306 -0.4079  0.1346
 3676W        W19937  19.220   2.002   2.726  0.1737 -0.0811  0.3645
 3677W        W19938   7.528   1.776   0.094 -0.1230 -0.0391  0.1105
 3678W        W19939  17.232   2.037   0.852 -0.2115 -0.0482 -0.4103
 3679W        W19940   5.878   6.286  12.086  0.0810  0.1563  0.0215
 3680W        W19941   5.323  10.445  11.746 -0.4422 -0.3264 -0.2772
 3681W        W19942  11.975   3.234  14.004  0.0033  0.3568  0.1497
 3682W        W19943   7.880   7.653  11.650  0.0197 -0.2001  0.0774
 3683W        W19944   2.818   2.689  14.032  0.0863 -0.0348  0.0154
 3684W        W19945   9.712  14.779   2.282  0.1377 -0.2755 -0.0659
 3685W        W19946  18.590   0.426   2.801 -0.0469 -0.0119  0.1088
 3686W        W19947   3.442   7.765  14.220 -0.0565 -0.1468  0.1881
 3687W        W19948  14.597   3.790   3.648 -0.0014 -0.1070  0.0544
 3688W        W19949   9.876  10.464  11.961 -0.1999  0.0539  0.1743
 3689W        W19950   4.277   7.616   3.705 -0.2118  0.3002 -0.0747
 3690W        W19951   3.403  15.043  10.770 -0.0242  0.0081 -0.1209
 3691W        W19952   1.607   8.365   1.878  0.1368  0.1679 -0.0593
 3692W        W19953  11.708   8.032   4.779 -0.1975  0.0596  0.0887
 3693W        W19954   3.962   8.342  13.047  0.0740  0.0346  0.1140
 3694W        W19955   4.136   4.473  10.023  0.2015 -0.1077 -0.1014
 3695W        W19956   5.831   3.297   1.716  0.2612  0.0275  0.2392
 3696W        W19957   3.662   1.200  14.018 -0.4094 -0.5548 -0.3689
 3697W        W19958   2.391   9.820  13.221 -0.3088 -0.0103  0.1696
 3698W        W19959   2.207  14.719   4.656 -0.1935  0.3404 -0.0637
 3699W        W19960   2.087   7.118   4.146  0.2759  0.0772 -0.1198
 3700W        W19961  10.220  10.510  11.298  0.0068 -0.1869  0.0978
 3701W        W19962  16.443   4.699   2.447  0.1817 -0.1495  0.0405
 3702W        W19963   0.416  14.231   5.435 -0.1945  0.0973 -0.1309
 3703W        W19964  16.390   0.615   1.742  0.1147 -0.0649 -0.0150
 3704W        W19965   2.005  17.424  14.402  0.0146 -0.0082  0.0886
 3705W        W19966   8.686  14.951  14.654 -0.2128  0.2316 -0.0505
 3706W        W19967  17.971  18.745   5.017 -0.0758  0.0077  0.0660
 3707W        W19968  12.227  10.310   3.043  0.1619  0.0930  0.2389
 3708W        W19969  12.071  12.269  10.510  0.1242  0.1943 -0.4284
 3709W        W19970  18.945  14.657   0.340 -0.0672 -0.2931  0.3382
 3710W        W19971  14.616   5.426  10.592 -0.2902  0.0149 -0.0911
 3711W        W19972   0.364  14.694  12.012 -0.0766 -0.1691 -0.2188
 3712W        W19973  13.503   4.573  11.670 -0.0780  0.1182 -0.0722
 3713W        W19974  14.391   9.129  11.621  0.2486 -0.1643  0.1821
 3714W        W19975  17.689   2.120   5.567  0.0446  0.1155  0.0648
 3715W        W19976   6.192  11.048  10.854  0.1148  0.1156 -0.1535
 3716W        W19977  15.729   7.013   4.367 -0.0009  0.1207  0.1189
 3717W        W19978  11.977   3.929   3.294 -0.0669 -0.1960  0.0544
 3718W        W19979  17.638  17.812  11.462 -0.2107  0.0644  0.1680
 3719W        W19980   2.064   3.837  10.686  0.2529  0.0726 -0.2737
 3720W        W19981   5.682   1.083  10.242  0.1154 -0.0553  0.0060
 3721W        W19982   0.388   8.932   3.724  0.0041 -0.0913 -0.2145
 3722W        W19983  16.546   7.864   3.821  0.2579  0.3776  0.2384
 3723W        W19984  16.226  11.194  12.647  0.0813 -0.2220 -0.0534
 3724W        W19985   9.069   4.294  14.192  0.1367 -0.1570  0.2479
 3725W        W19986   8.892  18.281  10.365  0.2169 -0.2752  0.1524
 3726W        W19987  13.888   6.991  11.978  0.3213 -0.1861  0.0799
 3727W        W19988  17.807   2.101   1.100  0.0819  0.0297 -0.0808
 3728W        W19989  14.000  18.495   3.955  0.1373  0.0466  0.1977
 3729W        W19990  18.690  11.775  10.804 -0.1017 -0.0668 -0.0139
 3730W        W19991   0.008  12.199   3.781  0.1264  0.1512 -0.2226
 3731W        W19992  17.553   7.104  11.251 -0.1420  0.1280 -0.0129
 3732W        W19993   0.875   4.582   3.782  0.2080 -0.1182  0.0026
 3733W        W19994   7.778   2.725   2.395 -0.1020  0.0074 -0.3833
 3734W        W19995   0.840   0.695  10.617 -0.1979 -0.0432  0.1006
 3735W        W19996  15.006  19.360  12.091 -0.0170  0.0584 -0.0463
 3736W        W19997   1.281  10.693  12.116 -0.0346 -0.1257  0.0919
 3737W        W19998  12.252   3.755   0.977 -0.3044  0.0716 -0.3595
 3738W        W19999  11.966   7.376  14.022 -0.0324 -0.3230 -0.4049
 3739W        W20000   6.781  10.179   4.298 -0.1069  0.2148 -0.0866
 3740W        W20001   1.265   6.844   1.293 -0.0384 -0.0649 -0.1502
 3741W        W20002   5.637   8.796  14.416  0.0163  0.1204  0.1582
 3742W        W20003  10.887  16.722   3.738  0.3042 -0.2824 -0.2090
 3743W        W20004  10.605  10.271   1.894 -0.0568  0.3355  0.0421
 3744W        W20005   0.390   2.213  13.282 -0.1139  0.1058 -0.0260
 3745W        W20006   6.719  19.004  12.078  0.2750  0.0160 -0.3706
 3746W        W20007  14.820   6.869   1.130 -0.0321 -0.3643 -0.0009
 3747W        W20008   7.717   2.572   9.749  0.1539 -0.0983  0.1215
 3748W        W20009  10.294   9.847  10.164  0.1666 -0.2071  0.1188
 3749W        W20010   9.539   7.504   0.690 -0.4164  0.5979  0.2988
 3750W        W20011   3.997   8.886  10.084  0.1044 -0.1454  0.2522
 3751W        W20012  12.331  17.272  12.002 -0.1192  0.0327  0.1317
 3752W        W20013   3.694   8.561   4.773  0.1968 -0.2593  0.1945
 3753W        W20014  17.537  19.304   1.847 -0.0411 -0.0123 -0.0380
 3754W        W20015   7.715   1.966   1.311  0.0659  0.0408 -0.1223
 3755W        W20016   2.841  13.277   0.298 -0.3931  0.1039  0.1502
 3756W        W20017   1.013   6.255   1.089  0.0282 -0.4688 -0.0884
 3757W        W20018  18.129  10.564   3.297  0.0877 -0.0420 -0.1370
 3758W        W20019  18.550   3.088  14.298  0.0828  0.1069  0.1093
 3759W        W20020   8.628  18.939   3.553 -0.0009 -0.0325  0.2502
 3760W        W20021   4.584  14.176   4.111 -0.2135  0.0066 -0.0877
 3761W        W20022   1.019  13.793   3.403  0.0913 -0.0690  0.2259
 3762W        W20023   5.557  16.467   4.145  0.0046  0.1512  0.2781
 3763W        W20024  17.058  12.153   1.898  0.0613 -0.0483 -0.3444
 3764W        W20025  18.832  18.795   4.699  0.1039  0.3601 -0.1760
 3765W        W20026  19.014  19.005  11.146  0.0490  0.4328  0.0423
 3766W        W20027   3.807   0.990  11.159 -0.0179 -0.1055  0.2013
 3767W        W20028  10.159  17.218   5.477  0.0202  0.4124 -0.2054
 3768W        W20029  18.995   4.586   0.804 -0.1227  0.2892  0.1386
 3769W        W20030  17.340   5.679   4.383  0.1867 -0.3141  0.0011
 3770W        W20031   2.960  12.445  14.067 -0.0126 -0.0655 -0.0421
 3771W        W20032   3.824   4.827  12.240 -0.0682  0.4883  0.1053
 3772W        W20033  13.264  18.306  13.701 -0.3033  0.1548 -0.2437
 3773W        W20034   2.716  16.048   1.049 -0.0789 -0.0515 -0.0338
 3774W        W20035   0.654  16.776  11.775 -0.1210 -0.3490 -0.0517
 3775W        W20036   2.716   5.762   2.863  0.4383 -0.1761 -0.0033
 3776W        W20037   1.723   9.739  11.703 -0.0057 -0.2886  0.0384
 3777W        W20038  13.189   6.416   0.566 -0.1476 -0.1549 -0.2725
 3778W        W20039  12.064  13.919  13.353  0.3414 -0.1505 -0.0907
 3779W        W20040   9.128   4.303  13.233 -0.6784 -0.2664  0.2922
 3780W        W20041  16.334   5.583  12.060 -0.1325  0.1369  0.1491
 3781W        W20042   9.004   6.411   1.097  0.1742  0.2038  0.2439
 3782W        W20043  18.230   4.556   2.418 -0.1946  0.1200 -0.1375
 3783W        W20044  10.218   4.528  11.147  0.2124  0.0763  0.1440
 3784W        W20045  10.451  15.909   3.401 -0.0783 -0.5060 -0.0641
 3785W        W20046   0.106   9.712  12.825  0.1906 -0.0235 -0.3225
 3786W        W20047  12.928   3.650   3.287 -0.0775 -0.2158 -0.1588
 3787W        W20048   8.828  12.804  11.858  0.1553 -0.0288  0.2998
 3788W        W20049   7.624  12.918   2.830  0.1775 -0.1437 -0.1248
 3789W        W20050  17.119  18.784   1.705 -0.0489 -0.1223 -0.1529
 3790W        W20051   0.085  18.993  13.528 -0.1773 -0.0476  0.0409
 3791W        W20052   7.433  18.959  13.660  0.1174 -0.1177 -0.1472
 3792W        W20053   0.228  17.739  13.137  0.1684  0.0456 -0.0980
 3793W        W20054  18.333  11.691  11.934  0.0782 -0.1706 -0.0609
 3794W        W20055  19.371   3.348   3.245 -0.3109 -0.1058  0.3468
 3795W        W20056  17.564  14.409  12.784 -0.0008  0.3369  0.2221
 3796W        W20057  11.493   6.919   9.509  0.1488  0.1168  0.1119
 3797W        W20058   0.032   6.442   1.063  0.0042  0.2374 -0.0240
 3798W        W20059   0.831   7.848   1.671 -0.2566  0.1011  0.0727
 3799W        W20060   8.423   1.446   2.271 -0.1746 -0.1166  0.1754
 3800W        W20061   8.998  10.217   2.074 -0.1384  0.0090  0.2809
 3801W        W20062   3.154   7.767  10.417  0.0078 -0.0373  0.1953
 3802W        W20063   7.696   9.869  12.902  0.0855  0.1021 -0.1622
 3803W        W20064   7.712   7.049  12.514  0.2458 -0.1522 -0.0602
 3804W        W20065   0.427   9.881   0.088  0.3481 -0.0188 -0.0216
 3805W        W20066  18.264   7.779   0.345  0.1222 -0.0575  0.0354
 3806W        W20067   8.264  11.903  11.484  0.0544 -0.2532 -0.0690
 3807W        W20068   3.385  13.461   5.165  0.0002  0.2094 -0.2401
 3808W        W20069   8.238  18.550   1.166  0.1913  0.1702  0.0673
 3809W        W20070   6.189   5.670   1.300 -0.2960 -0.1509 -0.2636
 3810W        W20071   1.443  16.611  11.277  0.1030  0.4264 -0.1461
 3811W        W20072  19.462   2.347   3.300 -0.0459  0.1008 -0.2640
 3812W        W20073  10.844   4.816   4.224 -0.2415 -0.1082  0.1928
 3813W        W20074   5.600   7.421   0.006  0.0710 -0.2263  0.1530
 3814W        W20075  13.419  13.790   4.869  0.1836  0.5042 -0.0344
 3815W        W20076  13.992   2.555   4.330 -0.0133 -0.2415 -0.3696
 3816W        W20077   0.643   5.584  11.872 -0.2806 -0.0516  0.1482
 3817W        W20078  10.889   8.697   3.233  0.3937 -0.2624  0.0205
 3818W        W20079  13.298  18.300   0.835  0.0016 -0.0712  0.0095
 3819W        W20080  13.091  17.337  13.222  0.1271 -0.0544 -0.0370
 3820W        W20081  10.354  18.996   1.699  0.2340  0.0587  0.3771
 3821W        W20082  13.080  19.142  11.472 -0.0519 -0.0584  0.1189
 3822W        W20083   9.542   3.410  14.484 -0.0807 -0.1313 -0.3109
 3823W        W20084   3.969   6.510   9.927 -0.2386  0.0795 -0.2091
 3824W        W20085  18.605   3.785   4.752  0.1550  0.1766  0.0571
 3825W        W20086   2.877   9.037  10.513 -0.0893  0.1487  0.0618
 3826W        W20087  18.693   4.246  13.424 -0.0152  0.1298 -0.1516
 3827W        W20088   6.517   0.007  13.421 -0.0247  0.0962 -0.2328
 3828W        W20089  13.522   5.942   4.661 -0.0930  0.1823  0.1769
 3829W        W20090  18.697   3.008   3.445  0.1945  0.2811  0.1174
 3830W        W20091  11.533   7.790   0.614  0.1221 -0.3955  0.1970
 3831W        W20092   9.502  10.028  12.799  0.0297 -0.1048 -0.1568
 3832W        W20093  10.860  16.857  10.587  0.1807 -0.2099  0.2337
 3833W        W20094  16.223   0.137  13.048  0.0359 -0.1090 -0.1031
 3834W        W20095  19.406   7.023   4.254 -0.0773 -0.1273  0.0336
 3835W        W20096  14.755  12.762   1.228 -0.0442 -0.1875  0.0279
 3836W        W20097   8.438  12.780   1.285  0.0666  0.2629  0.0771
 3837W        W20098   3.276   5.568   3.958  0.0113  0.1316  0.0196
 3838W        W20099   0.201   0.747   0.835 -0.1675  0.0258  0.0241
 3839W        W20100  16.454  14.750  11.696 -0.1196 -0.0942 -0.1374
 3840W        W20101   5.166  16.260  10.608  0.2148 -0.2864  0.0187
 3841W        W20102   1.085   2.929  14.358 -0.1365  0.1740  0.0576
 3842W        W20103  16.046   8.450  11.238 -0.2105 -0.1064 -0.1152
 3843W        W20104  16.040  16.332   1.825 -0.0797 -0.1159  0.1742
 3844W        W20105   0.351   6.808   2.820  0.0944  0.0397  0.3577
 3845W        W20106  15.250   3.428   1.878 -0.0059 -0.0368  0.2306
 3846W        W20107   1.025   0.569   0.681 -0.0567  0.0713  0.1082
 3847W        W20108   4.944  17.274   1.627  0.2579 -0.1937 -0.1637
 3848W        W20109   4.504  13.385  10.048  0.1224 -0.0646 -0.1851
 3849W        W20110   5.407   4.723  13.699  0.0570  0.0011  0.1140
 3850W        W20111  10.041  12.828   2.915 -0.2902  0.3135  0.4083
 3851W        W20112   7.402   7.985  10.611  0.0781  0.0334 -0.0626
 3852W        W20113  13.916   0.626   3.101 -0.0783 -0.1755  0.1191
 3853W        W20114  11.287  13.218  14.482  0.4194 -0.2080  0.0167
 3854W        W20115  13.541   6.136  12.805 -0.0105 -0.2674  0.1063
 3855W        W20116  17.177   1.090  12.093 -0.1099  0.1135  0.0709
 3856W        W20117  13.532  11.142   0.944  0.2306  0.1153  0.1504
 3857W        W20118   4.520   1.259  13.240  0.0510 -0.1065 -0.4013
 3858W        W20119  16.833   1.967   1.866  0.0868 -0.0160  0.0192
 3859W        W20120   3.326  13.431   2.545 -0.3334 -0.0895 -0.1359
 3860W        W20121   8.009  13.631   2.994 -0.0094  0.5036 -0.1158
 3861W        W20122  18.880  17.305   0.738  0.1355  0.1366 -0.0899
 3862W        W20123  18.964   0.932   1.653  0.1650  0.1040  0.0799
 3863W        W20124   8.751   9.068   1.506  0.4682 -0.2357 -0.0853
 3864W        W20125  18.456  18.472  12.326  0.1812  0.2361 -0.2020
 3865W        W20126   8.934   1.327   0.207 -0.1968 -0.1573 -0.0147
 3866W        W20127  12.798  11.604  13.344 -0.1169 -0.0580 -0.3635
 3867W        W20128   9.252   0.916  11.645 -0.1184 -0.1680 -0.0755
 3868W        W20129   6.811  15.504  11.853 -0.1160  0.1387  0.3628
 3869W        W20130   0.407  11.401  14.133  0.1743  0.0404  0.5183
 3870W        W20131   9.390   4.823  10.044 -0.0762  0.3157  0.0544
 3871W        W20132  17.774  15.162  14.201  0.1497  0.2312 -0.1880
 3872W        W20133  14.776   0.910   1.106  0.0774  0.1599 -0.0509
 3873W        W20134  11.959   0.210  11.033 -0.3259  0.0845 -0.2037
 3874W        W20135  10.988   4.202   9.261  0.1201  0.1931 -0.0053
 3875W        W20136  16.768  15.583  12.290 -0.0408 -0.0650  0.0302
 3876W        W20137   3.603  18.210  14.290 -0.4439  0.2143 -0.1286
 3877W        W20138  13.087   4.574   4.596  0.0123 -0.0849 -0.5829
 3878W        W20139   0.299   8.603   4.580 -0.0691  0.0812 -0.0532
 3879W        W20140  16.483  17.744  13.929  0.0977 -0.0511 -0.0393
 3880W        W20141  16.675  18.281  10.374 -0.2039  0.1913 -0.2007
 3881W        W20142   4.150  15.925   2.715 -0.2421 -0.0235  0.0857
 3882W        W20143  13.684   1.871   4.824  0.1201  0.0085  0.4122
 3883W        W20144   9.609  18.093   1.785 -0.0918  0.1567 -0.3930
 3884W        W20145  11.431  11.438  10.401  0.2195  0.1366 -0.1129
 3885W        W20146  10.411  11.433  13.241  0.1472 -0.1273  0.2307
 3886W        W20147   3.661  10.187  13.683 -0.3387 -0.0989  0.4149
 3887W        W20148  14.208  11.852  11.122 -0.4034 -0.0724 -0.1453
 3888W        W20149   6.936   2.508  11.305  0.0329  0.0776  0.0565
 3889W        W20150  17.066  18.897   0.814  0.0043 -0.4364  0.1979
 3890W        W20151  14.570  14.048   5.069  0.1406 -0.0633 -0.2146
 3891W        W20152  17.475   6.350  12.602  0.0256  0.1527 -0.1169
 3892W        W20153  14.003   8.233   1.724 -0.0537 -0.2098 -0.0820
 3893W        W20154   7.875  17.951   3.610  0.1511 -0.1092  0.3973
 3894W        W20155  13.357   1.264   2.932 -0.1650 -0.1211  0.2374
 3895W        W20156   7.453   3.329  10.754  0.1633 -0.0333  0.0844
 3896W        W20157  14.082   9.446   3.682  0.0641 -0.5688 -0.2733
 3897W        W20158  12.578   5.665  11.098 -0.3147  0.0066  0.2319
 3898W        W20159   7.446   5.653   0.458  0.2362  0.1929 -0.1726
 3899W        W20160   4.491   9.441   0.086  0.3261  0.2591  0.2511
 3900W        W20161  10.869   9.927   1.072  0.2162  0.3050 -0.0912
 3901W        W20162   2.599  14.540   4.922 -0.0472 -0.0924  0.1713
 3902W        W20163  10.469  17.405  12.641 -0.1108 -0.0726 -0.0827
 3903W        W20164  14.271   5.979   1.897 -0.0630  0.0638  0.0217
 3904W        W20165   7.902   3.183  12.501 -0.2781 -0.1726 -0.2340
 3905W        W20166  18.987  14.032   1.376  0.0964  0.1783 -0.0211
 3906W        W20167  10.835  15.439  13.071  0.1288  0.2403  0.0027
 3907W        W20168  10.023   2.453  11.849  0.1673  0.2443 -0.0334
 3908W        W20169   3.221   3.405   9.735  0.0768  0.3540  0.1484
 3909W        W20170   6.639  15.326   2.334  0.1622 -0.0018 -0.0673
 3910W        W20171  19.254   8.150   3.809 -0.2151 -0.0388  0.2113
 3911W        W20172  10.091   0.732   3.550 -0.0052 -0.0003 -0.2339
 3912W        W20173   4.024   8.303  14.045 -0.1574  0.1151  0.1656
 3913W        W20174   2.531  14.361  10.144 -0.1945  0.1221 -0.4798
 3914W        W20175   0.409  11.724  12.539  0.1370 -0.0352 -0.1363
 3915W        W20176   6.833  18.456   5.436  0.0231 -0.2028 -0.1823
 3916W        W20177  13.259   8.123  12.262 -0.0393  0.0522  0.0348
 3917W        W20178  13.697   7.790  12.398 -0.0828 -0.3292 -0.3801
 3918W        W20179  13.928  10.761   2.511 -0.0915  0.0572 -0.0677
 3919W        W20180  12.751   6.842  12.648 -0.1070 -0.0014 -0.1042
 3920W        W20181  16.609   1.361   3.007  0.0365 -0.0378 -0.2757
 3921W        W20182  14.769  10.294   2.345  0.1853  0.1673  0.5114
 3922W        W20183   3.901   7.495   1.518  0.0154 -0.0451 -0.2226
 3923W        W20184   1.660  16.401  12.112  0.0304  0.0468  0.1205
 3924W        W20185  16.153  15.144   1.273  0.1663  0.1755  0.2264
 3925W        W20186   6.558  19.298   3.348  0.0975 -0.0943  0.0295
 3926W        W20187  13.909   5.265   0.346  0.0297 -0.1029 -0.0831
 3927W        W20188  14.465  12.807  12.506  0.0983  0.2818 -0.0012
 3928W        W20189   2.823   6.492   2.103  0.1071 -0.0466  0.0660
 3929W        W20190  16.785   4.533  14.730 -0.2417  0.0313  0.0878
 3930W        W20191   1.238   0.987  10.503 -0.1136  0.1730 -0.0723
 3931W        W20192  14.509   1.605  14.491 -0.0196  0.3996 -0.1396
 3932W        W20193   1.596  10.532  14.435  0.1512  0.1587  0.1049
 3933W        W20194   5.130   0.654   1.472 -0.2150  0.0315 -0.2314
 3934W        W20195   2.932  16.429   3.489  0.0084 -0.2579  0.1482
 3935W        W20196   7.713  12.573  14.023  0.1049 -0.2381 -0.3080
 3936W        W20197  12.310  10.688  10.763  0.1858 -0.1157 -0.0467
 3937W        W20198  16.004   8.894   2.187  0.1952  0.1564  0.2042
 3938W        W20199  18.530   4.599   1.027 -0.1749  0.3679 -0.0314
 3939W        W20200   7.015  18.936   1.751  0.3120  0.0920 -0.1373
 3940W        W20201  14.608   0.299   4.275  0.0349 -0.0806 -0.1398
 3941W        W20202   3.434  15.322   5.653  0.1232 -0.1029 -0.0512
 3942W        W20203  11.804   6.607   4.197 -0.1777 -0.0563 -0.0097
 3943W        W20204  14.224  13.307   3.915  0.0323  0.1962 -0.0118
 3944W        W20205   8.089  15.447  11.196  0.1535 -0.0140 -0.4694
 3945W        W20206   6.566   7.076  14.171  0.0749  0.2546 -0.1445
 3946W        W20207   5.743   9.065   1.416 -0.0748 -0.2029 -0.0209
 3947W        W20208  10.872   1.562   4.381 -0.3409  0.1409 -0.3204
 3948W        W20209   5.455   9.555   2.905  0.0530 -0.1114  0.1551
 3949W        W20210   5.321  15.029  10.213 -0.0891  0.1985 -0.1862
 3950W        W20211  11.180  15.934  13.239 -0.0962  0.0012 -0.1390
 3951W        W20212  13.241   6.813   1.880  0.3092  0.0684  0.0071
 3952W        W20213  18.451   4.062  11.176  0.0832 -0.4355  0.2846
 3953W        W20214  18.679  15.997   3.212  0.0522 -0.2388  0.0450
 3954W        W20215   5.919  18.090  12.172 -0.0876  0.1329  0.0408
 3955W        W20216   4.819  10.352  10.881  0.1280  0.1518  0.0214
 3956W        W20217   4.203  16.634   2.017 -0.0822 -0.0391 -0.3244
 3957W        W20218   9.545  15.034   2.707  0.1069 -0.0716  0.4886
 3958W        W20219  12.243  12.572   4.653  0.1745 -0.3343 -0.1234
 3959W        W20220  13.181  11.529   5.610 -0.0620 -0.0010 -0.1525
 3960W        W20221   2.218   7.570   4.437  0.3029 -0.2878 -0.3298
 3961W        W20222  18.276   7.186  14.673 -0.4063 -0.2028  0.0547
 3962W        W20223   3.681  17.886  13.082 -0.0131  0.1063 -0.0393
 3963W        W20224   8.004  10.934   2.986 -0.0003 -0.1017 -0.0076
 3964W        W20225   0.179  14.960  12.979  0.0513  0.2061 -0.2803
 3965W        W20226   1.883  11.956  12.015  0.3637  0.1099  0.0835
 3966W        W20227  16.233  13.253  13.246 -0.2970 -0.0215 -0.2634
 3967W        W20228   1.871  15.695  13.296 -0.1657  0.3640  0.0780
 3968W        W20229   6.259  13.373   0.735  0.1542 -0.0282 -0.1494
 3969W        W20230  15.069   6.408  13.187  0.1900  0.3459  0.1716
 3970W        W20231   1.822   2.742  11.494 -0.3122  0.0094  0.0132
 3971W        W20232   4.023  16.020   4.580  0.0573  0.0838 -0.0613
 3972W        W20233   6.805  18.429   2.492  0.0544 -0.0002  0.0016
 3973W        W20234  13.406  11.590  12.819  0.0192 -0.1622 -0.0723
 3974W        W20235  17.455   3.941   3.202  0.1235 -0.1198 -0.1697
 3975W        W20236   9.247  14.683   2.423 -0.1061 -0.1428 -0.1922
 3976W        W20237  16.561  11.223   4.593  0.1691  0.0705  0.1856
 3977W        W20238   9.036  11.125   2.915  0.0243  0.0783  0.0630
 3978W        W20239   6.503   9.055  10.739 -0.1493  0.0654  0.0438
 3979W        W20240  15.533  18.723  12.890 -0.3754  0.0866 -0.0388
 3980W        W20241   2.260   7.713  12.817  0.1676 -0.2615 -0.1253
 3981W        W20242  10.524   5.839   8.882 -0.3286  0.1156  0.1621
 3982W        W20243  15.010  18.110   0.372 -0.0014  0.0358 -0.3467
 3983W        W20244   1.189  17.340  13.067 -0.0087 -0.2577 -0.1805
 3984W        W20245  12.254   7.814  14.038  0.1393 -0.1249  0.2752
 3985W        W20246  14.143   0.425   5.619  0.0068 -0.0788 -0.2164
 3986W        W20247   9.694   7.708   2.329 -0.2418  0.0550  0.0280
 3987W        W20248  15.046  10.394  10.014  0.2083 -0.0988  0.1641
 3988W        W20249  15.081   8.379  14.223 -0.0682 -0.2198 -0.0852
 3989W        W20250   2.804   3.618  10.135  0.0837 -0.1955 -0.5770
 3990W        W20251  13.354   3.755   2.266 -0.1431 -0.0451 -0.0741
 3991W        W20252   1.814  15.891  11.231 -0.2356 -0.2164  0.2870
 3992W        W20253   0.897   7.929   2.697 -0.2287  0.2082  0.1887
 3993W        W20254   4.212   8.333   2.551  0.5221 -0.3161 -0.1819
 3994W        W20255  11.986  17.596   2.995 -0.2340 -0.2524  0.0401
 3995W        W20256  16.319  13.217  14.138 -0.0385  0.0291  0.3091
 3996W        W20257  18.800   4.202   1.006 -0.0269  0.2877  0.0644
 3997W        W20258   7.065   5.588  14.515  0.1169 -0.0655  0.1807
 3998W        W20259  18.875   1.427   4.070 -0.1902  0.1432 -0.0330
 3999W        W20260  19.365  11.284  10.588  0.0498 -0.1537  0.0172
 4000W        W20261  10.743  14.823   4.590  0.1371 -0.0154 -0.2163
 4001W        W20262  19.033   0.855  11.749  0.1674 -0.0065 -0.0097
 4002W        W20263   0.635  12.089  12.740  0.0401  0.0729  0.2861
 4003W        W20264  10.956   0.949   1.746 -0.0825 -0.1520  0.0482
 4004W        W20265  12.692   6.047   3.021 -0.1629 -0.2166 -0.0617
 4005W        W20266   4.850   7.860   3.185 -0.2376  0.2233  0.0973
 4006W        W20267  10.522  13.621  14.061  0.2635  0.2597 -0.0420
 4007W        W20268   9.030   7.671  13.690  0.0964  0.0673 -0.1040
 4008W        W20269  14.517   1.208   3.106  0.4893 -0.5881  0.1038
 4009W        W20270  13.403  11.195  12.143  0.1143 -0.3820 -0.0732
 4010W        W20271   2.810  10.863  13.875  0.2703  0.0620  0.1071
 4011W        W20272  15.880   9.884   3.611 -0.0820  0.0759 -0.0666
 4012W        W20273   0.419  14.921   1.220  0.0188 -0.0110 -0.0396
 4013W        W20274   5.517   3.784  14.134  0.0574 -0.0693 -0.0485
 4014W        W20275  16.157   9.990  14.725 -0.1449  0.0061  0.0819
 4015W        W20276   9.041   7.871  10.285  0.0742 -0.2514  0.1136
 4016W        W20277  15.560   6.322  13.743 -0.0918 -0.3137 -0.2878
 4017W        W20278   1.137  15.113   2.340  0.0958 -0.1174  0.0887
 4018W        W20279  10.241  14.778  13.276 -0.0050  0.1235 -0.0200
 4019W        W20280   1.776  15.203  13.319 -0.3990 -0.1684 -0.0416
 4020W        W20281   2.272  16.083  13.338 -0.1079 -0.3139 -0.1380
 4021W        W20282  13.863   9.091   1.543 -0.0495 -0.1838 -0.2228
 4022W        W20283  11.848  14.076  11.068 -0.1113  0.0585 -0.0945
 4023W        W20284  11.177  13.540  11.666 -0.2562 -0.1224  0.0369
 4024W        W20285   1.459  14.136   1.929  0.2548  0.2944  0.2164
 4025W        W20286   8.089   1.371   3.802 -0.0555  0.2329  0.1508
 4026W        W20287  17.677  12.636   3.442  0.0649 -0.1739 -0.5078
 4027W        W20288  10.611  18.259   4.032  0.1816  0.2117  0.0918
 4028W        W20289   4.880   4.678  12.795  0.0988 -0.0716  0.1210
 4029W        W20290   7.285  15.830   3.817  0.0442 -0.1888  0.2339
 4030W        W20291   8.572   4.775   0.535 -0.0231  0.0375  0.2376
 4031W        W20292   2.848   1.644  14.023 -0.1747  0.0705 -0.4522
 4032W        W20293   2.749  13.029   2.018 -0.0321  0.0123  0.0571
 4033W        W20294  13.842  16.161   2.999  0.3015  0.1696 -0.0193
 4034W        W20295   9.319   9.450   2.706 -0.0700 -0.1972 -0.1569
 4035W        W20296  19.434  11.302  11.106 -0.2745  0.0306 -0.3039
 4036W        W20297   7.989   3.197  11.059  0.0133 -0.2114 -0.1810
 4037W        W20298  13.145   0.064  13.755  0.1098  0.0019 -0.2341
 4038W        W20299  12.177  10.680   2.716 -0.0416 -0.0439 -0.1619
 4039W        W20300  16.099  13.707   2.475  0.1677 -0.0719 -0.2122
 4040W        W20301   1.362  13.765  12.075 -0.1587  0.0971  0.0795
 4041W        W20302   2.128   9.895   1.983 -0.0866  0.1871 -0.2226
 4042W        W20303  15.539   7.487   9.303 -0.0819 -0.0478  0.0805
 4043W        W20304  17.917  16.140  13.884  0.0755 -0.0664 -0.1711
 4044W        W20305   8.619  15.295  10.872 -0.4410 -0.0885 -0.2075
 4045W        W20306  14.931   2.819   9.905  0.2651  0.2325  0.1284
 4046W        W20307  15.922  12.766   0.728  0.3254  0.0197  0.3126
 4047W        W20308   0.764   1.225  10.550  0.2835 -0.1623 -0.0227
 4048W        W20309  18.251  16.644   2.895 -0.2140  0.0599  0.2740
 4049W        W20310  11.414   7.763   1.347  0.0923 -0.3557  0.0446
 4050W        W20311   7.843  10.740   4.231  0.0118 -0.3235 -0.0194
 4051W        W20312  16.367  13.447   3.821 -0.0267  0.3668  0.0569
 4052W        W20313   1.627  10.980  14.144 -0.3992 -0.0676  0.3394
 4053W        W20314  11.671  18.636  13.762  0.1639 -0.1149 -0.1678
 4054W        W20315  12.150   5.207   2.907 -0.0900 -0.1720 -0.0643
 4055W        W20316   4.935   5.403   2.433 -0.0133 -0.0500  0.2297
 4056W        W20317  17.938  15.832   3.875  0.3607 -0.1363 -0.0013
 4057W        W20318   5.233   4.468  11.531 -0.1043  0.1349 -0.1276
 4058W        W20319  11.808   2.951   0.819  0.1879 -0.1517  0.3506
 4059W        W20320  11.020   3.926   4.446 -0.1108 -0.2705  0.2126
 4060W        W20321   0.044  17.026  11.345 -0.0160 -0.3588  0.2512
 4061W        W20322  16.769   1.958   3.121  0.0967 -0.2276  0.0525
 4062W        W20323   4.150   8.784  13.227  0.0076 -0.2327 -0.0501
 4063W        W20324  10.103  17.664   5.208 -0.0828 -0.3070  0.1729
 4064W        W20325   1.789   7.412  12.626 -0.1813  0.0476 -0.1075
 4065W        W20326  11.968  15.301   2.609 -0.2663 -0.2085 -0.2458
 4066W        W20327  17.578  15.707   9.503  0.3664 -0.3880 -0.0042
 4067W        W20328   3.167   1.303   2.340  0.2220 -0.1885  0.0568
 4068W        W20329  15.182   6.963  11.279 -0.0615  0.3938 -0.0760
 4069W        W20330   8.420   6.252  11.485 -0.1396  0.1047 -0.2784
 4070W        W20331  10.024   3.170   1.810  0.2574  0.2389  0.1886
 4071W        W20332   9.230   1.918  11.918  0.1339 -0.0456  0.0811
 4072W        W20333  12.649   0.008   0.646 -0.1663  0.0692 -0.1576
 4073W        W20334  13.817  18.576  13.290 -0.1951  0.2436 -0.3026
 4074W        W20335   2.432   7.509   1.395 -0.0368 -0.1989  0.2761
 4075W        W20336   1.938  16.066   5.388  0.0169  0.1003 -0.0284
 4076W        W20337   6.724   8.218   3.628  0.2145  0.1227 -0.1229
 4077W        W20338  17.933   1.660  12.005 -0.1704 -0.2419  0.1222
 4078W        W20339   9.781  10.318  11.497  0.0501 -0.1768 -0.1176
 4079W        W20340  15.694   2.863  11.318 -0.4043  0.1349 -0.1270
 4080W        W20341   7.606   5.078   3.452 -0.3132  0.3098 -0.0904
 4081W        W20342  14.618  18.121  13.273  0.0655  0.3624  0.1537
 4082W        W20343  18.784   5.146  12.040 -0.3069 -0.0167  0.1193
 4083W        W20344  10.205   1.113   3.784 -0.3301 -0.2168 -0.1236
 4084W        W20345   9.009   1.444   2.835 -0.0596  0.1451 -0.3647
 4085W        W20346  19.405   5.140  11.283 -0.1872  0.2350 -0.2591
 4086W        W20347  12.973   6.019  10.110  0.0307  0.2437 -0.1870
 4087W        W20348  10.844  11.918   0.536 -0.0947  0.1948 -0.0774
 4088W        W20349   2.948  15.318   4.000  0.1746 -0.2860 -0.1195
 4089W        W20350  10.954   3.175   0.410  0.0971  0.1269  0.0801
 4090W        W20351  18.257   0.646   5.017  0.1621  0.2953  0.0120
 4091W        W20352  14.592   1.521  13.939 -0.2295 -0.1776 -0.0716
 4092W        W20353  13.888  15.861   1.057 -0.1403 -0.1036 -0.2662
 4093W        W20354   7.577   9.989   2.668  0.1839 -0.0841 -0.0534
 4094W        W20355  16.631  11.744   2.506  0.0381 -0.1249  0.3714
 4095W        W20356  13.409   3.892   3.624  0.2973  0.0256 -0.0045
 4096W        W20357  13.459   3.409   3.139  0.0301  0.0072 -0.0595
 4097W        W20358  18.196  19.257   5.202  0.4622  0.1027  0.3039
 4098W        W20359   2.149  14.819   3.276 -0.5087 -0.1089 -0.1679
 4099W        W20360   8.645   4.078  14.580  0.1395 -0.0366  0.0607
 4100W        W20361  16.988   7.118  12.065  0.0465 -0.0370  0.1705
 4101W        W20362  16.826   2.688   3.723 -0.1592 -0.0133  0.0082
 4102W        W20363   1.256  16.828  12.527 -0.3744  0.3366  0.0905
 4103W        W20364  11.273   0.007   3.592  0.3882  0.1936  0.0789
 4104W        W20365  15.802   0.212   3.560  0.0726  0.0682  0.3513
 4105W        W20366  16.973   6.201  14.408 -0.0428 -0.3468 -0.0868
 4106W        W20367   9.326  12.585   1.041 -0.0097 -0.0867 -0.4031
 4107W        W20368   2.677  18.222  14.366  0.0720 -0.2025 -0.1091
 4108W        W20369   7.840  17.575  10.258 -0.1245  0.1411 -0.0144
 4109W        W20370   4.447   2.670   2.748  0.0065 -0.1051 -0.1482
 4110W        W20371   9.144   2.150   4.376  0.4475  0.2548 -0.2434
 4111W        W20372   4.169  14.107  10.790 -0.2010 -0.2656  0.0378
 4112W        W20373  15.233   0.559  14.130 -0.1054  0.2380 -0.0993
 4113W        W20374  19.129   3.949  14.788 -0.2628  0.0276 -0.0396
 4114W        W20375   7.251  13.165   4.782  0.5267 -0.2540 -0.3131
 4115W        W20376   5.679   7.623   1.835 -0.0852 -0.1658 -0.2835
 4116W        W20377  10.046  19.087   3.370 -0.0799  0.1047  0.1653
 4117W        W20378   1.344  10.521   0.521 -0.1112 -0.1720 -0.3704
 4118W        W20379  13.593   4.495  10.271 -0.0625  0.0825  0.3680
 4119W        W20380   3.979   7.924  11.620  0.3343 -0.0017  0.1237
 4120W        W20381   0.335   7.975  13.152  0.0237 -0.0768 -0.2497
 4121W        W20382  12.568  18.372   4.551  0.0143  0.0285 -0.1157
 4122W        W20383  19.149   1.280  10.651 -0.0978 -0.2792  0.1002
 4123W        W20384  14.450  18.016   1.790  0.2174 -0.1225  0.0817
 4124W        W20385  15.721  17.284   4.619 -0.0693  0.0855  0.0067
 4125W        W20386   5.110  10.458  11.267 -0.3728 -0.2905  0.0551
 4126W        W20387   9.853   2.865  11.235 -0.2338  0.0089  0.0830
 4127W        W20388   8.860  15.221   0.969  0.3391  0.1437  0.2401
 4128W        W20389  16.361  17.132  13.477 -0.0444  0.0162 -0.1168
 4129W        W20390  18.338  19.334  10.899 -0.0087  0.0702 -0.1780
 4130W        W20391   3.610  14.547  13.205  0.4166 -0.1062  0.3364
 4131W        W20392   1.735  10.185   5.475  0.0593  0.0075  0.2408
 4132W        W20393   3.773   7.119   2.891  0.2202 -0.0901 -0.0458
 4133W        W20394  18.080   9.178  12.830 -0.1008 -0.0497  0.1723
 4134W        W20395   3.272  16.442   4.950 -0.0474  0.0013 -0.2989
 4135W        W20396  14.782  16.003  11.798  0.0628 -0.0066 -0.3780
 4136W        W20397   5.059   9.515  14.202  0.1817 -0.3056  0.0516
 4137W        W20398   0.594  11.864   4.895 -0.0860 -0.2209  0.1475
 4138W        W20399  14.823  16.933  12.291 -0.1771  0.3920 -0.0520
 4139W        W20400   8.791   7.469  11.030 -0.2425  0.2787 -0.1538
 4140W        W20401  18.503   3.512   1.660 -0.3043 -0.0783  0.0995
 4141W        W20402   5.619   6.355  12.525  0.2586 -0.1165  0.2969
 4142W        W20403   1.981  18.794  12.080  0.0552  0.0789  0.2738
 4143W        W20404  15.651  10.632   1.008 -0.2409  0.3788  0.1851
 4144W        W20405  11.090  14.424   4.075  0.0960  0.4670  0.2008
 4145W        W20406   7.450  10.719   1.799  0.1100  0.3816 -0.2112
 4146W        W20407   3.928  11.584   1.749  0.1338  0.2223  0.3468
 4147W        W20408  11.238   4.201   4.091  0.2460 -0.0749 -0.3249
 4148W        W20409  18.356   5.332  14.806  0.2724  0.1160  0.2744
 4149W        W20410  12.377   3.405   2.544 -0.3481 -0.2296 -0.4254
 4150W        W20411   0.592  15.266   0.418  0.1122  0.0466  0.1122
 4151W        W20412  16.283  19.379   9.519  0.3743  0.1356  0.0536
 4152W        W20413  13.957  14.305   0.816  0.1060  0.1868  0.2230
 4153W        W20414  17.858  13.761  11.188  0.0530  0.1673 -0.1085
 4154W        W20415  15.573   6.005   4.582  0.3338  0.0439  0.0598
 4155W        W20416  13.171   0.972  13.104 -0.2939  0.0221 -0.2154
 4156W        W20417   4.281  18.601  11.875  0.0666 -0.0292 -0.0279
 4157W        W20418  18.087  16.463  11.164  0.2348 -0.1440  0.1039
 4158W        W20419  14.502   9.574  13.413  0.1552  0.0728 -0.0223
 4159W        W20420  17.180  16.035   2.445  0.3194  0.1041  0.1447
 4160W        W20421   9.856  14.140  11.084 -0.1576 -0.0807  0.0664
 4161W        W20422  19.413   7.718   1.778 -0.1277 -0.2729  0.0662
 4162W        W20423  18.712   7.959   3.374  0.2399 -0.5247 -0.1752
 4163W        W20424  12.082   4.752  14.348  0.1442  0.2432  0.1903
 4164W        W20425  16.198  18.366  13.208 -0.1100  0.0348  0.2118
 4165W        W20426   8.412   5.210   1.809  0.1140 -0.0919  0.2090
 4166W        W20427   2.917   4.423   0.658 -0.0547  0.0181  0.4940
 4167W        W20428  11.384   6.349   4.258 -0.1579  0.0837 -0.1136
 4168W        W20429  15.740  18.887   1.862  0.0945 -0.2479  0.0396
 4169W        W20430  17.335  18.491   5.023  0.0831  0.0781 -0.1697
 4170W        W20431  12.871   9.871  11.320 -0.0522 -0.1044 -0.1029
 4171W        W20432   6.182   4.738   1.605 -0.0146  0.0979  0.0519
 4172W        W20433   2.203  19.153  11.209  0.0361  0.1973  0.0086
 4173W        W20434  13.028  16.567  13.965 -0.1510 -0.1219 -0.0221
 4174W        W20435  15.864  15.740   0.437  0.3307 -0.1958 -0.0675
 4175W        W20436   0.011   1.573   1.068 -0.1298 -0.1158  0.0734
 4176W        W20437  14.989  10.380  12.792 -0.2864  0.0984  0.3111
 4177W        W20438  11.261  10.707   4.416  0.1489  0.1442  0.0688
 4178W        W20439   6.100  16.002  10.756  0.1321  0.0117 -0.2437
 4179W        W20440  11.930   7.666  11.924  0.1163 -0.2575  0.1220
 4180W        W20441   5.771   1.831  14.552  0.3856 -0.4505  0.0569
 4181W        W20442   0.489  12.973   4.686  0.1548 -0.4027  0.0229
 4182W        W20443  15.006  18.446   4.730 -0.3431 -0.0480  0.0497
 4183W        W20444   7.596   6.178  11.575  0.2628  0.2790  0.0980
 4184W        W20445  11.744   9.875   1.380 -0.1976 -0.1834  0.0039
 4185W        W20446   5.719   2.154   0.222 -0.0918 -0.1861 -0.0501
 4186W        W20447   4.669  13.445   0.088  0.1363 -0.0869 -0.2527
 4187W        W20448  18.221  19.059  11.818  0.1490  0.2750  0.0405
 4188W        W20449  14.259   8.257  10.362 -0.3661 -0.0077 -0.3609
 4189W        W20450   8.909   8.960   3.553  0.1639  0.0877 -0.0969
 4190W        W20451  10.388   5.165   3.023 -0.3047 -0.0663 -0.2354
 4191W        W20452   6.576  10.754  10.751 -0.2150  0.3548  0.2193
 4192W        W20453   8.564   9.612   2.755  0.1687  0.1083 -0.0168
 4193W        W20454   7.544   3.692  11.894  0.2783  0.3348  0.1577
 4194W        W20455  14.910  15.951  10.418 -0.0455 -0.1915 -0.0495
 4195W        W20456   2.121   8.031  11.313  0.2040  0.0832 -0.2516
 4196W        W20457  16.036  11.104  14.797 -0.0990 -0.1365  0.0335
 4197W        W20458  14.815   4.314   3.936 -0.1774  0.1248 -0.2124
 4198W        W20459   7.162   5.032   1.722 -0.1810 -0.0694  0.1664
 4199W        W20460  16.694   4.294  10.820 -0.3592  0.0941  0.2387
 4200W        W20461  13.983  15.255   3.231 -0.1450 -0.1064  0.0702
 4201W        W20462  14.630  12.112   0.745  0.2595  0.1180 -0.0517
 4202W        W20463  17.591   4.300   4.030  0.1371 -0.1093  0.0986
 4203W        W20464  10.915  14.194   0.981  0.0708  0.3184 -0.0783
 4204W        W20465  12.820  11.044  10.654  0.1380 -0.0251 -0.1207
 4205W        W20466   6.267  18.364   9.705  0.3187 -0.0493  0.1900
 4206W        W20467  18.393  12.109  12.301 -0.0454  0.0234  0.1001
 4207W        W20468   0.296   8.810   0.554 -0.1002 -0.0183  0.1087
 4208W        W20469   1.864  12.349  11.671  0.0752 -0.1491  0.0127
 4209W        W20470   3.018  19.454  10.266 -0.3164 -0.2838 -0.2022
 4210W        W20471   5.354   5.861   0.688  0.0936  0.3125 -0.0801
 4211W        W20472  14.987   9.965   2.748 -0.1441 -0.0511 -0.0202
 4212W        W20473  15.074   4.550   1.612  0.2546 -0.1453  0.3370
 4213W        W20474  18.487  11.344  14.219  0.1515 -0.0488  0.3294
 4214W        W20475  15.312  19.354   1.812  0.3432  0.3891 -0.0332
 4215W        W20476   3.630  11.883  11.708 -0.1672 -0.2039  0.2744
 4216W        W20477  17.112   8.261  10.603  0.1089 -0.2475  0.1280
 4217W        W20478   2.460   0.776   0.960 -0.4221  0.1541 -0.4164
 4218W        W20479  15.301   2.654   2.853  0.0673 -0.2417  0.1665
 4219W        W20480   5.839   0.214  14.699 -0.1451 -0.0290  0.4396
 4220W        W20481  15.944  12.892   4.197 -0.0410  0.4015 -0.3140
 4221W        W20482  14.248  10.249  11.113  0.1607 -0.1341  0.1157
 4222W        W20483  11.682  16.551   3.199  0.0790  0.1780 -0.0262
 4223W        W20484   9.154  17.048   1.381  0.1560  0.1130  0.2162
 4224W        W20485  12.977   2.334   3.155  0.1684  0.2668  0.2283
 4225W        W20486   0.449  15.042  11.569  0.3558  0.4974 -0.0870
 4226W        W20487   8.143  12.276   4.694 -0.2553  0.2287  0.2148
 4227W        W20488   8.239   1.825   1.210 -0.1982 -0.2677  0.0184
 4228W        W20489   3.185   9.950   5.837  0.0759  0.0231 -0.0047
 4229W        W20490   7.797   1.651   0.936  0.2552 -0.0614  0.0064
 4230W        W20491   3.043  13.443   1.953 -0.4183 -0.0414  0.0857
 4231W        W20492   8.513  10.029   3.112  0.4170  0.3975 -0.0916
 4232W        W20493  16.094  10.957  13.984  0.0625 -0.3027  0.2867
 4233W        W20494   2.789   7.235   1.651 -0.1579  0.0463 -0.3206
 4234W        W20495   9.880   2.325   2.446 -0.1985 -0.0538  0.0581
 4235W        W20496   7.758  13.118   4.489 -0.0279 -0.3242  0.1384
 4236W        W20497  11.392   5.595   1.794 -0.4177 -0.2808  0.1098
 4237W        W20498  10.309  19.250   0.455  0.0460 -0.0585  0.0276
 4238W        W20499   7.617  14.283  14.617 -0.2866  0.0118 -0.0932
 4239W        W20500   6.692  14.569  12.732 -0.1256  0.1331  0.3102
 4240W        W20501  17.199   6.313   5.066  0.1477 -0.3243 -0.0121
 4241W        W20502   4.766   0.727   1.887 -0.0957  0.1655  0.0458
 4242W        W20503  14.375  14.746  13.464 -0.1962  0.3785 -0.1122
 4243W        W20504  19.078   9.661  10.456 -0.1018  0.0708 -0.0142
 4244W        W20505  14.010   2.752  10.412  0.4271 -0.1077  0.0467
 4245W        W20506   3.517  19.272  12.070 -0.0857  0.2087 -0.1352
 4246W        W20507  12.386   3.812   1.773 -0.1689 -0.1018 -0.0288
 4247W        W20508  18.052   4.572   0.810 -0.2087 -0.1825 -0.1282
 4248W        W20509  11.462  16.153   1.208 -0.1824 -0.1024  0.1201
 4249W        W20510  15.319  19.068   2.771 -0.0120  0.0679 -0.0149
 4250W        W20511  11.031  18.954  14.564 -0.0798 -0.0058 -0.3437
 4251W        W20512   7.330   9.885   3.675 -0.0736 -0.1926 -0.1874
 4252W        W20513   1.386   7.043   4.955  0.2660 -0.1600  0.0194
 4253W        W20514   3.578   2.100   1.797  0.0265  0.2769  0.1346
 4254W        W20515  11.442   4.721  13.554  0.0498  0.0701 -0.2887
 4255W        W20516   1.826   0.157   0.411 -0.0024 -0.1049 -0.2071
 4256W        W20517   1.396  18.827   4.158 -0.0107 -0.0971  0.3066
 4257W        W20518   4.087  18.964  14.806 -0.0070  0.1148 -0.0347
 4258W        W20519  17.820   7.926   0.353 -0.1181  0.0375 -0.6133
 4259W        W20520  18.351   8.457  11.799  0.0134 -0.2353 -0.1496
 4260W        W20521   9.120   0.368   0.045  0.0632 -0.0697 -0.0361
 4261W        W20522   4.178  16.860   0.573 -0.1109  0.0523 -0.1416
 4262W        W20523  13.696  16.714   0.613  0.2310  0.0365 -0.1272
 4263W        W20524   7.559  15.372   2.457 -0.2208 -0.0761 -0.1160
 4264W        W20525   6.623   4.795  11.442  0.0810 -0.0542 -0.1044
 4265W        W20526   1.625   0.885  14.410  0.0553 -0.1492  0.0546
 4266W        W20527  14.940   1.735  10.217 -0.1535 -0.0952 -0.2333
 4267W        W20528  18.099  14.434   2.441  0.0493  0.1099 -0.0028
 4268W        W20529   8.198   0.116   0.595  0.3119 -0.0851 -0.0623
 4269W        W20530   7.570  13.095  14.160  0.0344  0.3559  0.0152
 4270W        W20531   3.726   7.371  14.062  0.1691  0.1313 -0.0688
 4271W        W20532   4.300  11.278  12.451 -0.2056  0.1013  0.0862
 4272W        W20533  17.973  13.145   0.758  0.3157  0.2285  0.0104
 4273W        W20534  16.125   4.511   1.895  0.0718 -0.1126  0.0843
 4274W        W20535   7.081  17.254  10.621  0.0527 -0.6898 -0.0481
 4275W        W20536  17.230  19.331  12.472 -0.0748 -0.1395  0.1077
 4276W        W20537  12.243  10.851  12.066  0.2701 -0.0656  0.3460
 4277W        W20538  12.980   1.296  11.831 -0.1810 -0.3503 -0.0927
 4278W        W20539   8.496   2.239   2.915 -0.0101 -0.0745  0.0849
 4279W        W20540  18.714  13.375   5.312 -0.0655  0.1090  0.1506
 4280W        W20541  14.738   4.446   4.995 -0.0092 -0.0400  0.1819
 4281W        W20542  16.272   3.554   4.242 -0.0314 -0.1719  0.0202
 4282W        W20543  19.422  17.596   1.420  0.0822  0.0742  0.1760
 4283W        W20544   7.430   5.198  14.697  0.1331 -0.0229 -0.0032
 4284W        W20545  10.330   4.660   1.617  0.0418 -0.1142  0.4845
 4285W        W20546  17.380   8.964   2.728 -0.1239  0.2064 -0.0101
 4286W        W20547   4.241   0.869   0.448  0.0625 -0.0104  0.1492
 4287W        W20548   8.893  16.766  14.060  0.1237 -0.1600  0.0212
 4288W        W20549   0.125   2.040  14.716  0.0522  0.0757  0.0928
 4289W        W20550  12.247   7.228   4.666  0.0485  0.0128 -0.1683
 4290W        W20551  17.012   0.466   4.462  0.2380  0.1635  0.6141
 4291W        W20552   5.789  17.518   2.743 -0.1231 -0.1458  0.0485
 4292W        W20553  11.020   1.404  10.965  0.1133  0.0899  0.2290
 4293W        W20554  16.093   1.918   2.086  0.2877  0.3321 -0.1841
 4294W        W20555   0.783  13.752  10.099  0.2127  0.1807  0.1481
 4295W        W20556   6.962   7.558  11.711 -0.0804 -0.1040  0.0131
 4296W        W20557  15.440   4.622   0.430 -0.2337 -0.4613  0.2350
 4297W        W20558  19.351   5.004   0.062 -0.0621  0.0467 -0.0055
 4298W        W20559  11.417  13.331   3.570 -0.0368  0.0566  0.2137
 4299W        W20560   8.501  10.710   0.067  0.0959  0.0614 -0.0059
 4300W        W20561   0.926  14.757   1.372 -0.0083  0.0942  0.1784
 4301W        W20562   3.519  10.916   4.384 -0.1242  0.0846  0.1372
 4302W        W20563  12.716  11.855  14.216  0.2543  0.0694 -0.0043
 4303W        W20564  12.616  15.384   1.061  0.2512 -0.0103  0.4023
 4304W        W20565  11.515  16.190   0.111 -0.2325  0.2832 -0.0467
 4305W        W20566   6.973  11.282  13.463  0.2326  0.1354  0.0051
 4306W        W20567  14.032   5.389   3.483 -0.2437  0.3061  0.3772
 4307W        W20568   5.097   8.722  14.315  0.1502  0.0694 -0.0888
 4308W        W20569   5.319  17.736   5.122 -0.2072 -0.3653 -0.0609
 4309W        W20570  17.520   1.960   1.798  0.3805  0.0821 -0.2683
 4310W        W20571  12.284   7.776   1.729  0.0304 -0.0023 -0.0104
 4311W        W20572  18.861   2.726   2.346  0.0007 -0.1506  0.1876
 4312W        W20573  18.012   3.845   1.915 -0.3977 -0.0883 -0.2198
 4313W        W20574   2.820   1.503   2.667  0.0408 -0.0184 -0.0735
 4314W        W20575   7.961  12.646   1.071 -0.1436 -0.3106  0.0580
 4315W        W20576   2.543  18.496  12.877 -0.0375 -0.0666  0.1726
 4316W        W20577   2.538  15.228  14.502  0.0079 -0.1289  0.3037
 4317W        W20578   0.441   1.841   2.043 -0.1718 -0.0150  0.1026
 4318W        W20579  13.982  16.661   3.665 -0.1372 -0.1982 -0.1420
 4319W        W20580   5.618   3.550  12.802 -0.0474 -0.1837 -0.4577
 4320W        W20581  17.279  16.929   1.534  0.2682 -0.3204  0.0642
 4321W        W20582  14.313  17.124   3.816  0.0624  0.1510 -0.2319
 4322W        W20583  13.132   5.025  11.733  0.0471 -0.1803  0.0819
 4323W        W20584  18.866  11.361  11.719  0.0409 -0.0395  0.1851
 4324W        W20585  19.427  14.913   1.253  0.4189 -0.0124 -0.3180
 4325W        W20586   3.554  17.679   5.157  0.5382  0.1145 -0.0003
 4326W        W20587   0.267   8.655   1.784  0.1460  0.2597 -0.1488
 4327W        W20588  15.055   9.875   3.238  0.0609 -0.1041  0.3089
 4328W        W20589  18.338   2.399  10.074  0.4336  0.0622  0.0214
 4329W        W20590  14.890  13.269   6.105  0.0600 -0.0706 -0.0033
 4330W        W20591   5.531  13.659   2.846 -0.0163 -0.2454  0.1493
 4331W        W20592  14.305  12.659   0.199  0.2514  0.0191 -0.0097
 4332W        W20593  19.314   5.501   2.637 -0.1085 -0.0859 -0.0579
 4333W        W20594  11.936   5.399   0.102 -0.2700 -0.1061  0.1395
 4334W        W20595  17.632   5.405   2.135 -0.1102  0.3568  0.0124
 4335W        W20596   8.398  16.677  10.505  0.1554 -0.3347 -0.0718
 4336W        W20597   6.577  11.602  13.279 -0.2385 -0.0729  0.1567
 4337W        W20598  16.278  17.522  12.923 -0.2573 -0.0848  0.0067
 4338W        W20599  14.770   1.139   5.349  0.0434 -0.0150 -0.3188
 4339W        W20600   9.566   2.803   9.975  0.0832  0.0602  0.0743
 4340W        W20601   5.674   6.706  11.764 -0.1556 -0.0432 -0.0130
 4341W        W20602   7.197   8.565  10.639  0.1295  0.2344  0.0377
 4342W        W20603   1.140   0.630  11.395  0.2550  0.2160  0.2989
 4343W        W20604   1.680   4.643   8.878  0.2198  0.0080 -0.0771
 4344W        W20605   0.242   9.351  11.648  0.2244  0.1267  0.0772
 4345W        W20606   8.771   0.609  10.252  0.0506  0.2495 -0.2064
 4346W        W20607  12.915  16.232   4.582  0.1005 -0.1500  0.2164
 4347W        W20608   4.704   9.597   2.010 -0.1493  0.1680  0.2916
 4348W        W20609  12.340   4.038   4.113  0.0353  0.4269 -0.1270
 4349W        W20610  13.167   9.105  12.182  0.3977 -0.1530  0.3273
 4350W        W20611  11.470  12.100  12.098 -0.0269  0.1337  0.0042
 4351W        W20612  10.029  14.831  14.347  0.3004  0.0880 -0.2055
 4352W        W20613  18.395  12.934  12.758 -0.2507 -0.1293  0.1130
 4353W        W20614   9.330   7.677   0.146 -0.0256 -0.3723  0.0644
 4354W        W20615   5.339   9.673  14.724  0.0847  0.2180  0.2269
 4355W        W20616   0.236   9.476  12.402  0.0710  0.1799  0.2726
 4356W        W20617  12.445   2.244   4.164  0.1816 -0.1689  0.0467
 4357W        W20618  14.797  18.432   0.951  0.1070 -0.2139  0.2168
 4358W        W20619   7.101  17.983   9.827  0.0509 -0.0672  0.0871
 4359W        W20620  18.119  10.124  14.450  0.0743 -0.1364  0.1576
 4360W        W20621  11.464   7.028   2.123 -0.1167  0.2307 -0.1351
 4361W        W20622  10.521  10.651  12.707  0.1859 -0.0142 -0.0664
 4362W        W20623   5.143   7.107  10.162 -0.0716  0.0251  0.2145
 4363W        W20624  14.715   1.401   4.410 -0.0740 -0.1533  0.2442
 4364W        W20625   3.895   9.145   2.505  0.1608 -0.2466  0.0839
 4365W        W20626  15.895  15.253  13.367  0.1022  0.1635 -0.0958
 4366W        W20627   2.825  12.959   1.131 -0.0015 -0.0137 -0.0038
 4367W        W20628  14.371  10.363   3.378  0.0478  0.0658 -0.1618
 4368W        W20629  17.202   2.365  10.413  0.1664 -0.2744  0.3395
 4369W        W20630  10.516  13.781  10.847 -0.1488 -0.0928  0.1185
 4370W        W20631   9.859   4.262   4.019  0.0893 -0.1113  0.4422
 4371W        W20632   0.452   3.192  12.242  0.0254  0.3450  0.1035
 4372W        W20633   2.809  18.195  13.856  0.0626 -0.1921 -0.2624
 4373W        W20634  15.639   5.475   4.471  0.0944 -0.1474 -0.1721
 4374W        W20635   3.632   1.706  11.303 -0.1805 -0.0087  0.0515
 4375W        W20636  14.557   5.837  10.937 -0.1850 -0.1247  0.4919
 4376W        W20637   5.529   2.362  12.848  0.2890 -0.0511  0.0113
 4377W        W20638   0.098  10.056   2.084  0.2071  0.0248 -0.0783
 4378W        W20639   1.343  10.314   0.075  0.3396 -0.1109 -0.0476
 4379W        W20640  16.708   6.263   2.638 -0.1136 -0.3098  0.0789
 4380W        W20641  18.731   5.748   2.047  0.1979 -0.2196 -0.2889
 4381W        W20642   4.568   0.820  11.564  0.0050  0.0144 -0.0157
 4382W        W20643   3.598  10.555   4.853  0.1631  0.1754  0.0767
 4383W        W20644   6.149   4.915   2.373 -0.0180  0.2325 -0.3414
 4384W        W20645   9.456  10.037   2.463  0.0406 -0.2389  0.3806
 4385W        W20646  17.024   2.695  13.381 -0.0199  0.0118  0.0167
 4386W        W20647   7.998  16.967   3.369 -0.2497  0.1819 -0.1120
 4387W        W20648  19.232  19.249  13.229  0.2382  0.0471  0.1596
 4388W        W20649  15.589   2.772   3.971 -0.1112 -0.1011 -0.3873
 4389W        W20650  18.055   1.230   9.137  0.0984 -0.1108 -0.0366
 4390W        W20651  18.390   5.048   0.369 -0.0751  0.5604 -0.1518
 4391W        W20652  11.637  14.799   4.196  0.2678 -0.3779 -0.2940
 4392W        W20653   1.629  14.716   0.239  0.1975 -0.1255 -0.0468
 4393W        W20654   1.145   9.430  13.680  0.0752 -0.2432 -0.0001
 4394W        W20655   5.999  15.670   4.185 -0.1378 -0.0383 -0.0477
 4395W        W20656  10.860  12.283   2.797  0.2962 -0.0046  0.1391
 4396W        W20657   3.079   7.164  12.048  0.3278  0.1509 -0.1379
 4397W        W20658   2.148  18.996  12.681  0.0553 -0.0288 -0.0151
 4398W        W20659  11.642   9.416  12.714  0.0306 -0.3094 -0.2478
 4399W        W20660   3.319  15.864  12.592 -0.0640  0.2002  0.2387
 4400W        W20661   9.502   7.345   1.245  0.0313  0.2412 -0.2623
 4401W        W20662   5.161  16.216   0.060 -0.2164  0.2985  0.1327
 4402W        W20663   3.492  11.202  12.028  0.3419  0.0149  0.0637
 4403W        W20664  18.098  17.502   4.741 -0.1435 -0.2407  0.0661
 4404W        W20665   1.170  13.834   3.921 -0.0158  0.2900 -0.0697
 4405W        W20666   3.944  16.318   4.080 -0.2444  0.2733 -0.2480
 4406W        W20667   8.748  15.809  10.274  0.1924 -0.0124 -0.0145
 4407W        W20668  16.015  10.154   4.620  0.1464  0.1060 -0.1390
 4408W        W20669   2.502  13.937   1.657  0.0971  0.0640  0.3478
 4409W        W20670   2.674  19.085  12.444 -0.0868  0.1452 -0.0244
 4410W        W20671   8.744   5.531  14.725  0.2085  0.1014  0.2496
 4411W        W20672  17.858   7.329  11.673  0.1473 -0.0433  0.0100
 4412W        W20673  15.472   6.039  12.515  0.0691  0.2301 -0.0179
 4413W        W20674  14.570   5.667  14.655  0.0144 -0.2813 -0.2146
 4414W        W20675  15.291  12.041  14.788 -0.1769  0.1916 -0.0765
 4415W        W20676  13.670  13.146  14.731  0.3211  0.0216 -0.3319
 4416W        W20677  14.861   3.566   1.574 -0.4586  0.0863 -0.0187
 4417W        W20678  17.932   3.842  14.471  0.1486 -0.2212 -0.0242
 4418W        W20679  13.565   4.986  11.986 -0.0727 -0.1092  0.0767
 4419W        W20680   7.612  11.879   4.681  0.1880 -0.1761 -0.3586
 4420W        W20681   6.628   9.371  11.396  0.0763  0.0169 -0.1220
 4421W        W20682   0.729   2.143  14.761  0.0097 -0.1863 -0.3836
 4422W        W20683  15.953  14.725  11.469 -0.0538 -0.0967  0.0446
 4423W        W20684  11.681  14.971   1.724 -0.0540  0.2217  0.0459
 4424W        W20685   0.104  12.985  11.782 -0.0769 -0.3043 -0.1160
 4425W        W20686  14.477   9.404  10.070 -0.0838 -0.4022  0.2903
 4426W        W20687   3.217   6.270  12.296 -0.0574  0.2859 -0.4630
 4427W        W20688  11.893   5.976  14.737 -0.1951 -0.3064 -0.5300
 4428W        W20689   8.729  12.177  11.874 -0.1923 -0.2040  0.0265
 4429W        W20690   5.242  13.138   2.705  0.0155 -0.3151  0.0084
 4430W        W20691  14.341   1.189  14.191  0.0940 -0.1112  0.1174
 4431W        W20692  13.879  12.445   4.352 -0.0025  0.2173  0.0402
 4432W        W20693   6.626  15.633   4.953 -0.2730  0.0412  0.0886
 4433W        W20694   8.615   9.212   4.461 -0.2565  0.3485  0.0047
 4434W        W20695   4.839   6.914  13.942 -0.2462  0.0385  0.1139
 4435W        W20696  11.456   0.136   1.328  0.0703  0.1207  0.1659
 4436W        W20697   3.205   4.870  10.657  0.1116 -0.0327 -0.1017
 4437W        W20698   9.500   4.651   8.640  0.1811 -0.1401 -0.1251
 4438W        W20699   2.655  17.353  13.711 -0.1890 -0.1241 -0.0911
 4439W        W20700   6.735  14.205  10.885 -0.1749  0.0713  0.5865
 4440W        W20701   9.441  11.405   5.587  0.1142 -0.0916  0.2997
 4441W        W20702  15.182  13.003  14.742  0.3496 -0.2334  0.0020
 4442W        W20703   3.725   9.301   9.922  0.2059 -0.3100 -0.0349
 4443W        W20704   6.455   4.247   9.781 -0.3300 -0.0658  0.0867
 4444W        W20705  12.316  17.351  11.483 -0.2588  0.1780 -0.1191
 4445W        W20706   9.221  12.401   0.097 -0.0089 -0.1554 -0.0150
 4446W        W20707  14.400  17.837  10.709 -0.0274  0.1114  0.0051
 4447W        W20708  11.953  17.559  11.224  0.1696  0.1370  0.1423
 4448W        W20709   2.789  12.555   2.390  0.4079  0.0988  0.0934
 4449W        W20710  11.886  16.111   4.955 -0.0343  0.3324 -0.0287
 4450W        W20711   7.553   7.916  12.483 -0.2153  0.2856 -0.1865
 4451W        W20712   1.553   8.968  13.907  0.0716 -0.0615 -0.1223
 4452W        W20713   0.468   2.543   3.327 -0.3020  0.0546 -0.0036
 4453W        W20714   9.102   8.374  10.261 -0.1092  0.4094 -0.1613
 4454W        W20715  18.817  13.421   3.113  0.2471  0.0386  0.0094
 4455W        W20716   4.460  10.307  11.437 -0.0322  0.0080 -0.1329
 4456W        W20717  15.544   4.622  10.877 -0.2115  0.2126 -0.0826
 4457W        W20718  19.087  12.332   3.515 -0.2537 -0.1883 -0.1471
 4458W        W20719  17.553   3.827   1.495  0.2072 -0.2578 -0.1366
 4459W        W20720  10.955   2.542   4.123 -0.1312 -0.2498  0.2954
 4460W        W20721   9.557   5.724  10.776 -0.3422 -0.1180  0.0366
 4461W        W20722  18.660  10.411   4.323 -0.0626  0.0776  0.2641
 4462W        W20723   1.443  16.094   3.218 -0.0052  0.1533 -0.0137
 4463W        W20724  11.167  12.141   1.978  0.0555  0.0535  0.2835
 4464W        W20725  14.601   3.363  11.725  0.2280 -0.1007  0.2039
 4465W        W20726  15.088  17.117   5.095  0.0683 -0.1144 -0.3073
 4466W        W20727  11.488   7.468  10.047 -0.1241  0.0935  0.6143
 4467W        W20728   9.682  17.303   3.237 -0.0407  0.1949 -0.1137
 4468W        W20729   1.322   4.552   2.568  0.0791 -0.0684  0.4692
 4469W        W20730  11.327  12.563   4.521  0.0374 -0.1745  0.1431
 4470W        W20731  14.170   3.082  12.766 -0.2315 -0.1353 -0.2126
 4471W        W20732  14.132  16.852  10.700  0.3219  0.2420 -0.1333
 4472W        W20733   2.864   7.248  11.074  0.3482  0.3387 -0.0699
 4473W        W20734   4.505   7.509   1.387 -0.1220  0.0346  0.2525
 4474W        W20735  10.874   2.083  13.072 -0.3094  0.0221  0.2103
 4475W        W20736   3.466  15.714  10.371 -0.1709  0.3400  0.1976
 4476W        W20737  15.259   0.662   4.916 -0.0031  0.1565  0.1151
 4477W        W20738  11.179   8.558  10.852 -0.0344  0.0465 -0.0493
 4478W        W20739   7.528   8.968   1.409  0.1911 -0.5945  0.3218
 4479W        W20740  16.418   1.110  14.629  0.0597  0.2647 -0.1714
 4480W        W20741   5.111   6.528  12.662 -0.0023 -0.0633  0.0813
 4481W        W20742  16.580   6.860   0.088 -0.0711 -0.2023 -0.0210
 4482W        W20743  17.444  14.776  13.063  0.0070 -0.2666  0.2308
 4483W        W20744   9.243   3.067   2.864  0.2460  0.0772  0.1350
 4484W        W20745   9.233   5.883   3.661 -0.0191 -0.0378 -0.2190
 4485W        W20746   2.336   9.079  12.681  0.1642  0.1881 -0.2676
 4486W        W20747   7.379   0.846  14.210  0.0443 -0.0200  0.1170
 4487W        W20748  14.888   8.612   4.549  0.4481 -0.0304  0.3108
 4488W        W20749   7.545   0.960   0.381 -0.0140 -0.1412 -0.1490
 4489W        W20750  10.750   0.820   0.518 -0.1521 -0.0736  0.2405
 4490W        W20751   2.608   7.413  13.464 -0.3497 -0.0719 -0.0830
 4491W        W20752   6.401  17.782   5.709 -0.1120  0.3074  0.2438
 4492W        W20753  14.157  16.212   1.311  0.3039  0.1494  0.2361
 4493W        W20754  17.712  11.714  11.144 -0.1629  0.0301  0.0018
 4494W        W20755  19.442  16.290   2.829  0.2117  0.1130 -0.0850
 4495W        W20756   0.189  18.848   0.889 -0.2621  0.1679 -0.1036
 4496W        W20757   7.229  18.110  10.327  0.2471 -0.0462 -0.1283
 4497W        W20758   4.532   1.366   3.602 -0.3009  0.2838  0.0522
 4498W        W20759  10.348   6.285  13.541 -0.3836  0.0559  0.1826
 4499W        W20760  18.418   6.306   1.751  0.0731 -0.0371 -0.2783
 4500W        W20761   1.467   4.003  10.870 -0.0787 -0.2565 -0.2571
 4501W        W20762  15.114   2.221   0.551  0.0776 -0.1739 -0.1731
 4502W        W20763  15.974   4.900   3.626 -0.1250 -0.1092  0.1376
 4503W        W20764  18.829  12.044   1.449 -0.0900  0.0068 -0.0518
 4504W        W20765  16.288   8.806  11.591 -0.1855  0.0040 -0.1762
 4505W        W20766   5.763  17.710   4.895 -0.2713 -0.0291 -0.1113
 4506W        W20767  14.934  12.930  14.303 -0.3994  0.4430  0.1977
 4507W        W20768  17.700  17.955   3.824 -0.1186 -0.2473  0.1488
 4508W        W20769   2.500  18.118   4.296 -0.1282  0.3172  0.1699
 4509W        W20770   3.948   8.008  14.435 -0.3698 -0.1436  0.2173
 4510W        W20771   1.054   3.137   0.241  0.0528 -0.1985 -0.0922
 4511W        W20772  13.110  19.484   1.483  0.0199 -0.2629  0.3706
 4512W        W20773  11.607  15.002   3.181  0.3121  0.1253 -0.3272
 4513W        W20774  15.031  11.059   4.292  0.0875  0.3166  0.4964
 4514W        W20775   1.976  14.551  12.430  0.1422  0.0106 -0.2871
 4515W        W20776   4.388  18.335   0.425  0.1313  0.3002 -0.1482
 4516W        W20777  11.692   5.860  13.400 -0.0521  0.2444 -0.1232
 4517W        W20778   1.766   0.474   3.725  0.0116  0.0697 -0.1772
 4518W        W20779   6.415   1.229  11.717 -0.2303  0.2006  0.0480
 4519W        W20780   7.840  11.878   3.115 -0.1092 -0.1322 -0.2420
 4520W        W20781  11.175   2.669   3.612 -0.2311 -0.3226  0.5486
 4521W        W20782   9.986  10.382  10.748  0.0664  0.0602 -0.0861
 4522W        W20783   2.138  12.485   5.343  0.0732  0.0440  0.0480
 4523W        W20784   3.015  12.311   3.849 -0.1691  0.0406 -0.1697
 4524W        W20785   3.624   9.839  11.576 -0.1116 -0.0305 -0.1658
 4525W        W20786   0.115  19.469   0.226 -0.0292  0.2583  0.1047
 4526W        W20787   9.357   3.150  11.259  0.1166  0.2085  0.5432
 4527W        W20788   9.924   2.350   3.140  0.0890 -0.0463  0.0657
 4528W        W20789   0.571   8.618   3.352 -0.0576  0.0295  0.2980
 4529W        W20790  17.868  10.489   4.736  0.1137  0.2458  0.3312
 4530W        W20791   3.576   2.972   2.424 -0.3964 -0.3634 -0.3178
 4531W        W20792  18.393  11.503   1.571  0.0946 -0.0567  0.1065
 4532W        W20793  15.161   7.910  12.064  0.2982  0.0146  0.5834
 4533W        W20794  17.339   6.925   4.403  0.3778 -0.1230  0.2597
 4534W        W20795   7.177  14.309   1.727 -0.2522  0.4864 -0.1967
 4535W        W20796  13.491  18.764   4.128  0.4442 -0.1339  0.0367
 4536W        W20797   3.677  16.181   1.466 -0.0916 -0.0374 -0.0475
 4537W        W20798   9.256  13.733   1.873  0.2979  0.3993 -0.1632
 4538W        W20799  17.457   4.335   3.554  0.0344 -0.4513  0.0931
 4539W        W20800   3.933   5.359   3.420  0.1170  0.1830  0.1474
 4540W        W20801   0.860  11.835  13.764 -0.0465 -0.1921 -0.3284
 4541W        W20802  11.104  17.020   1.650 -0.3719  0.1048  0.1179
 4542W        W20803   8.318  17.222   1.698 -0.2222  0.2176  0.3480
 4543W        W20804  11.216   0.889  11.817  0.1118  0.0432  0.0396
 4544W        W20805   1.284  18.078   3.501  0.2408  0.0458 -0.0273
 4545W        W20806  11.032  15.804  12.535 -0.2177 -0.1170 -0.5035
 4546W        W20807  14.328  13.887   4.631  0.1689  0.2017 -0.0957
 4547W        W20808   0.365  15.061  13.533  0.1033  0.0471  0.2051
 4548W        W20809  12.079   6.842   9.549 -0.2465  0.1364  0.0121
 4549W        W20810   2.207   3.069   2.607  0.2465  0.1767 -0.0666
 4550W        W20811  17.867  16.418   1.239 -0.1194  0.0665 -0.3840
 4551W        W20812   8.203   2.138   3.335  0.1189  0.1928  0.0990
 4552W        W20813   5.540  15.466  12.490  0.1348  0.0061 -0.0893
 4553W        W20814   7.236  11.719   1.507 -0.0530  0.4751 -0.3330
 4554W        W20815  14.852  18.520  11.422  0.0627 -0.0952  0.1478
 4555W        W20816  12.936  11.383   1.483  0.3766 -0.0844  0.2377
 4556W        W20817   7.324  13.216  12.499 -0.1730 -0.0253 -0.1138
 4557W        W20818  10.466   0.922   4.931  0.0274  0.0497 -0.0789
 4558W        W20819   6.901  16.402   1.883 -0.1710  0.1294 -0.4080
 4559W        W20820   5.003   2.750  13.938 -0.0505 -0.1178  0.2815
 4560W        W20821   3.635   1.673  11.951  0.0780 -0.1192  0.2299
 4561W        W20822   2.829   7.666  10.819 -0.1071  0.0759 -0.5062
 4562W        W20823   8.388  10.116  11.066  0.0717  0.1629  0.1349
 4563W        W20824  18.662  17.062  14.390  0.4841 -0.0686 -0.1806
 4564W        W20825   9.850  10.817   4.438 -0.0024  0.0916  0.2692
 4565W        W20826   9.272   8.667  12.042  0.0421  0.0732  0.1812
 4566W        W20827  19.365   6.640  11.117 -0.2420  0.0878  0.0521
 4567W        W20828  12.232  18.611   3.813  0.0309 -0.1049 -0.0667
 4568W        W20829  18.506   2.830  14.691  0.0763  0.1569  0.0206
 4569W        W20830  13.440   1.414  13.947 -0.1427 -0.2677  0.3086
 4570W        W20831  13.559  10.799   1.768 -0.0856  0.0996  0.0662
 4571W        W20832  14.850  10.450  11.797 -0.2537 -0.1241 -0.2052
 4572W        W20833   7.933  17.433   4.703  0.0857 -0.0803 -0.2841
 4573W        W20834   1.781  17.781  10.803  0.1509 -0.3391  0.2316
 4574W        W20835  18.515   2.597   2.688  0.0966 -0.0378  0.2680
 4575W        W20836   9.362  11.290  11.276 -0.1816 -0.0275 -0.2749
 4576W        W20837   4.597  15.321   4.641  0.0156 -0.0076 -0.2187
 4577W        W20838   3.220   3.316  12.499  0.5449 -0.0291  0.0443
 4578W        W20839  12.876   7.123   2.075  0.2481  0.1678  0.0279
 4579W        W20840  16.816  12.008  12.308  0.0460 -0.0263 -0.1032
 4580W        W20841   4.137  14.244  14.628  0.1260 -0.1285  0.0500
 4581W        W20842  10.789   9.488  10.400  0.0167 -0.3138 -0.0780
 4582W        W20843   3.430  13.146   4.185 -0.0826  0.2268 -0.2483
 4583W        W20844  12.981   1.124   0.726  0.2980  0.1582 -0.1596
 4584W        W20845  13.640   8.060   1.381  0.2995 -0.0391 -0.2576
 4585W        W20846   5.583  17.026   3.688  0.1945  0.1712 -0.3557
 4586W        W20847   1.979   5.341  10.584 -0.0099 -0.1444  0.3115
 4587W        W20848  16.942   1.999  11.615  0.2846  0.2317  0.0990
 4588W        W20849  16.599  15.300   2.276  0.2594 -0.0003  0.0612
 4589W        W20850  13.669  17.135   3.500  0.2399  0.1287 -0.4162
 4590W        W20851   3.589  12.979  11.806 -0.1470  0.0159  0.0333
 4591W        W20852  14.089  12.507   3.799 -0.2181  0.3112 -0.0144
 4592W        W20853   5.573  11.225   0.516 -0.1653 -0.2442  0.0007
 4593W        W20854  18.783   8.419  13.718  0.2869  0.0003 -0.2531
 4594W        W20855  15.613  16.608  13.241  0.1177 -0.3807 -0.1100
 4595W        W20856  14.475   2.916   3.940 -0.1151  0.1140  0.1882
 4596W        W20857  12.397  11.174   5.232  0.1773 -0.3831 -0.0866
 4597W        W20858  16.120  18.989  10.938  0.4514 -0.1038  0.3530
 4598W        W20859  11.401   0.179   0.795 -0.2504  0.3335  0.0726
 4599W        W20860  16.103   9.045   2.746 -0.1649  0.0040  0.1883
 4600W        W20861   0.429  18.530   2.539  0.1667 -0.2813 -0.2674
 4601W        W20862   4.329  12.080   2.163  0.0968  0.2543 -0.1186
 4602W        W20863  16.115   4.147   1.560 -0.1097  0.1541  0.1949
 4603W        W20864   8.807   5.931  11.563  0.1412 -0.0229  0.2453
 4604W        W20865   0.239   0.245   1.109 -0.0347 -0.2165  0.2252
 4605W        W20866   0.469   5.580   3.564 -0.1212  0.2472  0.2889
 4606W        W20867   4.513  14.484   9.602  0.2213  0.1979 -0.0978
 4607W        W20868  13.406   6.769   9.717 -0.0853 -0.2229 -0.1087
 4608W        W20869  15.488   6.453  12.878 -0.1986  0.1496 -0.0706
 4609W        W20870   1.917  16.890  14.710 -0.0995  0.2882  0.3487
 4610W        W20871  16.786  15.130  14.019  0.0895 -0.1512 -0.0031
 4611W        W20872   2.098  11.211  13.357  0.3656 -0.1069 -0.2035
 4612W        W20873  11.761   1.294  13.521  0.1308 -0.0506  0.0031
 4613W        W20874   4.345   4.857   9.720 -0.0364  0.1395 -0.0059
 4614W        W20875   1.631   5.856   3.263  0.3267  0.0756  0.1497
 4615W        W20876  16.302  17.427   0.980  0.0990 -0.1899  0.2423
 4616W        W20877   4.998   7.923   2.260 -0.0158  0.0795 -0.0890
 4617W        W20878   7.823  17.182  14.598 -0.1762  0.3285 -0.0809
 4618W        W20879  10.577  15.430  14.113 -0.0299  0.1236  0.1338
 4619W        W20880  13.524   2.870  10.776 -0.0357  0.1324  0.1966
 4620W        W20881  17.612   3.479   4.906  0.3117  0.0848  0.1203
 4621W        W20882   6.488  18.960   4.744  0.3424 -0.2539 -0.0514
 4622W        W20883  10.236   0.442   5.747 -0.3158  0.1942 -0.0669
 4623W        W20884   2.090   3.889   1.531 -0.1769 -0.0722  0.0109
 4624W        W20885   6.989   3.930  13.559  0.1062 -0.3164 -0.0311
 4625W        W20886  18.048   7.558  12.919  0.0531  0.0809  0.0898
 4626W        W20887   1.079   4.194   5.166 -0.0695 -0.1919  0.0445
 4627W        W20888   1.586   7.072   1.682 -0.0198  0.0033 -0.1167
 4628W        W20889   3.411   5.088   0.378 -0.0164  0.1151  0.1003
 4629W        W20890  15.958  10.811  11.858  0.0077  0.1521 -0.0900
 4630W        W20891   9.550  16.311   1.625 -0.1129 -0.0587  0.5865
 4631W        W20892   6.781   2.564  12.711 -0.3955 -0.2273 -0.2040
 4632W        W20893  15.305   2.310  11.734 -0.0677  0.1800  0.0229
 4633W        W20894   3.922  16.644   1.546  0.1132  0.1265 -0.2079
 4634W        W20895   1.108   5.385  11.936 -0.1546  0.0579 -0.1956
 4635W        W20896  14.028   4.206   3.098  0.0822  0.1292  0.1852
 4636W        W20897  13.035   6.122   4.340 -0.1308 -0.1667  0.1305
 4637W        W20898   8.929  18.909   1.073  0.2527 -0.0425  0.1479
 4638W        W20899   1.008   7.450  12.057  0.1938 -0.4046  0.2133
 4639W        W20900   8.812  12.270   0.537 -0.1247 -0.0295 -0.2275
 4640W        W20901   1.514  11.908   3.630 -0.6275 -0.1649 -0.0273
 4641W        W20902   9.615  10.943  12.775  0.1639  0.1459  0.1939
 4642W        W20903  10.873   4.203   0.426  0.0388  0.0320 -0.0217
 4643W        W20904   3.744  14.055   3.161 -0.0453 -0.1183 -0.0149
 4644W        W20905   0.237   4.132   3.387 -0.0927 -0.0536 -0.1410
 4645W        W20906   0.787   9.441   4.462  0.2530  0.2992  0.0430
 4646W        W20907  16.171  11.277   0.559 -0.3904  0.2306  0.1096
 4647W        W20908   5.172  12.830  12.502  0.5572 -0.2732 -0.1174
 4648W        W20909   4.659   7.443  10.756  0.1501 -0.0988  0.0903
 4649W        W20910  14.790  11.787  13.945 -0.1029  0.0876 -0.0897
 4650W        W20911   0.572   3.589  11.906  0.1600 -0.2324 -0.0053
 4651W        W20912  13.051   9.518   1.597  0.0833  0.3666 -0.1404
 4652W        W20913   7.744  16.167  11.050 -0.1774 -0.0826 -0.3407
 4653W        W20914   6.608   1.838  11.357 -0.1998  0.0952 -0.1011
 4654W        W20915   5.278   9.043  12.619 -0.1984  0.3653  0.5998
 4655W        W20916   4.922  12.493  11.108  0.1250 -0.3408  0.0842
 4656W        W20917  17.844  12.490  11.544 -0.1357  0.1053  0.0389
 4657W        W20918   1.958   1.678   4.713 -0.3322  0.1256 -0.0698
 4658W        W20919   7.817  10.470   9.857 -0.2211  0.0579  0.1297
 4659W        W20920   2.695  12.314  10.479  0.0452 -0.1376  0.2441
 4660W        W20921   0.984  13.044   1.870 -0.6121  0.1150  0.1341
 4661W        W20922   4.459  12.243  11.091 -0.1827 -0.0485 -0.1201
 4662W        W20923   8.669  18.663  14.242 -0.0664 -0.1236  0.2606
 4663W        W20924   2.349  14.317   5.395 -0.1463  0.0269 -0.2601
 4664W        W20925  17.016   4.881  13.166  0.0282  0.2424  0.2000
 4665W        W20926  13.335   6.186  12.346  0.1901 -0.1129 -0.0951
 4666W        W20927   4.479   0.660  14.303  0.0970 -0.1053 -0.0957
 4667W        W20928   6.501   8.627  13.560 -0.1782  0.1949 -0.0090
 4668W        W20929   9.412  18.585   1.665 -0.0589 -0.1258  0.1760
 4669W        W20930   7.921   3.062   2.730  0.0121 -0.2464 -0.0715
 4670W        W20931  17.926  12.018   3.063  0.0980 -0.2008  0.1862
 4671W        W20932   2.639  14.801  13.861  0.0896  0.4196 -0.0523
 4672W        W20933   8.026  17.561  14.160  0.0532  0.0226 -0.3139
 4673W        W20934  18.596  10.432  11.607 -0.3828  0.1129  0.1373
 4674W        W20935   4.240   7.781   1.726 -0.0839 -0.0363  0.2892
 4675W        W20936   7.699  15.584  12.980 -0.0035 -0.2215 -0.1284
 4676W        W20937   9.284   6.991   3.355 -0.0466  0.2534  0.2384
 4677W        W20938   1.017  14.047  13.769  0.0084  0.0743  0.4360
 4678W        W20939   5.162   3.730  12.754  0.1021 -0.1198 -0.0714
 4679W        W20940   5.625   2.788  12.108 -0.3488  0.1987 -0.0667
 4680W        W20941  13.733  10.487   2.119 -0.4176  0.0367  0.1912
 4681W        W20942   6.851  15.932  12.860  0.3213  0.0128  0.3513
 4682W        W20943  15.513   5.990  12.057 -0.2042  0.1797  0.4213
 4683W        W20944  11.331  18.931  10.525 -0.0600  0.0563  0.0954
 4684W        W20945  18.116  17.733   4.316  0.2525  0.2482 -0.0758
 4685W        W20946  19.277  15.174   2.448 -0.3818 -0.1922 -0.0875
 4686W        W20947   5.931   2.875   1.433 -0.1206 -0.3121 -0.1593
 4687W        W20948   9.915   8.743   0.280 -0.0007  0.0265 -0.0786
 4688W        W20949   4.796   3.792   0.883  0.0490 -0.0102  0.2275
 4689W        W20950  12.206  16.916   5.911  0.0126  0.0594  0.0494
 4690W        W20951  11.666  17.683  10.145 -0.0190 -0.1404 -0.2431
 4691W        W20952  12.866   8.479   0.695  0.2209  0.3479  0.1742
 4692W        W20953  12.705  17.089  11.321  0.2029 -0.2382 -0.2263
 4693W        W20954  13.111   4.646   3.313 -0.1223 -0.2431  0.2709
 4694W        W20955  19.160   9.772   1.296  0.1483 -0.1698  0.2218
 4695W        W20956   2.921  13.915   4.589  0.1304  0.0752 -0.0442
 4696W        W20957   6.649  10.055  14.784  0.0625  0.3443  0.3382
 4697W        W20958   3.777  12.760   4.932  0.2618 -0.0540 -0.1769
 4698W        W20959  18.902   2.809   1.137 -0.3247  0.3923 -0.2661
 4699W        W20960  18.947  12.185  12.404 -0.1789  0.2514  0.2988
 4700W        W20961   1.509  15.645   1.734  0.3104  0.2445  0.0451
 4701W        W20962   1.181   7.866  13.893 -0.3687 -0.3334  0.2152
 4702W        W20963  12.744   1.244   2.955 -0.0862 -0.0651  0.1393
 4703W        W20964  11.496   3.247   3.931 -0.0615 -0.2550  0.0621
 4704W        W20965   3.885  18.120   4.233 -0.0636  0.0412  0.0408
 4705W        W20966  10.742   7.542  13.096 -0.2555 -0.0252  0.1762
 4706W        W20967  14.938  10.562   4.487  0.1315 -0.3068  0.0881
 4707W        W20968  18.866   8.424  11.633  0.2777  0.0116 -0.0435
 4708W        W20969   7.585   3.855  12.855 -0.1270 -0.1177 -0.2586
 4709W        W20970   8.624  13.502  12.408 -0.1997  0.2077  0.1211
 4710W        W20971  15.033  11.847   0.837 -0.2074  0.1862  0.0369
 4711W        W20972   7.421   1.180  13.310 -0.1687  0.0389 -0.2171
 4712W        W20973   4.779  14.451   1.179  0.2694  0.1461  0.1391
 4713W        W20974  18.528   1.517  12.077 -0.0337 -0.2251  0.0882
 4714W        W20975  13.983  10.723  13.790  0.2358 -0.2791  0.0081
 4715W        W20976  12.654  18.961   0.518 -0.0503  0.2587  0.0470
 4716W        W20977  10.843  13.559   1.668 -0.3822 -0.2590 -0.0275
 4717W        W20978  12.757  18.474   1.654  0.2769  0.3179 -0.1027
 4718W        W20979   6.024   4.746  12.498 -0.1596  0.3438  0.1986
 4719W        W20980  17.137   2.372   1.636  0.0036  0.3417  0.1248
 4720W        W20981   1.355   2.540  14.653 -0.0459 -0.1708  0.1008
 4721W        W20982  17.609  13.812   2.694 -0.1510  0.0755 -0.1955
 4722W        W20983   8.328  17.219   3.070 -0.0053 -0.2774 -0.1530
 4723W        W20984   5.400  18.469  11.829  0.0595  0.3020  0.0569
 4724W        W20985   5.002  12.801   4.479  0.0835 -0.0444  0.3003
 4725W        W20986  11.435  10.087  14.570  0.2186  0.2194 -0.0785
 4726W        W20987  13.108   8.164   1.555 -0.1669 -0.2342  0.1557
 4727W        W20988   5.394  14.912  14.625 -0.1127 -0.2354 -0.3768
 4728W        W20989   5.903  19.393   3.051  0.2667 -0.1347  0.0875
 4729W        W20990  19.400   2.348  12.697  0.0072  0.1548  0.0785
 4730W        W20991   2.343  14.360  10.745 -0.0690  0.1630  0.0132
 4731W        W20992   2.583   1.288   1.636 -0.0467  0.0530  0.1055
 4732W        W20993   2.292  11.964  10.972 -0.2727 -0.2726  0.2734
 4733W        W20994   1.010   6.535  14.248  0.0468 -0.0837  0.1940
 4734W        W20995  14.128   0.048  10.877 -0.2904  0.1451 -0.1165
 4735W        W20996  17.639  14.127   1.475 -0.0808  0.0880  0.0096
 4736W        W20997   3.490  19.130   3.010 -0.1125 -0.2101 -0.3721
 4737W        W20998   9.559  19.128   1.964 -0.2594  0.1400  0.0302
 4738W        W20999  17.947   9.657  14.569 -0.1826  0.1800  0.3470
 4739W        W21000  14.505   7.815   2.965 -0.0472  0.3760  0.0327
 4740W        W21001  18.674  18.572  12.965  0.2291 -0.4383 -0.0170
 4741W        W21002   5.239  10.008  14.269 -0.1244  0.1166  0.1431
 4742W        W21003  14.617  12.809  13.974 -0.0199 -0.0087 -0.1655
 4743W        W21004   9.066  15.972   0.505 -0.0892 -0.1178 -0.1306
 4744W        W21005   2.739   7.221  14.374  0.0504  0.2439  0.0826
 4745W        W21006  18.393  17.364   1.733  0.0073 -0.0271 -0.1488
 4746W        W21007  14.657  16.436  10.179  0.6136 -0.2392  0.0654
 4747W        W21008  10.820  15.709   2.334 -0.0551 -0.1131  0.0402
 4748W        W21009   8.410  15.318   3.828 -0.2334  0.0626 -0.1308
 4749W        W21010  15.448  17.027   2.427 -0.0923 -0.0217 -0.1241
 4750W        W21011  11.720  16.377   2.665 -0.4079 -0.0148  0.1897
 4751W        W21012   7.210  15.009   2.851  0.1846  0.2505  0.4673
 4752W        W21013  16.967   8.785  10.750  0.0093 -0.1096  0.0280
 4753W        W21014  13.285  13.460  11.886  0.2979 -0.0863  0.0885
 4754W        W21015   7.553  11.191  13.622 -0.0470 -0.2808 -0.2063
 4755W        W21016  12.156  16.259  10.760  0.1554  0.0604  0.0807
 4756W        W21017  18.041   3.674   1.419 -0.2544 -0.1225 -0.1577
 4757W        W21018   2.540  11.151  13.548 -0.2551 -0.2971  0.0211
 4758W        W21019   3.394   9.440   3.978  0.3359 -0.0454  0.2873
 4759W        W21020  10.797   0.875  13.907 -0.1351 -0.0735  0.0860
 4760W        W21021   4.088  17.757  13.438 -0.1798  0.1620 -0.2494
 4761W        W21022  14.570   6.310  14.674  0.0460 -0.0352 -0.0589
 4762W        W21023  17.261  15.215  12.250  0.1839 -0.0954 -0.1496
 4763W        W21024  17.381  19.068  14.597  0.1154 -0.0651  0.3746
 4764W        W21025   2.791   4.235  11.750 -0.1494  0.0156 -0.0775
 4765W        W21026   5.628  16.154  11.994  0.0182 -0.0184 -0.2755
 4766W        W21027  19.188  12.207   1.743  0.0298 -0.0992 -0.2605
 4767W        W21028   4.204   0.792  10.094  0.2011 -0.2305 -0.1547
 4768W        W21029   9.056  13.425   3.037 -0.0499  0.2412 -0.1881
 4769W        W21030   3.903   2.731  12.199 -0.1587  0.1240  0.1285
 4770W        W21031   4.148  11.720  10.126  0.2680 -0.0276  0.1813
 4771W        W21032  13.619  14.305   5.100 -0.1168 -0.0395  0.1141
 4772W        W21033  10.413  10.296   1.435 -0.2087  0.0128  0.3461
 4773W        W21034  18.741   3.048  10.973  0.4262 -0.1530 -0.0956
 4774W        W21035   7.412   3.169  12.328 -0.2113 -0.1028 -0.1437
 4775W        W21036  16.462   1.166  13.309 -0.1290 -0.0212 -0.1049
 4776W        W21037  11.823  16.263   2.164  0.4215 -0.1438 -0.2070
 4777W        W21038   7.164  18.910   2.216 -0.0129  0.0110 -0.1197
 4778W        W21039  10.438   9.448  11.668  0.1934 -0.3968 -0.4820
 4779W        W21040  12.023  18.326   2.481  0.2018 -0.0148 -0.3146
 4780W        W21041  18.540  15.352  14.804  0.2068 -0.3224  0.1588
 4781W        W21042  14.951   1.424   3.383  0.1351  0.0393  0.1617
 4782W        W21043  14.936   6.077   3.012  0.1159  0.2307 -0.1057
 4783W        W21044  15.146  18.514  13.237  0.2717  0.0880  0.1309
 4784W        W21045   8.567   8.245  11.287 -0.1732  0.0717  0.0044
 4785W        W21046   4.875   8.745  11.872  0.2423  0.0534  0.6294
 4786W        W21047   8.202   8.273  13.272 -0.1515 -0.0035  0.0326
 4787W        W21048  16.891   8.411  12.208  0.0209 -0.0134 -0.0246
 4788W        W21049   1.861  17.912  14.185 -0.1771 -0.1465  0.0365
 4789W        W21050  11.112  17.550   2.424 -0.1911 -0.0263 -0.2381
 4790W        W21051   6.298  11.593   2.986  0.0661 -0.1392 -0.0252
 4791W        W21052  13.166   4.149  13.699 -0.0758 -0.2661 -0.2012
 4792W        W21053  12.628  19.322  12.912  0.1019  0.1934 -0.0796
 4793W        W21054  15.443   5.867   3.213  0.4242  0.1350  0.2151
 4794W        W21055  10.048  13.100  12.896 -0.0691  0.2152  0.0213
 4795W        W21056  16.544   0.376   4.280 -0.0512 -0.0524 -0.5070
 4796W        W21057   8.368   3.694  10.418 -0.0089  0.2202 -0.2165
 4797W        W21058  10.120  17.789   2.468  0.0851  0.1322  0.1185
 4798W        W21059   1.396  13.413  14.351 -0.1477 -0.1094  0.1137
 4799W        W21060  11.438  15.598  10.475  0.2978 -0.0757  0.1274
 4800W        W21061   6.088   6.149  12.493  0.4308 -0.0257  0.0049
 4801W        W21062  12.669   7.167   3.978  0.2528  0.0382  0.1101
 4802W        W21063   6.652   2.369   0.036  0.0879  0.1462 -0.2493
 4803W        W21064  11.716   7.618  13.210 -0.0867 -0.0181  0.1098
 4804W        W21065   8.283  11.838  14.139 -0.2986 -0.1610  0.0919
 4805W        W21066   8.120  17.083   1.259 -0.0097 -0.0948 -0.0476
 4806W        W21067   3.425   9.180   4.538  0.0737 -0.0337 -0.0369
 4807W        W21068   6.809   3.806   2.679 -0.0766  0.1986  0.2220
 4808W        W21069  14.489   1.797   4.689 -0.1527  0.0572 -0.2637
 4809W        W21070   4.455   2.115  10.512  0.0431 -0.1615 -0.4378
 4810W        W21071   5.052  10.115  14.793 -0.0291 -0.0122  0.1626
 4811W        W21072   0.074   5.671  11.723  0.2441 -0.1601 -0.2402
 4812W        W21073  16.833  15.522   1.572 -0.1181 -0.1463 -0.0777
 4813W        W21074   4.135   7.420   1.061  0.0627 -0.0794  0.1866
 4814W        W21075   6.074   8.372   2.291  0.1384  0.3819  0.0384
 4815W        W21076  14.348   3.610   5.226 -0.1094  0.0634 -0.0181
 4816W        W21077  18.828  15.596   1.764  0.0245  0.3606 -0.3284
 4817W        W21078  19.413  13.023   1.492  0.2332 -0.0153 -0.3211
 4818W        W21079   7.280  15.149   4.354 -0.2485 -0.3912 -0.2391
 4819W        W21080   2.642  11.843   2.881 -0.0604  0.1584 -0.3338
 4820W        W21081  14.966   5.716   0.506  0.0459 -0.0385  0.0090
 4821W        W21082  18.635   7.736  10.414 -0.1976  0.0280  0.1921
 4822W        W21083  10.341   9.825   1.177  0.0112  0.0936  0.2413
 4823W        W21084  14.718  12.539   1.961  0.0001 -0.1340 -0.0358
 4824W        W21085  17.952   7.733   1.773  0.0007 -0.0467  0.1961
 4825W        W21086   5.760  16.096   0.368 -0.1487  0.1009  0.0801
 4826W        W21087   1.681  17.170   2.542 -0.0969  0.3567  0.3381
 4827W        W21088   2.090   6.093   1.667 -0.0819 -0.2799 -0.0091
 4828W        W21089  18.724  12.894  11.219  0.5132  0.1895 -0.0322
 4829W        W21090  10.216   0.554   1.768  0.1491 -0.2081 -0.3737
 4830W        W21091   8.973   5.919   2.856 -0.1150 -0.0043  0.1085
 4831W        W21092  13.964  13.793   3.232  0.0747 -0.1421 -0.1981
 4832W        W21093  19.460   5.351   4.637  0.0034  0.1295  0.3677
 4833W        W21094   2.347  19.140   4.109 -0.1395  0.2414 -0.1763
 4834W        W21095   1.855   7.044  11.478 -0.0235 -0.0234 -0.2647
 4835W        W21096   3.883   7.096  13.657 -0.0634  0.0274  0.2567
 4836W        W21097   5.423   3.895  11.894 -0.1483 -0.2248 -0.0954
 4837W        W21098   8.245  12.497  13.699 -0.0706 -0.0944 -0.3516
 4838W        W21099  10.023  16.493   1.582 -0.4230 -0.2643 -0.1301
 4839W        W21100   9.327  13.058  14.564  0.0152  0.0637  0.3172
 4840W        W21101   1.550  10.429   1.543  0.2589 -0.0215  0.0834
 4841W        W21102   1.289  11.962   2.943 -0.1330 -0.3495 -0.0806
 4842W        W21103  14.816  14.001   2.558  0.0530  0.1768  0.2286
 4843W        W21104   9.620  10.535   3.861  0.0370 -0.0592 -0.0591
 4844W        W21105  18.363  19.252  13.815 -0.1364 -0.2796  0.4502
 4845W        W21106  16.400  17.799   2.389  0.3510  0.1518  0.1901
 4846W        W21107   9.951  14.839  13.637  0.2788  0.0628 -0.2511
 4847W        W21108   0.467  16.364   0.012 -0.4106  0.0479  0.2516
 4848W        W21109   6.506  12.034  13.625  0.1568  0.0938 -0.3321
 4849W        W21110   7.274   8.969   2.371  0.2418  0.2940 -0.0109
 4850W        W21111  12.322  14.763  14.303 -0.0543  0.0070 -0.2600
 4851W        W21112   7.994  16.286  10.198  0.0709 -0.0728  0.1210
 4852W        W21113  10.324  11.805  12.769 -0.2068 -0.0243 -0.3071
 4853W        W21114  16.772  14.902  10.742 -0.0040  0.3036  0.0709
 4854W        W21115   7.898   7.590   0.744 -0.0353  0.0329 -0.1211
 4855W        W21116   3.393   7.497  11.836  0.1040  0.2489  0.1607
 4856W        W21117   6.948  18.087   4.180 -0.0364 -0.1147 -0.0659
 4857W        W21118   5.850  15.735  12.184  0.1732 -0.0794 -0.1285
 4858W        W21119   0.228  12.493  11.780  0.3948  0.2045 -0.0126
 4859W        W21120   7.935  17.611   2.067  0.0255  0.2311 -0.1927
 4860W        W21121   7.091   2.563  13.099 -0.1948  0.1191 -0.1478
 4861W        W21122  15.358   3.959   2.135  0.3418 -0.1685  0.0833
 4862W        W21123  11.954   5.920  10.219 -0.3489  0.0910 -0.0005
 4863W        W21124   3.079  12.736  10.959  0.0422  0.1620  0.0894
 4864W        W21125  18.000   9.747   5.155 -0.1481 -0.0627 -0.1772
 4865W        W21126   3.345   5.812  10.180 -0.2041 -0.0951 -0.2825
 4866W        W21127   1.642  10.584  13.829  0.1395 -0.3130 -0.1007
 4867W        W21128   3.413   0.794   0.184 -0.0197  0.2852  0.2025
 4868W        W21129  18.867  16.288   0.056 -0.1433 -0.0637 -0.1538
 4869W        W21130   7.573   4.812  12.185  0.0438 -0.0735  0.2055
 4870W        W21131   9.179   3.021   4.194 -0.0761  0.1272 -0.0843
 4871W        W21132  10.611  12.645   0.921 -0.2408 -0.0016  0.0445
 4872W        W21133   1.023   4.270  13.563 -0.0931 -0.0970  0.1719
 4873W        W21134   2.856   5.405  12.524  0.2437  0.1397 -0.1143
 4874W        W21135  16.058  17.642   2.708 -0.1305  0.1708  0.0551
 4875W        W21136   6.901   9.014   3.199  0.0783  0.1769 -0.0498
 4876W        W21137  13.588   5.005   3.276 -0.1861 -0.0729 -0.0206
 4877W        W21138   6.412  10.405  13.473 -0.2341 -0.0908 -0.0563
 4878W        W21139  13.985  16.153   4.825  0.2897 -0.2717  0.2134
 4879W        W21140   0.604  19.324   4.291  0.1716  0.0095 -0.1045
 4880W        W21141  16.430   9.377   3.155 -0.1262  0.0926  0.0937
 4881W        W21142   9.495   2.545   2.078 -0.3285  0.3968 -0.2428
 4882W        W21143  14.578  12.788  11.477 -0.0076  0.0059 -0.0515
 4883W        W21144  17.638   7.116  14.786 -0.0540  0.0852  0.1543
 4884W        W21145   9.002  12.517  13.910 -0.2211 -0.3393  0.1379
 4885W        W21146  14.885   7.508   4.551  0.0894  0.1533 -0.2456
 4886W        W21147  13.702  14.832   2.873  0.1100  0.2166  0.0706
 4887W        W21148   9.059   5.459  10.460 -0.2195 -0.2044 -0.0223
 4888W        W21149   2.907   1.024   0.594 -0.1280  0.0362 -0.1632
 4889W        W21150   5.074  11.772   3.547  0.1583  0.4655  0.0455
 4890W        W21151   0.638  13.009   2.259  0.2301 -0.3678 -0.0001
 4891W        W21152  11.988  12.763  10.843  0.0311 -0.1801  0.2233
 4892W        W21153   5.651   9.179  11.433  0.2570 -0.2102 -0.0298
 4893W        W21154   0.167  13.190   2.272 -0.1386 -0.0118 -0.2065
 4894W        W21155   8.971   7.361   0.867  0.3968  0.0018  0.0401
 4895W        W21156   7.537  12.795  12.276 -0.3798 -0.0542  0.1511
 4896W        W21157  10.466  15.022   0.869 -0.3571 -0.0185  0.0583
 4897W        W21158   8.669  10.843  13.277  0.1841 -0.0185  0.0019
 4898W        W21159   5.143   2.272   9.754  0.1714  0.1654  0.2341
 4899W        W21160   6.155   0.294  12.857 -0.0285 -0.1604  0.1512
 4900W        W21161   8.599   2.503  10.047  0.2350 -0.0922 -0.1606
 4901W        W21162   4.955  12.089   4.872  0.2697  0.1727 -0.1164
 4902W        W21163   7.709  11.855   1.700  0.1519 -0.0544  0.0049
 4903W        W21164  13.084  18.651  11.523  0.2178 -0.1571  0.0736
 4904W        W21165  11.517   3.418  13.158 -0.2177 -0.4008  0.1101
 4905W        W21166   8.165  12.235  12.670 -0.0138  0.0693 -0.0793
 4906W        W21167  11.824  18.968  13.369 -0.1415  0.1907 -0.2433
 4907W        W21168  18.923  11.020  12.858  0.1419 -0.0585  0.1471
 4908W        W21169   0.621  17.398  13.007 -0.0157  0.2270 -0.0005
 4909W        W21170   3.506  12.640  12.321 -0.1424  0.0903  0.0377
 4910W        W21171   6.452  16.908   1.440  0.2635  0.0194 -0.1422
 4911W        W21172  14.951   5.290   0.827 -0.1547 -0.3648 -0.1540
 4912W        W21173  14.653   1.956   3.723 -0.0579  0.4038 -0.4200
 4913W        W21174  11.425   2.733   4.081 -0.5749 -0.1616  0.1354
 4914W        W21175  18.135  14.950  14.493 -0.1971  0.0982  0.0430
 4915W        W21176   5.099   0.535   0.029  0.1214  0.0826 -0.3533
 4916W        W21177  19.452  19.452  13.690 -0.3654  0.2221 -0.0564
 4917W        W21178   5.513  13.075   0.259  0.2065 -0.2306  0.0552
 4918W        W21179  11.392  11.801   9.817 -0.0066 -0.1854  0.2321
 4919W        W21180  19.415   9.913   3.613 -0.3625 -0.0761 -0.0464
 4920W        W21181   0.769   0.089  13.498 -0.0105  0.2084  0.4269
 4921W        W21182   9.814  18.650   0.941 -0.1265 -0.1402 -0.2180
 4922W        W21183  17.063  12.691   1.732  0.1787  0.2010 -0.0277
 4923W        W21184   8.911  17.873   3.332 -0.1024 -0.4093  0.1969
 4924W        W21185  12.129  16.226  12.135 -0.1947 -0.1741 -0.1790
 4925W        W21186   5.901   8.432  11.197  0.2196  0.3079 -0.2351
 4926W        W21187   8.690  12.462  11.189 -0.1607  0.1420  0.1698
 4927W        W21188  14.853  11.873   2.157  0.2470 -0.0814 -0.2983
 4928W        W21189   4.711   4.914   0.048 -0.0051  0.0202 -0.0745
 4929W        W21190   9.331  10.502   2.323  0.3177  0.1366  0.0350
 4930W        W21191  18.364  14.959   3.325 -0.1912 -0.0381  0.0993
 4931W        W21192   4.234   2.473  11.956  0.0997 -0.1747  0.0946
 4932W        W21193   7.033   2.805   3.691 -0.5118 -0.0470 -0.1082
 4933W        W21194   2.240  15.632   1.389  0.2074 -0.2169 -0.2278
 4934W        W21195   0.836  10.965  12.962  0.2230  0.0768  0.2368
 4935W        W21196  16.225   5.615  11.130  0.1963 -0.0757 -0.1712
 4936W        W21197  19.256  11.833  11.876 -0.1099 -0.2282 -0.0518
 4937W        W21198   9.879   2.443  10.831 -0.1805  0.1442 -0.5731
 4938W        W21199   3.245  18.002  10.538  0.2465  0.2400  0.1956
 4939W        W21200   7.820  12.741   4.779 -0.2432  0.3157 -0.0794
 4940W        W21201   4.446  18.389  12.326  0.2282 -0.1095  0.0652
 4941W        W21202  10.350   8.556  11.542  0.1359 -0.0697  0.2419
 4942W        W21203   0.009   4.798   3.871 -0.0371 -0.0494  0.2483
 4943W        W21204  16.017  12.284  10.623 -0.1435 -0.2448 -0.0873
 4944W        W21205   9.906   1.308   4.128  0.1346 -0.0126 -0.0312
 4945W        W21206  11.824   2.358   0.344 -0.0731  0.1517 -0.0463
 4946W        W21207   1.157   0.057   4.625 -0.0821 -0.1044  0.1449
 4947W        W21208   2.611  18.192  12.066 -0.4424  0.1541  0.1065
 4948W        W21209   8.034   2.628   0.035  0.0672  0.2707 -0.0164
 4949W        W21210  12.349  11.534  13.585 -0.1287  0.1730 -0.3339
 4950W        W21211  11.287  13.311   0.720  0.0022 -0.1167 -0.0047
 4951W        W21212   2.453  17.031   4.842 -0.1951  0.0137 -0.1191
 4952W        W21213  10.170  16.952   4.365 -0.3254 -0.2036  0.0962
 4953W        W21214   6.958   1.352  12.306 -0.1363  0.0925  0.1248
 4954W        W21215   7.994  14.251   3.495 -0.2183  0.0898 -0.5670
 4955W        W21216   5.176   4.492  14.703  0.1540 -0.2400  0.0375
 4956W        W21217  16.751  12.660  11.818  0.0228 -0.2854  0.0772
 4957W        W21218   2.797  10.740  11.587 -0.1001  0.1353  0.1923
 4958W        W21219  12.762   9.908   0.894  0.0760  0.1607  0.1396
 4959W        W21220  17.802   6.588   5.229 -0.0160 -0.1811  0.1022
 4960W        W21221  11.092   7.277  10.367 -0.1825  0.2003 -0.2967
 4961W        W21222   5.915   7.303  11.940  0.1687 -0.0258  0.1204
 4962W        W21223  19.394   0.961   3.295 -0.1223  0.0467 -0.1917
 4963W        W21224   4.703   8.337  12.692  0.1897 -0.2112 -0.5505
 4964W        W21225  17.406  19.001   0.468 -0.0160 -0.0038 -0.0858
 4965W        W21226   6.539   9.089   2.767 -0.0783 -0.4279 -0.3086
 4966W        W21227   4.738   5.069   0.570 -0.0444 -0.1447  0.1154
 4967W        W21228   1.345   9.306  14.763  0.2732 -0.0430 -0.0610
 4968W        W21229  14.640  18.358   4.223  0.1401  0.2041 -0.0550
 4969W        W21230  14.222  17.215  13.338 -0.0362 -0.1559 -0.2870
 4970W        W21231  14.225   8.506   0.935 -0.3511 -0.3702 -0.2457
 4971W        W21232   9.624   9.522  11.627  0.0761 -0.1593 -0.1572
 4972W        W21233  15.721  14.667   0.616  0.1026 -0.1696  0.0425
 4973W        W21234   4.529   1.649  10.364  0.1207  0.0831 -0.2589
 4974W        W21235  11.538   1.220  11.983  0.0762  0.4302 -0.0624
 4975W        W21236  17.203   0.235   0.967 -0.0532  0.2155 -0.2768
 4976W        W21237   9.677  15.780  12.436  0.0814 -0.1191  0.3220
 4977W        W21238  17.490   1.634   0.227  0.1848  0.1419  0.0101
 4978W        W21239   8.448   1.155  14.396  0.0473 -0.1976 -0.0902
 4979W        W21240   4.623   3.792  10.144 -0.4363  0.0545 -0.1941
 4980W        W21241  13.676   3.319  13.269  0.0217 -0.0862 -0.3079
 4981W        W21242   5.224   9.688  12.321  0.0607  0.1921 -0.3214
 4982W        W21243  15.284  15.259  14.381 -0.1495 -0.0948  0.1395
 4983W        W21244  18.765  14.448   4.372 -0.1720  0.2138  0.4371
 4984W        W21245  10.635   8.995  11.693 -0.0408  0.4414 -0.1647
 4985W        W21246   1.690   7.508  10.685  0.1293  0.0595  0.0620
 4986W        W21247  13.846   1.336   0.898  0.1100  0.1605 -0.2211
 4987W        W21248  18.965  15.102  11.917 -0.1399 -0.0970  0.1485
 4988W        W21249  14.236  16.995   3.293  0.1864  0.1567  0.1187
 4989W        W21250  16.907   4.684  13.949 -0.2201 -0.0168 -0.0987
 4990W        W21251   7.876  19.363   1.786  0.1046  0.0595 -0.1639
 4991W        W21252   8.084  18.718  11.332 -0.2413  0.0474  0.0107
 4992W        W21253   8.463   5.728   0.715  0.2849  0.1935 -0.2753
 4993W        W21254   9.453  16.289   2.189  0.3766 -0.0790 -0.0210
 4994W        W21255   2.278   2.297  13.162 -0.0362 -0.2219 -0.1608
 4995W        W21256  12.486   4.433   4.504  0.2136 -0.2571  0.0991
 4996W        W21257   2.435   4.417  14.061 -0.1409  0.0072  0.0489
 4997W        W21258   3.541  17.093   2.671  0.2545 -0.0007  0.0367
 4998W        W21259   6.232  17.528   4.748  0.1890  0.2796  0.2240
 4999W        W21260  18.703  10.699   2.311  0.1253 -0.0947  0.0508
 5000W        W21261  13.960   7.952   0.940 -0.0167 -0.1304  0.0225
 5001W        W21262  13.511  15.099  12.892 -0.1391 -0.2330 -0.4148
 5002W        W21263  17.052  18.783  13.662 -0.0659  0.2236 -0.1408
 5003W        W21264   1.740   8.017   2.132  0.2407  0.3991 -0.2395
 5004W        W21265   7.958  17.075   5.117 -0.2043  0.0997 -0.1943
 5005W        W21266  19.219  12.111   0.600 -0.2581  0.0816  0.0849
 5006W        W21267   6.350   3.041  14.299  0.1940 -0.4153  0.1127
 5007W        W21268   5.417  12.825   5.305 -0.4148  0.1417  0.0101
 5008W        W21269  10.187  14.808   2.059 -0.1656  0.0074  0.0393
 5009W        W21270   5.002  11.423   0.384  0.0811  0.1624 -0.3603
 5010W        W21271   9.968  14.137   3.287 -0.2024  0.2933  0.0323
 5011W        W21272   9.007   8.487   4.301  0.0379 -0.0663  0.0726
 5012W        W21273   0.984  14.899   3.332 -0.0425  0.2174 -0.4864
 5013W        W21274  15.275  10.770  14.508  0.2906 -0.1268  0.3412
 5014W        W21275   3.341  13.659   4.586  0.4312  0.0453  0.1688
 5015W        W21276  14.638  17.305  14.564  0.1917 -0.4622  0.3006
 5016W        W21277   9.943  11.841  12.480  0.1456  0.1020 -0.1691
 5017W        W21278  18.721   0.183   4.476 -0.0441  0.1780  0.0778
 5018W        W21279   0.214   3.237  11.822 -0.1003 -0.0388 -0.2630
 5019W        W21280  16.420  16.928   5.214  0.0584  0.0246  0.0640
 5020W        W21281  16.913  15.043  11.191 -0.1568 -0.0894 -0.5759
 5021W        W21282   5.554   5.706   9.628 -0.2842 -0.0605  0.1616
 5022W        W21283   7.355   4.086  10.097 -0.0133 -0.1845  0.3268
 5023W        W21284   3.954  19.176   3.211 -0.1901  0.1121  0.0763
 5024W        W21285  13.413  15.193  13.367  0.0608 -0.2200 -0.0479
 5025W        W21286   1.765   9.016   5.845 -0.0974  0.3073 -0.0787
 5026W        W21287   9.191   8.234   1.268 -0.1013 -0.2467  0.0896
 5027W        W21288   6.740  13.293   4.822  0.2637  0.0559  0.0075
 5028W        W21289  11.127  19.324   5.535  0.2340  0.0242  0.0873
 5029W        W21290   7.173   5.385   3.041  0.1192  0.1289 -0.4892
 5030W        W21291   9.942   7.601   1.879 -0.3050 -0.6544  0.0574
 5031W        W21292  12.465   4.668  14.061  0.2723  0.4223 -0.4652
 5032W        W21293   1.993   1.279   2.149 -0.0422  0.0384 -0.0198
 5033W        W21294  18.434   6.936  10.871  0.2347 -0.0132  0.2219
 5034W        W21295  15.522  12.568  11.659  0.2366  0.1483 -0.0633
 5035W        W21296   4.761   8.502  10.573 -0.1181  0.0329  0.2939
 5036W        W21297  11.412   2.071   4.463  0.0270  0.1608 -0.0121
 5037W        W21298  19.308   3.513  14.566 -0.2870  0.0825 -0.1133
 5038W        W21299   3.097   2.535  10.773  0.1286 -0.0457 -0.6108
 5039W        W21300  13.148   2.258  12.207 -0.0285  0.3341 -0.2205
 5040W        W21301   2.529   2.356  14.284  0.2115 -0.1354 -0.0879
 5041W        W21302   5.398   4.592   4.749  0.2231  0.1240  0.1154
 5042W        W21303  16.449   9.442  13.545 -0.1300  0.1898 -0.2688
 5043W        W21304   8.110  11.013   3.797  0.2340 -0.3031 -0.1385
 5044W        W21305   6.074   3.814  12.895  0.0956 -0.2803  0.2531
 5045W        W21306  18.033   9.379   3.070 -0.0612 -0.5577 -0.2060
 5046W        W21307  12.380   1.913   1.875 -0.3913 -0.1373 -0.1750
 5047W        W21308  11.810  16.783   3.623  0.0719 -0.0182  0.0756
 5048W        W21309  18.663   1.551   3.655 -0.3247 -0.1280  0.1123
 5049W        W21310  16.880  16.512   4.647  0.2648  0.0028  0.0690
 5050W        W21311   3.513  14.531   3.366 -0.1940 -0.0756  0.1615
 5051W        W21312  12.058   7.229  13.203 -0.2389  0.1576  0.1802
 5052W        W21313   4.831  12.667   0.451 -0.0302  0.2232 -0.3711
 5053W        W21314  11.618  13.456   4.143 -0.1218  0.0309  0.0913
 5054W        W21315  12.241  15.219  14.571 -0.2456  0.0774 -0.1298
 5055W        W21316  15.927  19.418  12.052  0.0010 -0.1146 -0.2640
 5056W        W21317  14.998   6.157   0.290 -0.0059 -0.1364 -0.0210
 5057W        W21318   4.312   0.027   3.785 -0.3605  0.0929 -0.0522
 5058W        W21319  10.780  13.946  14.489 -0.0606 -0.0191 -0.1128
 5059W        W21320  16.391  14.274  12.915  0.1512 -0.0373 -0.1642
 5060W        W21321  14.962   7.444  11.171 -0.4186 -0.1265 -0.0420
 5061W        W21322   4.606   8.668  12.297  0.0029 -0.0386  0.0307
 5062W        W21323   1.166   0.337  13.271  0.3523  0.2162 -0.1428
 5063W        W21324  16.018  13.539   0.138  0.1046 -0.1365  0.1152
 5064W        W21325  14.312   1.855  13.648  0.0366  0.1841 -0.1160
 5065W        W21326  15.138   5.306  10.635  0.1473 -0.2728  0.2313
 5066W        W21327   6.306  15.500  12.349  0.0164 -0.3127  0.0225
 5067W        W21328   5.674   5.187  13.930 -0.2130  0.0219 -0.3458
 5068W        W21329   2.668   0.549  13.433  0.1310  0.1192  0.0480
 5069W        W21330  12.086   5.863   3.545 -0.2281  0.0179  0.2442
 5070W        W21331   5.101   0.448   0.546  0.1020  0.2266 -0.3418
 5071W        W21332   3.333  17.077   4.324  0.1543  0.0406 -0.0470
 5072W        W21333  14.398   0.537   4.699  0.2878 -0.2838  0.1123
 5073W        W21334   0.646   4.037  13.755  0.0787  0.2402 -0.1505
 5074W        W21335  12.939  18.862  14.409 -0.0650 -0.1128 -0.0888
 5075W        W21336  10.192  17.892  14.743 -0.0316 -0.0660 -0.1091
 5076W        W21337   0.034   8.793   4.132 -0.2369 -0.2421  0.0888
 5077W        W21338  11.889  13.328   0.107 -0.1559 -0.1096 -0.0009
 5078W        W21339  12.662  11.035   4.743  0.2476 -0.1900  0.1624
 5079W        W21340   3.280   3.038   1.342  0.2209  0.0425 -0.1044
 5080W        W21341   7.531  11.843  13.124 -0.2516  0.0229 -0.2069
 5081W        W21342  13.285   0.067   4.865  0.2966 -0.0497  0.1104
 5082W        W21343   1.564  10.988   1.399  0.1726  0.1991  0.0993
 5083W        W21344  18.287   8.900   5.242 -0.1192 -0.0047  0.2335
 5084W        W21345   4.502   9.801   4.848 -0.2076 -0.2336 -0.0589
 5085W        W21346   9.029  18.966  12.457 -0.0815 -0.2644 -0.2489
 5086W        W21347   1.389  16.895  14.627  0.1019  0.1045  0.0459
 5087W        W21348  16.749   2.684  13.801 -0.1074  0.0682  0.0562
 5088W        W21349   5.775   3.688   3.568  0.2553 -0.2416 -0.0797
 5089W        W21350  16.463  10.819   4.949 -0.0506  0.4236  0.2738
 5090W        W21351   8.221  13.755  11.544  0.0272  0.0192  0.0002
 5091W        W21352  11.470   1.780   2.733  0.3394 -0.0528  0.0478
 5092W        W21353  15.485  15.632  13.483  0.1238 -0.0689  0.5140
 5093W        W21354   7.673  14.923   2.627 -0.3860  0.1050  0.2694
 5094W        W21355   0.079   2.515  10.491  0.0844  0.0737 -0.2622
 5095W        W21356   4.999   3.313  13.655 -0.2331  0.0663 -0.1847
 5096W        W21357   3.584  10.910   0.240  0.0990  0.1208  0.5414
 5097W        W21358   6.541  18.040   5.298  0.0299  0.3160 -0.0957
 5098W        W21359  12.232   0.717   2.304  0.2919 -0.1102  0.1270
 5099W        W21360  13.492  14.259  10.940 -0.1453  0.1389 -0.1853
 5100W        W21361  16.423   5.794  11.562  0.1963 -0.1534  0.0655
 5101W        W21362  17.780  14.819  11.012  0.1773  0.1480 -0.0530
 5102W        W21363  10.125  11.858   3.505 -0.1305  0.0377  0.1461
 5103W        W21364   9.290  13.188   4.390 -0.0311  0.1802  0.0143
 5104W        W21365  10.345  15.403   3.738  0.0620  0.2360  0.4291
 5105W        W21366   0.287  10.629  14.173  0.1968  0.0065 -0.0490
 5106W        W21367  10.144   9.462  11.242  0.2637  0.4089 -0.3413
 5107W        W21368   7.393  14.619   0.088  0.0855  0.2389  0.0955
 5108W        W21369   4.231   9.214  11.425  0.2789  0.1182 -0.0286
 5109W        W21370   6.765  16.052   0.233 -0.2059 -0.2048  0.0348
 5110W        W21371  15.735  19.377  10.179 -0.2934  0.0330  0.0455
 5111W        W21372  13.800  14.847  11.269  0.0319 -0.0487  0.3651
 5112W        W21373  16.664  14.052  13.540  0.3969  0.0396  0.0084
 5113W        W21374  18.072  18.134   2.816  0.2323  0.2965 -0.1286
 5114W        W21375  16.266   9.302   3.760 -0.3905  0.3009  0.2974
 5115W        W21376  16.098  12.500   2.829  0.5173  0.4369  0.1511
 5116W        W21377   0.296  15.876  13.979 -0.5017  0.1347  0.1852
 5117W        W21378  10.586   9.288   2.373  0.1638  0.0570  0.0417
 5118W        W21379   6.032  15.212   5.695  0.3838 -0.1031  0.0084
 5119W        W21380   8.673   9.881  12.312  0.1406  0.0189  0.2768
 5120W        W21381  15.556   7.234   2.784 -0.1673 -0.0262 -0.0580
 5121W        W21382   6.303   7.405   2.137  0.4250  0.1180 -0.1224
 5122W        W21383   6.153  10.676   1.295  0.3200 -0.1546 -0.1529
 5123W        W21384  16.977  10.469   1.222 -0.0625  0.1713 -0.0951
 5124W        W21385   9.137   8.050  11.080  0.0440 -0.1891  0.0522
 5125W        W21386  18.847   7.013  12.889  0.0494  0.0392  0.0997
 5126W        W21387  14.649   1.637  13.295  0.0526  0.1864 -0.2054
 5127W        W21388  14.449  16.439  10.679  0.0168 -0.3084 -0.1095
 5128W        W21389  14.241  11.569  11.591  0.3945 -0.0987  0.0738
 5129W        W21390   2.266  18.758   1.588  0.1300  0.1812  0.1998
 5130W        W21391   6.578   4.275   1.418  0.0444 -0.5304 -0.2409
 5131W        W21392  12.087   5.893  10.681  0.1539  0.5315 -0.2962
 5132W        W21393  19.071  13.612   4.598  0.0276 -0.2077  0.1717
 5133W        W21394   0.642   8.032  10.615 -0.0694  0.2666  0.1530
 5134W        W21395   3.862  18.845   4.820  0.3226 -0.0693 -0.0691
 5135W        W21396   7.335  19.276  10.015  0.1936  0.2344  0.0371
 5136W        W21397  11.877   7.503  10.987 -0.0918 -0.0745  0.1515
 5137W        W21398  14.360   4.875   0.999 -0.1233  0.1897 -0.2436
 5138W        W21399   2.898   1.950   2.953  0.0980 -0.1569 -0.0583
 5139W        W21400  14.027  12.755   2.925 -0.0651  0.2226  0.1182
 5140W        W21401   8.832   3.138  14.011 -0.0796  0.0699 -0.2923
 5141W        W21402  17.957   7.699   2.718 -0.1277  0.2997 -0.1763
 5142W        W21403   5.514  12.645   4.629  0.1861 -0.1575  0.2873
 5143W        W21404   1.515   6.794   2.133 -0.0556 -0.1432  0.1271
 5144W        W21405  16.015   4.379  11.113 -0.0171 -0.2208 -0.0221
 5145W        W21406  14.687  18.796  13.351 -0.2382 -0.1966  0.0836
 5146W        W21407   7.808   2.899   3.951 -0.0353  0.2412 -0.1724
 5147W        W21408   4.802  13.811  10.893  0.1181 -0.2309  0.0405
 5148W        W21409  12.733   0.513   1.791  0.0470  0.0082 -0.0648
 5149W        W21410   1.515  13.417   5.308 -0.2320 -0.1336  0.2022
 5150W        W21411   9.896   7.906  13.516 -0.0256 -0.1159  0.0471
 5151W        W21412  13.457  14.477  12.428  0.2487  0.0655  0.1491
 5152W        W21413  17.682  16.342   0.145  0.1958  0.0858 -0.1396
 5153W        W21414   9.123   8.628   2.796  0.0457 -0.0334 -0.2607
 5154W        W21415   2.543   9.770   2.222  0.1628 -0.3096  0.4789
 5155W        W21416   2.001  12.515   3.282  0.4739  0.1058 -0.1116
 5156W        W21417   0.733  13.102   1.389  0.1181 -0.1082 -0.1076
 5157W        W21418   1.389   4.854   2.101  0.2045 -0.0192 -0.1059
 5158W        W21419  12.028  14.889  13.683 -0.1444 -0.1598  0.0915
 5159W        W21420  19.006  11.737  14.329 -0.1775  0.3162 -0.0866
 5160W        W21421   9.586   3.946   0.580 -0.1212 -0.1829  0.1101
 5161W        W21422   7.760  12.483  12.923 -0.0918 -0.4239  0.1127
 5162W        W21423  15.838   8.440   4.491 -0.0044 -0.1905 -0.0878
 5163W        W21424   7.228  13.829   1.029  0.2844  0.3071  0.0857
 5164W        W21425   0.226  18.457  10.789  0.2765  0.3294 -0.3494
 5165W        W21426  14.601   1.023  14.607  0.0324  0.1747 -0.4596
 5166W        W21427  10.158   7.137   9.761 -0.0365  0.0485  0.1481
 5167W        W21428   3.369  10.817  10.707 -0.1482 -0.2263 -0.0532
 5168W        W21429   5.794  10.288   1.323 -0.1344  0.1220  0.1527
 5169W        W21430   4.539   4.718  13.164 -0.0642 -0.3078  0.0496
 5170W        W21431  15.482  14.038   0.820  0.1247  0.0694 -0.1487
 5171W        W21432  16.757   9.158  11.455 -0.1889 -0.3051  0.2826
 5172W        W21433   0.571   1.598   3.383 -0.0850  0.0025 -0.2193
 5173W        W21434   3.796   9.727   2.822 -0.1601  0.0316 -0.0040
 5174W        W21435   3.837  18.117  14.759  0.0269  0.3426  0.0460
 5175W        W21436   0.857   9.980  10.499  0.0806 -0.4493  0.3251
 5176W        W21437   4.670  16.662   2.821  0.1535 -0.0671 -0.2383
 5177W        W21438   8.039   4.454  11.013  0.1062  0.0677 -0.2308
 5178W        W21439   6.219  14.555   1.431  0.1183 -0.0866  0.0512
 5179W        W21440   0.559  15.932  12.468  0.1333 -0.0525 -0.1383
 5180W        W21441   5.633   1.542   1.073 -0.0945  0.0830  0.2241
 5181W        W21442  11.966  14.455  14.138  0.3902 -0.0441 -0.0817
 5182W        W21443  14.041   0.679   4.352 -0.1650  0.0726 -0.1653
 5183W        W21444  12.020   6.200  12.312  0.0642  0.1950  0.1122
 5184W        W21445   6.616  13.577   3.803 -0.0201  0.1029 -0.3123
 5185W        W21446   8.950   4.830   9.770  0.1228  0.0955  0.0624
 5186W        W21447  10.117   1.652   1.164  0.3148  0.2668 -0.1970
 5187W        W21448   0.760  18.380  12.269  0.2306 -0.1533 -0.0501
 5188W        W21449   1.808   4.309   2.446 -0.0700 -0.0439 -0.0278
 5189W        W21450  16.964  17.740  11.850  0.1013  0.0458  0.1376
 5190W        W21451   7.136  14.516   1.244  0.0900 -0.0748  0.0679
 5191W        W21452   1.515  11.049   4.560 -0.0896  0.3143 -0.1357
 5192W        W21453   9.982  17.285   2.690 -0.0029 -0.3234 -0.0660
 5193W        W21454   2.345  11.451   4.223  0.1516  0.0172  0.0546
 5194W        W21455  14.531   9.819   2.242 -0.1671 -0.2385  0.1631
 5195W        W21456  13.575   5.224   1.652 -0.1257 -0.1190 -0.2193
 5196W        W21457  17.981   4.107  11.457 -0.3494  0.2633 -0.0916
 5197W        W21458   8.866   8.453  10.728 -0.1230 -0.0561 -0.1272
 5198W        W21459   2.350   9.109   3.216 -0.1630 -0.1016 -0.3416
 5199W        W21460  10.081  11.849  14.573 -0.1138 -0.0985  0.0315
 5200W        W21461   9.056   4.020  10.348  0.2318  0.0889  0.0798
 5201W        W21462   0.197  17.620   2.862  0.0956  0.0881 -0.1603
 5202W        W21463  13.817   0.787  10.760  0.0582 -0.2107  0.0822
 5203W        W21464   6.030   6.333  13.284 -0.2205 -0.3851  0.0097
 5204W        W21465  16.089   4.737   0.843  0.6631  0.4182  0.2885
 5205W        W21466   4.368  14.344   3.626  0.2137  0.2262  0.0854
 5206W        W21467   1.192  17.589  12.253  0.3309  0.4572  0.4500
 5207W        W21468   5.997  11.943   3.365 -0.2413  0.1191 -0.1574
 5208W        W21469   1.414   2.040   2.373  0.0630 -0.0997 -0.1444
 5209W        W21470  16.890   8.258  11.085 -0.1945 -0.1061 -0.3340
 5210W        W21471  16.413  12.197  14.127  0.3853  0.0747  0.1215
 5211W        W21472   8.862  17.490   3.008  0.1081 -0.1127  0.1266
 5212W        W21473   7.567  17.249  10.666 -0.0297  0.3021  0.0386
 5213W        W21474   0.274  16.339  13.734  0.3779  0.2981 -0.0933
 5214W        W21475  10.744   7.250  12.603 -0.0530 -0.0387  0.1974
 5215W        W21476  16.357   5.056   4.942 -0.2046 -0.0609 -0.2611
 5216W        W21477  14.387  18.356  12.572  0.0614  0.0372 -0.1703
 5217W        W21478  17.980  11.110   4.087  0.2155  0.0212  0.0509
 5218W        W21479   8.600   8.832   4.135 -0.2457 -0.3340 -0.0481
 5219W        W21480  17.418   3.446   3.520 -0.1027  0.1949  0.0692
 5220W        W21481  17.909   7.627   5.021  0.1638 -0.0584  0.3530
 5221W        W21482   7.293   5.503   2.103 -0.3347  0.0845 -0.1473
 5222W        W21483  10.073  13.238   1.553  0.3487 -0.0062 -0.0574
 5223W        W21484   9.111  19.120   2.188 -0.3591  0.1577  0.1676
 5224W        W21485  12.048   8.392  14.389  0.1071  0.0578  0.2034
 5225W        W21486  18.376   0.800   1.360  0.1146 -0.1860 -0.0784
 5226W        W21487  14.975   6.661   0.687 -0.3681 -0.0311 -0.2484
 5227W        W21488  13.826   5.907   2.858 -0.0188  0.2445 -0.3234
 5228W        W21489   4.651  12.252  12.484 -0.1966 -0.1660  0.1284
 5229W        W21490  17.325   5.909   0.435 -0.1688  0.0441 -0.1008
 5230W        W21491   4.186   4.897   3.536 -0.2787  0.1538  0.0201
 5231W        W21492   5.530  12.795  10.246 -0.2558  0.1156  0.0135
 5232W        W21493  15.447  12.654   2.335  0.2282 -0.2618 -0.0424
 5233W        W21494   2.043   2.383  13.595  0.2415 -0.1579 -0.3187
 5234W        W21495  15.152  16.971  10.850 -0.0225 -0.2134 -0.0836
 5235W        W21496  10.121   6.447  10.467  0.0725  0.0308  0.0366
 5236W        W21497   1.626   8.974  10.502  0.1014  0.1115  0.2984
 5237W        W21498  15.433   9.734  12.198 -0.0517  0.2325 -0.3258
 5238W        W21499   0.907   0.293   4.257 -0.2380  0.2606 -0.0305
 5239W        W21500  12.388   4.176  10.704 -0.1993 -0.0273 -0.0472
 5240W        W21501  14.802   1.290   1.417  0.4177  0.1345  0.0811
 5241W        W21502  11.487   4.095  10.996 -0.0033 -0.1958 -0.3335
 5242W        W21503  16.197   9.889  10.638 -0.2551  0.2284  0.3251
 5243W        W21504   5.345   2.039   1.818  0.2145 -0.0267  0.1709
 5244W        W21505   0.747   9.503   2.793 -0.2360  0.1823  0.0319
 5245W        W21506   5.904  15.883   3.065  0.1013 -0.0179 -0.1243
 5246W        W21507   4.035  14.199   5.118 -0.2240 -0.2102 -0.1785
 5247W        W21508  16.812   5.524   9.091  0.3034 -0.1940 -0.1825
 5248W        W21509  18.793  11.144   2.070 -0.1080 -0.1672 -0.0252
 5249W        W21510   7.584  19.042  11.121  0.2525 -0.3150  0.2074
 5250W        W21511   1.409   9.825   5.527 -0.1442  0.2584 -0.2213
 5251W        W21512  12.812   9.706   2.653 -0.0645  0.1380  0.1834
 5252W        W21513  11.985   6.199   1.147  0.0123 -0.2463  0.2541
 5253W        W21514   8.417  16.756   1.007  0.1557 -0.0358  0.2332
 5254W        W21515  18.398   2.771  12.604 -0.0870 -0.1900  0.2026
 5255W        W21516   5.555   2.314   0.791 -0.0081 -0.1633  0.0145
 5256W        W21517   1.328  15.466   0.600  0.1960 -0.3876  0.0921
 5257W        W21518  14.154   5.686  12.263 -0.2592 -0.1753  0.2133
 5258W        W21519   9.925   2.390  11.361  0.1587  0.0276  0.2276
 5259W        W21520   8.984  12.751  13.231 -0.0644 -0.1907 -0.1645
 5260W        W21521  17.761  13.490  12.264  0.3508 -0.1094  0.3345
 5261W        W21522   9.663   5.489   2.516 -0.2927 -0.2088  0.1048
 5262W        W21523   1.801   6.466  12.676  0.0905  0.0185 -0.1517
 5263W        W21524   4.824  11.030   9.444 -0.1459  0.1490  0.0301
 5264W        W21525   9.567  15.596  13.101 -0.2800 -0.3178  0.1569
 5265W        W21526   9.661  14.884  10.312  0.1842 -0.0923  0.1420
 5266W        W21527  14.633   5.120  12.997  0.2564  0.1085 -0.2954
 5267W        W21528  12.664   5.071   1.003 -0.2553 -0.3078 -0.3374
 5268W        W21529   5.322   2.431  14.749  0.0931 -0.0207  0.3761
 5269W        W21530   4.402  10.228   3.695 -0.1326 -0.0294  0.2189
 5270W        W21531  11.052  17.428   0.297  0.2160 -0.2583 -0.0458
 5271W        W21532  18.388  16.915  13.012 -0.0308 -0.1587  0.1300
 5272W        W21533   3.266  17.390  14.713 -0.1174 -0.1038  0.0989
 5273W        W21534  15.497  11.334  13.256  0.1646 -0.0519  0.0457
 5274W        W21535   2.946  19.336  10.842 -0.0737 -0.0251  0.0096
 5275W        W21536  13.677   8.305  12.495 -0.1248  0.0464 -0.4337
 5276W        W21537   8.179   3.983   0.881  0.1495 -0.2014  0.2420
 5277W        W21538   9.774  16.673   2.888  0.0550  0.1194  0.2761
 5278W        W21539  14.117  18.478   2.853 -0.1393  0.0929 -0.0245
 5279W        W21540  16.019  11.961   3.584  0.0541  0.1613  0.1655
 5280W        W21541  19.216   1.479   4.628 -0.1398  0.1192 -0.0492
 5281W        W21542  16.467   0.083  12.042  0.2048 -0.2554  0.0583
 5282W        W21543   6.954  16.554   2.658 -0.1684 -0.2323 -0.1727
 5283W        W21544   4.781  13.099  10.738  0.0615  0.0216  0.4670
 5284W        W21545   3.864   4.252  13.589 -0.2108 -0.0444  0.0443
 5285W        W21546  18.809  13.045   2.096  0.1722 -0.1983  0.0622
 5286W        W21547  13.876   1.398   1.384 -0.2984 -0.0504 -0.1711
 5287W        W21548  14.873   7.555  11.815  0.1120 -0.3174 -0.2066
 5288W        W21549  14.346   7.433  11.973 -0.0858 -0.0384 -0.3426
 5289W        W21550   5.470  17.754   3.962 -0.1162  0.0344  0.1411
 5290W        W21551  16.642  17.872  14.351 -0.1217  0.2163 -0.0817
 5291W        W21552   0.576   2.396   1.774 -0.1816 -0.0994 -0.1123
 5292W        W21553   4.712  17.251  10.212  0.0385  0.3958 -0.0120
 5293W        W21554  17.599  15.748   2.416 -0.3004  0.3228 -0.3279
 5294W        W21555  14.600   6.498   0.352  0.2975 -0.1151 -0.2005
 5295W        W21556  16.631   0.144  14.682 -0.1656  0.0838  0.0592
 5296W        W21557   3.769  15.884   0.694 -0.1163  0.1783 -0.2655
 5297W        W21558  16.057   2.440  11.059 -0.2673  0.0900 -0.0205
 5298W        W21559   6.286   1.746   0.382  0.2940 -0.1277  0.0620
 5299W        W21560  14.668  16.644   2.405  0.0974 -0.1201 -0.0073
 5300W        W21561   7.614  14.166   1.985  0.0581  0.0040  0.2396
 5301W        W21562   9.115   9.417  11.419  0.2235  0.0228  0.0797
 5302W        W21563  13.463   0.536  11.045  0.4373 -0.1584  0.1505
 5303W        W21564  16.546   8.006   2.171 -0.2808 -0.0317  0.0949
 5304W        W21565   9.610   5.271   4.789 -0.0321  0.1952  0.0968
 5305W        W21566   4.482  13.986  12.479 -0.0811  0.1782 -0.2166
 5306W        W21567   2.094   4.286   3.565  0.3637  0.1928 -0.1792
 5307W        W21568  13.279  17.039  11.494 -0.0105 -0.3054  0.0224
 5308W        W21569  13.390   7.154   2.353 -0.4014  0.1428 -0.1666
 5309W        W21570  13.365   6.390   0.014 -0.1285  0.2623 -0.3790
 5310W        W21571  14.875   9.064   0.872 -0.1366 -0.2491 -0.0064
 5311W        W21572  11.767   6.368   4.637  0.0448 -0.2055  0.2176
 5312W        W21573   6.217   2.421   2.943  0.1525 -0.1288 -0.0673
 5313W        W21574  12.042  15.996  14.687 -0.0688  0.5212 -0.0207
 5314W        W21575  13.950  14.136   3.787  0.2727  0.1555  0.1996
 5315W        W21576   2.383  11.793   1.447  0.1627  0.2285 -0.2460
 5316W        W21577  10.035  10.401   4.258 -0.2719  0.2725 -0.1131
 5317W        W21578   9.118  12.858   3.168  0.0600 -0.1076 -0.1235
 5318W        W21579   3.046  15.286  10.426 -0.1485  0.3636  0.0063
 5319W        W21580   9.864   6.254  12.749  0.1552 -0.0876 -0.2825
 5320W        W21581   1.428  17.321   1.664  0.2083 -0.0940  0.2062
 5321W        W21582  11.713   1.711   0.339  0.4030 -0.1853  0.1694
 5322W        W21583   7.658   2.268   0.115  0.0683 -0.2786  0.2248
 5323W        W21584  15.324  10.375   0.290 -0.1797  0.1298  0.1433
 5324W        W21585   9.205   3.657  13.691  0.0876  0.1230  0.1397
 5325W        W21586   6.074   3.269  12.823 -0.0057  0.2013 -0.0948
 5326W        W21587   7.558  14.020  12.420 -0.0598  0.3188  0.2132
 5327W        W21588   7.614  19.253   4.317  0.0859 -0.1258  0.1745
 5328W        W21589  16.315   0.097  13.571 -0.3717 -0.1031  0.1808
 5329W        W21590  18.578   1.869   1.000 -0.0097 -0.2692 -0.0616
 5330W        W21591  11.027  14.733   1.027  0.1772 -0.0735 -0.2818
 5331W        W21592  12.223  12.050   3.567  0.1001 -0.1355  0.2015
 5332W        W21593   3.336  10.063  12.413 -0.0345 -0.3015 -0.3600
 5333W        W21594  19.201   7.520   4.458  0.1195  0.0465 -0.2031
 5334W        W21595  17.861   2.698  11.601 -0.2416 -0.1338  0.1406
 5335W        W21596  17.571  14.108   3.660  0.1600  0.1064  0.1823
 5336W        W21597   0.992  15.579  13.724 -0.3066 -0.1918  0.0569
 5337W        W21598   6.037   1.042   2.653  0.2575 -0.2401  0.5141
 5338W        W21599  17.531  12.790  11.108 -0.0581 -0.1119  0.0096
 5339W        W21600  11.582  13.781   3.673  0.0902 -0.3514 -0.1702
 5340W        W21601   3.987   2.709  10.961  0.4508  0.2801 -0.1221
 5341W        W21602  18.535   9.927   0.557 -0.0182  0.1329 -0.0608
 5342W        W21603  14.316   1.538   3.536  0.2735  0.0408  0.1729
 5343W        W21604  16.098   9.050   0.451 -0.3205  0.2719  0.1738
 5344W        W21605   4.924  18.588   1.813  0.0774  0.0335 -0.3037
 5345W        W21606   1.077  15.490   2.641 -0.3055 -0.2647 -0.0911
 5346W        W21607   5.772   1.267  12.606 -0.1911  0.0029 -0.2100
 5347W        W21608   9.725  15.422   4.831 -0.1285 -0.1217  0.0594
 5348W        W21609  11.896  13.933   4.252  0.0579  0.1478 -0.1896
 5349W        W21610   7.937  12.888   3.604  0.1566  0.0078  0.1232
 5350W        W21611   1.668   4.518   0.440  0.3419 -0.3069 -0.1829
 5351W        W21612   2.274  15.101  11.598 -0.3902  0.2375  0.0253
 5352W        W21613  17.278  16.364   1.877  0.1988  0.0471  0.1226
 5353W        W21614  18.648   0.959  13.254 -0.3711  0.2231  0.2806
 5354W        W21615   7.282  12.360  12.338  0.3032 -0.1775  0.0163
 5355W        W21616   7.238  18.687  10.041 -0.0567  0.2003 -0.0450
 5356W        W21617  11.690   0.853   0.294 -0.3664  0.1800  0.1920
 5357W        W21618   1.555   5.208  10.353  0.0356 -0.0351 -0.1763
 5358W        W21619  13.125   3.831  11.617  0.1892  0.1071  0.0469
 5359W        W21620  18.315   6.995   2.429  0.3207  0.0947 -0.1000
 5360W        W21621  13.619   7.510   0.096  0.0008  0.0218  0.0908
 5361W        W21622   6.991   4.324   2.493 -0.2280  0.0734 -0.2533
 5362W        W21623   8.647  14.729  13.717 -0.0467  0.2280 -0.0791
 5363W        W21624  11.056  14.286  10.583  0.0672  0.1747  0.2231
 5364W        W21625   7.989  11.817  11.075  0.1077 -0.1724 -0.4173
 5365W        W21626   9.958   6.454   2.308 -0.4967 -0.0769 -0.2641
 5366W        W21627  17.828   0.388  12.005  0.0986  0.2053 -0.2208
 5367W        W21628   8.089   0.968   2.166  0.3400  0.1675 -0.0287
 5368W        W21629   9.714   0.019  10.952 -0.3208 -0.1092 -0.1465
 5369W        W21630  10.606   4.900  13.863 -0.0484  0.3893 -0.1518
 5370W        W21631  15.130   0.573   4.402 -0.1920 -0.1789 -0.0248
 5371W        W21632   8.081  15.607   4.715 -0.0342 -0.0403  0.3010
 5372W        W21633  18.557  10.080  10.957 -0.0837  0.1805 -0.1227
 5373W        W21634   1.643  17.258  13.297 -0.0683  0.0541  0.3965
 5374W        W21635   0.030  16.926  12.574 -0.0377  0.0440  0.0448
 5375W        W21636   1.614   6.065   9.794  0.4037 -0.1400  0.3211
 5376W        W21637   6.664  12.637   1.335  0.0764 -0.1848 -0.1068
 5377W        W21638  12.448   0.429  11.053 -0.0708 -0.1860  0.2118
 5378W        W21639   5.305   0.121   1.487 -0.2363 -0.4343 -0.0143
 5379W        W21640  16.254   0.071  12.536  0.1262 -0.2837  0.1273
 5380W        W21641   4.092   5.755  13.783  0.1577 -0.0128 -0.1569
 5381W        W21642  12.530  13.050   2.376  0.1752 -0.0577  0.0624
 5382W        W21643  18.363  18.336   5.120  0.2166  0.1674  0.1339
 5383W        W21644  10.256  13.991   3.661  0.2688  0.3135 -0.0458
 5384W        W21645  13.680   6.882  11.463 -0.0484 -0.1383 -0.2423
 5385W        W21646   7.665   9.544  13.323 -0.1559 -0.1368  0.0232
 5386W        W21647   2.057  17.376  10.574  0.0103 -0.1522  0.1704
 5387W        W21648  13.989   4.107  13.192  0.0338 -0.3910  0.0361
 5388W        W21649  12.241   4.134   1.372  0.2804  0.2541 -0.0464
 5389W        W21650  17.722  17.349  14.425 -0.0218  0.0660  0.2642
 5390W        W21651  18.046   1.091  13.180 -0.0776  0.0496  0.0895
 5391W        W21652  14.431   6.697   0.822 -0.1405 -0.1054  0.0053
 5392W        W21653   8.519  11.169   1.773  0.1082  0.1818  0.0665
 5393W        W21654  10.082   7.896  12.204  0.2148  0.1989  0.0375
 5394W        W21655  13.745   6.934   2.042  0.3017  0.1061 -0.0631
 5395W        W21656  17.382  17.597  10.499  0.1855  0.0977  0.1344
 5396W        W21657  11.677   6.297  13.767  0.1465 -0.1068  0.2994
 5397W        W21658  16.187   4.032  14.277 -0.0717 -0.0350  0.0433
 5398W        W21659  17.178   4.241   2.690  0.1340  0.2679 -0.1197
 5399W        W21660  12.354   0.469  11.844 -0.0495 -0.0462 -0.1310
 5400W        W21661   3.643  18.562   1.601 -0.2364 -0.2556 -0.3360
 5401W        W21662   6.926   0.458  11.198 -0.0975 -0.1186  0.2087
 5402W        W21663   1.497   2.169  10.638 -0.2504 -0.1169 -0.4942
 5403W        W21664   1.752  17.879   3.791  0.1362  0.3044 -0.1598
 5404W        W21665  10.087   2.120  14.471 -0.1000 -0.4845  0.3146
 5405W        W21666   8.613   3.961   1.114  0.2348 -0.1162  0.1788
 5406W        W21667  12.197  14.303   4.108 -0.0693  0.1651 -0.0651
 5407W        W21668   3.167   6.913   9.945  0.3633 -0.0019  0.0895
 5408W        W21669   8.133   4.918   0.324  0.1877  0.2674 -0.2234
 5409W        W21670   4.104   6.681  12.414 -0.0546  0.0137  0.3057
 5410W        W21671   2.943   2.634   3.687  0.2877  0.0611 -0.2896
 5411W        W21672   0.396   1.147   1.573  0.0293  0.2115  0.1433
 5412W        W21673   4.540  15.165   0.715  0.1724 -0.2367 -0.1214
 5413W        W21674   4.918  17.199   4.797  0.0218  0.0524  0.3691
 5414W        W21675  14.324  11.916  13.769 -0.1454 -0.2243  0.1306
 5415W        W21676   4.782   5.588   3.911  0.0187 -0.1853 -0.0303
 5416W        W21677   7.282  15.901  14.150 -0.0730 -0.1084  0.1529
 5417W        W21678  14.101  16.491   1.738 -0.3404  0.1069 -0.2274
 5418W        W21679  11.071   0.497  14.107 -0.2236 -0.3519  0.3124
 5419W        W21680  15.869   0.592  12.591 -0.1072 -0.0292  0.2190
 5420W        W21681   0.112  19.248   1.266 -0.2252 -0.0602  0.0782
 5421W        W21682   5.148   6.220   1.605 -0.0239  0.1235  0.0363
 5422W        W21683  13.411  16.182   1.186 -0.0190 -0.0712  0.3894
 5423W        W21684   8.942  15.215   3.872 -0.3481 -0.1920  0.1871
 5424W        W21685  10.583   2.436  11.819 -0.0027  0.0974 -0.0619
 5425W        W21686  11.233   9.049   9.910  0.1601 -0.1210  0.0147
 5426W        W21687   1.126   0.807  14.600  0.1678 -0.2473 -0.3949
 5427W        W21688  18.713  15.512  11.870 -0.0265 -0.1082  0.1596
 5428W        W21689   0.903   6.206  13.851  0.0774 -0.0764  0.2148
 5429W        W21690  16.152   0.693   2.555 -0.0575 -0.0949  0.0449
 5430W        W21691   7.581  18.632   4.304 -0.0370  0.1030 -0.1235
 5431W        W21692  11.642  10.766  13.582  0.2387  0.0430  0.0005
 5432W        W21693   5.419   2.568  11.520  0.2880 -0.4383 -0.2554
 5433W        W21694  10.308   4.522   9.640  0.2893 -0.2108  0.1698
 5434W        W21695  11.305   6.101   4.691  0.0607  0.1349  0.1192
 5435W        W21696  14.701  12.543   2.972  0.0137  0.2044 -0.2598
 5436W        W21697   4.047   7.064  13.203 -0.1269  0.1550 -0.0616
 5437W        W21698   7.303   7.871  13.817 -0.0761  0.1656  0.1222
 5438W        W21699   3.100   8.824   5.197 -0.0738 -0.2005 -0.0063
 5439W        W21700   6.119  17.166  13.801 -0.0336 -0.4765  0.0985
 5440W        W21701  15.501   9.522   3.572  0.2913  0.0313  0.0677
 5441W        W21702  14.031  11.180   0.902  0.0423  0.0502  0.2163
 5442W        W21703  16.466   2.873   4.431  0.3741  0.2425 -0.0627
 5443W        W21704   8.456   2.286  14.342  0.2650  0.2167 -0.1645
 5444W        W21705  18.593   4.060   2.442 -0.0533  0.0919  0.1285
 5445W        W21706   0.267   6.966  10.884  0.4483 -0.3063  0.3331
 5446W        W21707   2.564   2.530   3.412  0.1238  0.0418 -0.1834
 5447W        W21708   9.110  16.614  12.659 -0.1752 -0.1418 -0.0983
 5448W        W21709  16.383   5.365   1.688  0.0000  0.2207  0.0757
 5449W        W21710   6.418  10.558   4.247 -0.0854 -0.0308  0.0098
 5450W        W21711   8.019  15.812  12.431  0.0146 -0.2248 -0.1395
 5451W        W21712   8.926  13.836  12.083  0.0864  0.0490 -0.2436
 5452W        W21713   3.640  13.625  13.741  0.0013 -0.2026  0.2226
 5453W        W21714   2.685   1.610  13.551  0.5385  0.0875  0.1292
 5454W        W21715   4.513   5.572   0.596  0.2115  0.0500 -0.1067
 5455W        W21716  14.688  17.316   2.007  0.1062  0.1040  0.0959
 5456W        W21717   4.386   1.058   3.166 -0.0199 -0.0842 -0.5472
 5457W        W21718   5.233  15.882   2.162  0.1635 -0.1041  0.0748
 5458W        W21719  11.654   8.331   4.309  0.1623 -0.0712 -0.2780
 5459W        W21720   1.940  14.919   0.658 -0.1283  0.0291  0.2180
 5460W        W21721   3.461  16.144   5.393 -0.0578  0.2916 -0.1036
 5461W        W21722   2.781   8.650   0.552  0.0056  0.3465  0.2344
 5462W        W21723   5.345   2.909   2.066 -0.1292 -0.0892  0.2466
 5463W        W21724   8.912  15.328  10.471 -0.1047  0.1495 -0.1483
 5464W        W21725   6.796  16.156  13.325 -0.3485 -0.0613 -0.0763
 5465W        W21726   0.054  18.795   2.155  0.2438  0.1048 -0.3804
 5466W        W21727  10.749   7.556   1.043 -0.2160  0.4018  0.2643
 5467W        W21728   8.060   8.797   3.512 -0.0976 -0.3061 -0.0598
 5468W        W21729   0.468   7.980   2.459  0.1615 -0.3257  0.4340
 5469W        W21730   1.668  14.906   4.662  0.0336  0.4494 -0.0424
 5470W        W21731  15.729  17.669   4.147 -0.2984 -0.0950  0.0710
 5471W        W21732  18.705  10.340   2.957  0.4348 -0.1147  0.0275
 5472W        W21733  11.167  13.307   1.196 -0.2182 -0.0247 -0.6447
 5473W        W21734  14.190   0.367   3.982 -0.1136 -0.1446 -0.2193
 5474W        W21735  11.700  17.218   3.142 -0.0573  0.4189  0.0631
 5475W        W21736   5.871  14.178  13.971  0.0761  0.0121  0.0440
 5476W        W21737   1.355  14.935  13.058 -0.0826 -0.1861 -0.1453
 5477W        W21738   7.961   8.675   4.241  0.0865 -0.0193  0.0857
 5478W        W21739  16.898   9.216  13.367  0.2810 -0.3338 -0.0787
 5479W        W21740   7.976  15.261   4.011 -0.2763  0.0677 -0.0525
 5480W        W21741   5.288  19.393  10.314  0.0439 -0.1954 -0.0261
 5481W        W21742   1.733   1.104   0.959  0.0892 -0.1380  0.1702
 5482W        W21743  13.127   5.658   1.651 -0.4891 -0.3218  0.1661
 5483W        W21744   0.744  11.550  12.154 -0.0530 -0.2968 -0.2471
 5484W        W21745  13.189   6.562  12.735 -0.2116 -0.0641  0.0708
 5485W        W21746   6.548  13.513  11.665 -0.0269  0.1153  0.1064
 5486W        W21747   4.982   6.737  11.530  0.2374 -0.1647  0.3071
 5487W        W21748  14.245  10.085   0.839 -0.1317  0.3400 -0.0521
 5488W        W21749   5.057  17.088   0.088  0.0994 -0.1527  0.1508
 5489W        W21750   9.695   0.589   3.975 -0.0398  0.2436  0.2555
 5490W        W21751   1.293  14.970   2.851  0.2571  0.2858 -0.0227
 5491W        W21752  14.397  11.290   1.341  0.2122 -0.2458  0.4780
 5492W        W21753  12.052   4.621  10.620 -0.2534  0.1329  0.1274
 5493W        W21754   8.064  16.327   3.489  0.0059 -0.1305 -0.1374
 5494W        W21755   6.497  10.860   2.541 -0.4759  0.2578  0.3050
 5495W        W21756  18.834   2.511  10.075 -0.1017  0.4546  0.0607
 5496W        W21757  16.231  19.363   2.380  0.0500  0.1288  0.1780
 5497W        W21758  10.510   2.988   1.627  0.0051  0.2914  0.2035
 5498W        W21759   6.226  18.929  11.934 -0.3092  0.0940  0.0548
 5499W        W21760   4.957   5.540   9.775 -0.1715 -0.2303  0.2206
 5500W        W21761   4.405  18.379   4.956  0.2600  0.0103  0.2692
 5501W        W21762   8.441  18.357  12.226 -0.0686 -0.2069 -0.1344
 5502W        W21763  10.889   9.726   0.289  0.4759  0.1552  0.1416
 5503W        W21764   8.856   3.898  14.086 -0.2245  0.2304  0.3542
 5504W        W21765   1.456  14.633   2.078  0.0440 -0.3622  0.0569
 5505W        W21766   7.239  12.690  11.882 -0.0069 -0.2732 -0.1805
 5506W        W21767   2.112  14.012   0.554  0.0122 -0.2266 -0.0872
 5507W        W21768  14.222  18.069   3.959 -0.2725 -0.3574  0.0069
 5508W        W21769   7.939   5.999   1.688  0.0110  0.1582 -0.1240
 5509W        W21770   7.193   5.525  12.844 -0.0586  0.0570 -0.1735
 5510W        W21771  12.815  10.281   4.916 -0.0108  0.1477  0.0014
 5511W        W21772   5.507   4.618   0.922 -0.0507 -0.0674  0.2289
 5512W        W21773  17.115  14.686   4.231  0.0483  0.1185  0.1497
 5513W        W21774  13.359   2.034  13.690 -0.3483 -0.1825 -0.0601
 5514W        W21775   0.831   4.656   5.232 -0.0646 -0.1375  0.0286
 5515W        W21776   9.346   4.476   9.629  0.3470 -0.1000  0.0890
 5516W        W21777   9.295   2.474  14.735 -0.1807  0.1582 -0.1792
 5517W        W21778   8.116  16.091   5.027 -0.1084 -0.0827 -0.0530
 5518W        W21779   2.440   8.291   4.924 -0.1416 -0.1441 -0.0554
 5519W        W21780   4.095  12.422   5.163 -0.1730 -0.1352  0.3555
 5520W        W21781  13.701   3.049   1.212  0.2215 -0.0503  0.1032
 5521W        W21782  10.180  10.912   0.375  0.0081 -0.1900  0.1043
 5522W        W21783  11.199   7.949   0.230  0.0094 -0.1343  0.1922
 5523W        W21784  15.262   0.753  10.001  0.3559 -0.1176 -0.1318
 5524W        W21785  12.891  12.757   0.567  0.3108 -0.0808  0.0962
 5525W        W21786  15.454   3.858  12.493  0.0803  0.0604  0.2345
 5526W        W21787   1.495   9.382   4.517 -0.1801  0.1072  0.2936
 5527W        W21788   6.599  13.534   1.240  0.1256  0.0432  0.4219
 5528W        W21789  10.239   6.583  14.495 -0.2121  0.2937 -0.3763
 5529W        W21790   7.216  13.764   0.498 -0.2292  0.0059 -0.2188
 5530W        W21791  11.257  15.267   0.016  0.1344 -0.2556  0.0346
 5531W        W21792   9.261  17.091   4.454 -0.1086 -0.0139 -0.0021
 5532W        W21793  15.644  17.614  11.773 -0.1485 -0.0428  0.0125
 5533W        W21794  16.544   8.639  11.188 -0.5154  0.0470  0.2916
 5534W        W21795  12.183   4.215   3.689  0.0433  0.3445  0.2087
 5535W        W21796   1.098  17.773   2.604 -0.1563  0.1222 -0.4211
 5536W        W21797   5.768   2.588  13.308  0.0312 -0.0360 -0.0533
 5537W        W21798   0.830  19.236   4.907 -0.0155 -0.1120  0.0458
 5538W        W21799  17.523   6.859   3.510  0.1723 -0.0047  0.0057
 5539W        W21800   0.433  16.324   2.500  0.2703  0.3716  0.0456
 5540W        W21801   8.642  16.114  11.713 -0.2457 -0.1738 -0.2265
 5541W        W21802  19.098  16.987  12.258 -0.0851 -0.1567  0.1819
 5542W        W21803   2.706   9.617   0.588 -0.1568  0.1179  0.1479
 5543W        W21804  10.159  18.793   2.916 -0.0729 -0.0320 -0.1388
 5544W        W21805  19.058   9.265   0.223  0.2410 -0.0486 -0.0463
 5545W        W21806  19.120   5.211   0.544 -0.1180 -0.0580 -0.1996
 5546W        W21807   5.266   9.580  11.439 -0.4042  0.1193  0.3080
 5547W        W21808  16.007   2.038  13.231 -0.1886 -0.0496  0.5029
 5548W        W21809  16.632  12.347   1.745 -0.0139  0.0641 -0.3696
 5549W        W21810   3.033   3.636   3.412 -0.4428 -0.0474  0.1170
 5550W        W21811   3.009   3.289  11.518 -0.1577 -0.0018  0.0446
 5551W        W21812  12.225   2.066   0.515 -0.2372  0.3231 -0.1390
 5552W        W21813  12.094   2.154   1.322  0.0613  0.0661 -0.0412
 5553W        W21814  15.125   1.796  10.679 -0.1080 -0.0615  0.2139
 5554W        W21815   9.053  16.544   0.441 -0.1929  0.1689 -0.0160
 5555W        W21816   7.379   5.834  11.871  0.3357 -0.0043 -0.2423
 5556W        W21817  10.283  15.414   3.183 -0.0577 -0.0642  0.0979
 5557W        W21818   8.704  11.062   0.320 -0.4126  0.3533 -0.1367
 5558W        W21819  11.940   4.381  13.094  0.0525 -0.3987 -0.1647
 5559W        W21820   5.577   0.577   0.636  0.3275 -0.0054  0.0166
 5560W        W21821   8.223  16.634   4.815  0.0967 -0.0461 -0.0409
 5561W        W21822  11.336   7.199   4.413 -0.0564 -0.0392  0.1962
 5562W        W21823   3.967   6.004  14.637  0.3194  0.0955 -0.0705
 5563W        W21824   9.488  15.318  11.496  0.1839 -0.0042 -0.3380
 5564W        W21825  16.912  13.253  11.746  0.1271 -0.1124  0.1928
 5565W        W21826  10.965   9.753   3.968 -0.0790  0.1154 -0.0615
 5566W        W21827   7.205  11.225  10.594 -0.1838 -0.0847  0.1957
 5567W        W21828   1.448  10.348  11.622  0.0151  0.0887 -0.0022
 5568W        W21829  18.949  11.140  10.825  0.3349  0.0150 -0.1337
 5569W        W21830   8.775   1.110   3.643 -0.0122  0.2385 -0.3606
 5570W        W21831  17.156   0.192  11.160  0.1583  0.0219 -0.0089
 5571W        W21832   4.857   3.290   3.636 -0.3076  0.0350 -0.1843
 5572W        W21833   0.093  18.126  12.019  0.1406 -0.1259 -0.2806
 5573W        W21834   6.792   5.349   9.761  0.0146  0.4081 -0.0448
 5574W        W21835  17.341  17.272  12.410  0.3220 -0.2662  0.0796
 5575W        W21836  11.430   7.545  13.921  0.1024 -0.2462 -0.1208
 5576W        W21837  14.592  15.214   0.922 -0.0534 -0.0749  0.3136
 5577W        W21838  10.791   9.807  12.899  0.0471  0.0282 -0.0410
 5578W        W21839  18.120   1.716   1.215  0.1539 -0.0498  0.0008
 5579W        W21840  12.851   6.081  11.257 -0.1604 -0.0691  0.1992
 5580W        W21841  12.167  11.089  14.149 -0.1170  0.1466 -0.0962
 5581W        W21842   3.679   4.297   4.320 -0.2203  0.1912 -0.1586
 5582W        W21843  16.632   6.118  10.507 -0.0800  0.0104  0.0289
 5583W        W21844  19.270  16.692   3.560 -0.0425  0.2553  0.0110
 5584W        W21845   4.021  10.050  14.043 -0.1047 -0.0675 -0.1783
 5585W        W21846   2.428  13.109   0.612  0.5785  0.2047 -0.0645
 5586W        W21847   7.694   7.477   1.565 -0.2226  0.1595 -0.0365
 5587W        W21848  19.399  17.851   0.930  0.0243 -0.1916 -0.3370
 5588W        W21849   8.677   5.128   0.890  0.0788 -0.0785  0.1075
 5589W        W21850  14.798   8.977  11.835 -0.1491  0.2225 -0.3518
 5590W        W21851  15.522   9.298  14.334 -0.1517 -0.0351 -0.1190
 5591W        W21852  14.200   9.868   4.270  0.3051 -0.1273  0.1317
 5592W        W21853  11.525   0.467  10.973 -0.0391  0.1043 -0.0876
 5593W        W21854   4.739  15.879   5.752 -0.1929  0.1090 -0.1617
 5594W        W21855   1.792  14.777   1.231  0.2422 -0.1049  0.1867
 5595W        W21856  17.087  15.362   5.900  0.0726  0.2789 -0.2936
 5596W        W21857  15.455   8.088  12.869 -0.2198 -0.0710  0.2590
 5597W        W21858  11.653  12.375   2.229 -0.0382 -0.0548 -0.1078
 5598W        W21859   7.860   9.577  12.517  0.0262 -0.0047  0.1706
 5599W        W21860   0.705   4.586   0.139  0.0725  0.1213 -0.2863
 5600W        W21861  12.103   5.137  11.543  0.1976 -0.0730  0.2163
 5601W        W21862  11.996  16.387  10.271  0.2389  0.3245  0.2792
 5602W        W21863   3.551  12.985  13.567 -0.2661  0.0470 -0.0447
 5603W        W21864  13.678  12.079  10.920 -0.0768 -0.1147 -0.3155
 5604W        W21865   8.524  17.233   0.889 -0.0561 -0.0547  0.2987
 5605W        W21866  11.104   9.727  13.799 -0.2473  0.0350  0.0827
 5606W        W21867  10.292   5.421  11.813  0.1942  0.1603 -0.1023
 5607W        W21868   2.144  16.525   3.037  0.0471  0.3444 -0.0376
 5608W        W21869   0.810   2.421   0.384  0.1129 -0.3178  0.1109
 5609W        W21870   3.687  18.828  13.714  0.0655  0.1451 -0.1324
 5610W        W21871  16.010  14.375  13.336  0.1769  0.0137  0.0780
 5611W        W21872   3.547  15.277   4.037  0.0739  0.0475  0.0018
 5612W        W21873   5.111  14.306   1.720  0.3103  0.1149  0.0717
 5613W        W21874  13.271  15.432  12.435 -0.0345  0.0389 -0.0634
 5614W        W21875  11.445  18.085  13.083  0.2240  0.0603 -0.0480
 5615W        W21876   4.379   3.734   2.228  0.0402  0.4399  0.3943
 5616W        W21877   1.194   4.928  12.655 -0.2066 -0.2506 -0.1697
 5617W        W21878  13.594   9.262   3.498 -0.0429  0.1492 -0.1633
 5618W        W21879  13.762  16.481   5.154 -0.0489  0.1052 -0.0414
 5619W        W21880  13.166   1.386   0.150 -0.2155 -0.0328 -0.2156
 5620W        W21881   7.868  13.627   2.490 -0.0536 -0.2817 -0.1200
 5621W        W21882  11.328   6.625   3.651  0.3055  0.0771  0.0997
 5622W        W21883  16.532  18.537   2.956 -0.5174  0.4305  0.1013
 5623W        W21884  18.916  16.776   3.906 -0.4234 -0.2231  0.1500
 5624W        W21885   1.531  10.526   4.717  0.0897 -0.0446  0.0923
 5625W        W21886  15.549   0.514  12.157 -0.0746 -0.1148 -0.2910
 5626W        W21887   8.948  17.541   0.110 -0.0479 -0.0511  0.1188
 5627W        W21888   6.467   1.929  11.983 -0.2715 -0.1836  0.1658
 5628W        W21889  11.241  17.276  11.984  0.0017  0.2449  0.0270
 5629W        W21890   0.734   8.188   3.084 -0.0927  0.1338 -0.0087
 5630W        W21891  13.730  12.219  12.337 -0.2955 -0.2132 -0.4749
 5631W        W21892  12.779  12.664  12.624  0.1100 -0.1562  0.2254
 5632W        W21893   9.321   6.499   9.855 -0.0821  0.1077 -0.0265
 5633W        W21894   4.687   0.303   0.881 -0.4903 -0.3718 -0.0114
 5634W        W21895   6.293  12.442  10.917 -0.5802  0.0317  0.1356
 5635W        W21896  16.327  13.688  13.088  0.2188  0.0967  0.2253
 5636W        W21897   8.044   5.026   3.121 -0.4122  0.1984  0.3161
 5637W        W21898   4.563  13.971  10.444 -0.3349 -0.0521 -0.1141
 5638W        W21899   9.222   3.866  14.484 -0.1857 -0.3779 -0.0400
 5639W        W21900  17.785  10.387  13.994  0.1245 -0.1147 -0.2321
 5640W        W21901   9.838   0.980  14.801  0.0741  0.2282  0.0688
 5641W        W21902  12.371   0.401   4.640  0.0930 -0.0838 -0.0204
 5642W        W21903  10.579   5.384   2.556  0.0185 -0.1822 -0.1431
 5643W        W21904  16.264   5.332   0.839  0.1595 -0.2902  0.0162
 5644W        W21905   2.448  18.777   2.398  0.0694 -0.1058  0.0091
 5645W        W21906   1.757  13.769  13.155  0.1829 -0.1977  0.0239
 5646W        W21907  16.681  19.390  13.010 -0.1680 -0.0197  0.0279
 5647W        W21908   1.225   2.982  12.428 -0.3448  0.2862 -0.0201
 5648W        W21909   1.161   5.145  13.144  0.0175 -0.2423 -0.2067
 5649W        W21910  13.808  10.365  11.673  0.3008  0.0094 -0.1783
 5650W        W21911   0.622   7.505   2.392 -0.0074  0.0207 -0.1551
 5651W        W21912   4.619   2.829   0.463  0.1102  0.0354 -0.0354
 5652W        W21913  18.108   0.123   4.834  0.3588 -0.2349 -0.2397
 5653W        W21914  11.992   1.938  13.772  0.2148  0.0600  0.0987
 5654W        W21915  12.017  15.198  14.073  0.1350  0.4350  0.0024
 5655W        W21916  16.803  12.157   5.622 -0.0427  0.1397 -0.1009
 5656W        W21917  18.193  11.747  11.021 -0.1232  0.1216 -0.0997
 5657W        W21918   7.950   5.041  12.467 -0.1138 -0.0706  0.0464
 5658W        W21919  11.697   3.843   9.598  0.1215  0.0042 -0.0758
 5659W        W21920  13.274   4.126  11.987  0.0598 -0.2372 -0.0457
 5660W        W21921   8.996  11.234   3.888  0.1192  0.1010  0.1938
 5661W        W21922   5.808   0.071   2.347 -0.2263  0.1206 -0.1724
 5662W        W21923   5.534   1.464  10.859 -0.2418  0.5937 -0.0055
 5663W        W21924  11.520  19.393   5.228 -0.2075 -0.1662  0.0329
 5664W        W21925   4.126   2.550   1.616  0.2397 -0.3058 -0.0528
 5665W        W21926  10.681  15.031  12.571  0.0798  0.3444  0.1953
 5666W        W21927   3.323  17.918  14.788  0.1163  0.1944  0.2685
 5667W        W21928  16.303  18.609  12.747 -0.3728 -0.1369 -0.0032
 5668W        W21929   9.167  14.248  13.567  0.0215  0.0288 -0.2153
 5669W        W21930  13.002   4.590  12.937  0.1490 -0.2415 -0.4111
 5670W        W21931  16.030  11.542  12.315 -0.3960  0.1986  0.1836
 5671W        W21932  14.242  13.402   1.128 -0.0216  0.1446  0.0720
 5672W        W21933   8.661   3.028  10.116 -0.0903 -0.2481  0.3252
 5673W        W21934   0.541  13.534   2.190 -0.2451  0.1585 -0.0237
 5674W        W21935  12.549  19.001   3.718  0.2620 -0.2106 -0.1262
 5675W        W21936   8.187  11.236   0.258 -0.1910  0.2034  0.0081
 5676W        W21937  18.675   1.451  13.218  0.1058 -0.1619  0.1588
 5677W        W21938   7.918  12.827   5.313  0.4603  0.2617 -0.1210
 5678W        W21939   3.163  10.207   0.403  0.1563  0.0337 -0.3977
 5679W        W21940   4.819   2.927  12.606 -0.3996 -0.1638  0.1314
 5680W        W21941  15.179   3.319  11.137  0.0566  0.3457  0.4422
 5681W        W21942  18.590   5.347  14.400  0.2414  0.0354 -0.0631
 5682W        W21943   0.185  10.855  11.406  0.3035  0.0341 -0.0473
 5683W        W21944   5.252   8.662   4.719 -0.2918  0.3278 -0.1878
 5684W        W21945   7.419   5.904  14.673  0.0423 -0.0757  0.0089
 5685W        W21946  13.849  10.459  13.213 -0.0748 -0.2546 -0.1180
 5686W        W21947   0.352  16.870  13.098  0.1438  0.0213  0.0405
 5687W        W21948   4.945  10.960   4.181 -0.1011  0.1083 -0.0360
 5688W        W21949  13.527   3.257   3.967 -0.0918  0.0594  0.0981
 5689W        W21950   4.198   0.365   1.977  0.1311 -0.0297 -0.1891
 5690W        W21951  15.870   1.849   2.523 -0.0204 -0.1056 -0.2776
 5691W        W21952   7.391  12.479  11.416 -0.1837  0.0407  0.1306
 5692W        W21953  14.064  19.047   3.189 -0.8005  0.1871  0.0239
 5693W        W21954  14.461  13.478  13.314  0.3305 -0.0850 -0.1535
 5694W        W21955  15.706   3.462  13.177 -0.1402 -0.1574  0.0162
 5695W        W21956  17.528  16.152   1.019 -0.2590 -0.3846  0.0139
 5696W        W21957  13.065  15.272  12.944 -0.3202 -0.2412  0.0879
 5697W        W21958   2.017   7.375   4.848  0.2198 -0.1664 -0.0387
 5698W        W21959   0.841   3.843   3.406 -0.0435 -0.0066 -0.1767
 5699W        W21960   5.908   1.376  10.526 -0.5458  0.0538  0.2970
 5700W        W21961   4.777   9.736   2.866 -0.0069  0.1962  0.3121
 5701W        W21962   3.141   8.280   2.528  0.0983 -0.0649 -0.0403
 5702W        W21963   9.334   7.065  11.062  0.0508 -0.3299  0.2136
 5703W        W21964   9.143   4.943   0.018 -0.3785  0.0200 -0.0467
 5704W        W21965  10.575   9.109   3.553 -0.2617 -0.3477 -0.1306
 5705W        W21966  15.158  12.596   1.480  0.1270  0.3529 -0.0990
 5706W        W21967  12.209  15.580   1.171 -0.0451 -0.0640  0.1850
 5707W        W21968   7.291  16.996  13.021 -0.1567 -0.0514 -0.0507
 5708W        W21969  12.078   9.793  11.258  0.1142  0.1359 -0.0101
 5709W        W21970   4.898  10.094   1.363 -0.1259  0.0286 -0.0446
 5710W        W21971  15.247  14.434   0.656 -0.0232 -0.1808  0.1492
 5711W        W21972   8.206   0.550   2.437 -0.1247 -0.0267 -0.0749
 5712W        W21973   9.802   1.499   2.411 -0.1109  0.2843  0.3008
 5713W        W21974   9.350  14.943   0.959 -0.3583 -0.1235 -0.0158
 5714W        W21975   8.994   4.457   0.376  0.1478  0.0474  0.0975
 5715W        W21976   8.764  12.115   1.429 -0.3030  0.0524  0.4616
 5716W        W21977  11.580   7.480  10.553 -0.0896 -0.2867 -0.0232
 5717W        W21978   0.558  16.920  12.592 -0.3186  0.1866  0.0552
 5718W        W21979   3.187  19.098  14.135  0.2173 -0.2038 -0.0617
 5719W        W21980   9.421   8.225   0.240  0.1161 -0.3232  0.0372
 5720W        W21981   2.856  18.566  11.773 -0.0309  0.0108 -0.1548
 5721W        W21982   2.870   3.786  11.667  0.2125  0.2089  0.0899
 5722W        W21983  15.695   2.586   5.291  0.0606 -0.2952 -0.1469
 5723W        W21984  13.016  11.267   0.915  0.3488  0.1673  0.0152
 5724W        W21985  19.346  12.918  13.476 -0.1424  0.1114 -0.0739
 5725W        W21986  12.568  14.286   2.428 -0.2847 -0.1082  0.0582
 5726W        W21987   8.680   8.927  10.694  0.3735 -0.1470 -0.1616
 5727W        W21988   8.428   0.555  12.623 -0.1835 -0.1852 -0.1034
 5728W        W21989  16.026  12.366  11.668  0.2150 -0.3324  0.3054
 5729W        W21990   2.352   1.629   2.463  0.2063  0.1634  0.0502
 5730W        W21991  16.804   0.425  14.246 -0.0815 -0.0364 -0.3279
 5731W        W21992   6.132  13.319  14.125 -0.1681  0.2489 -0.1477
 5732W        W21993   7.249  18.799   0.844  0.2242  0.0143 -0.0968
 5733W        W21994  13.207  11.003   4.699  0.1754  0.2304 -0.2096
 5734W        W21995   1.970   1.998  10.499  0.2406 -0.3450  0.0933
 5735W        W21996   4.708   2.204   3.709 -0.1103  0.1698  0.3127
 5736W        W21997  16.992   3.211  13.044 -0.3154  0.2680  0.0486
 5737W        W21998   2.807   3.952   0.575 -0.0905  0.2413  0.1139
 5738W        W21999  17.714   0.019   2.517 -0.3091  0.1690 -0.4556
 5739W        W22000   2.166  16.718   6.098 -0.0642  0.0755 -0.1740
 5740W        W22001  14.350   8.667  10.928 -0.1423 -0.3222  0.0262
 5741W        W22002   7.656  15.194   0.722  0.1661  0.1933 -0.3161
 5742W        W22003   2.430  18.589   1.099 -0.1860  0.1753  0.4189
 5743W        W22004  11.871   7.580   4.457  0.1775  0.1366 -0.0014
 5744W        W22005  14.574  11.881   4.220 -0.0985 -0.1057  0.1261
 5745W        W22006  13.968  17.529   3.819  0.2461 -0.2491  0.2495
 5746W        W22007   7.142  11.278   3.261 -0.1685  0.0388 -0.2001
 5747W        W22008  19.367  14.720  13.451 -0.0172 -0.1352 -0.1008
 5748W        W22009   0.764  16.888   2.462 -0.3945  0.0618  0.0256
 5749W        W22010  16.244   8.079  13.596 -0.0304  0.1198  0.0848
 5750W        W22011  17.216   4.397  10.745  0.1684  0.2320  0.0995
 5751W        W22012   1.493   8.557  12.179 -0.1715  0.0591 -0.1200
 5752W        W22013   7.748   7.110   0.809  0.1395  0.1720 -0.0011
 5753W        W22014   9.300   9.637   4.718  0.0084 -0.0265  0.1211
 5754W        W22015  16.188   2.741   3.241 -0.1868 -0.1262  0.0192
 5755W        W22016  15.472  15.704  14.715  0.1226 -0.1875  0.2056
 5756W        W22017   3.544   1.535   5.090  0.0656  0.1011 -0.2532
 5757W        W22018  11.686   3.333  11.656  0.0561  0.0992 -0.0159
 5758W        W22019   5.240   5.356   9.400  0.0619  0.1017 -0.2400
 5759W        W22020  11.607  14.426   1.933 -0.0001 -0.3137 -0.0417
 5760W        W22021  12.592   7.311   5.094 -0.0649  0.2009 -0.0586
 5761W        W22022   8.250  10.951  13.522  0.1834  0.3740 -0.1919
 5762W        W22023   4.919  14.849  13.134 -0.0062  0.1845  0.0071
 5763W        W22024   0.647   6.176  10.553 -0.2199 -0.0602  0.0059
 5764W        W22025  10.812  14.060   1.958  0.2580  0.0128 -0.4665
 5765W        W22026   0.459  15.903   2.808 -0.0496 -0.2445  0.1417
 5766W        W22027  10.858  18.421   3.595  0.1367 -0.0421  0.4910
 5767W        W22028   0.738   7.391   1.929  0.0685 -0.0639  0.0158
 5768W        W22029  11.014   4.341   9.820 -0.1740 -0.0424  0.1314
 5769W        W22030  13.843   2.365  11.682 -0.0834  0.0793 -0.0245
 5770W        W22031   8.892  18.501  11.086 -0.1390 -0.1457 -0.0295
 5771W        W22032  16.540   8.643   0.044  0.0698  0.2142  0.2505
 5772W        W22033  14.847   4.999   3.826  0.0725  0.0806 -0.5320
 5773W        W22034   1.934   2.061   3.337 -0.0635  0.1490  0.2034
 5774W        W22035   8.900   0.908  11.977  0.0771  0.0769 -0.0862
 5775W        W22036   8.418   1.229  13.428 -0.1474 -0.2678  0.4158
 5776W        W22037  15.431  13.767  10.443 -0.1761 -0.0694 -0.0624
 5777W        W22038   8.880   1.482   3.292 -0.3486 -0.4156 -0.0678
 5778W        W22039  11.829  18.481   0.717  0.0914  0.2077  0.0039
 5779W        W22040   3.848  15.426  11.767  0.1202 -0.1839 -0.3946
 5780W        W22041  12.087   9.022   2.515  0.0403  0.3458  0.2479
 5781W        W22042  14.774  19.216   2.281  0.0222 -0.0288 -0.2984
 5782W        W22043   7.439  11.414   1.918  0.4679  0.2976 -0.0770
 5783W        W22044   7.388   3.313   3.384 -0.0449 -0.1258 -0.3633
 5784W        W22045  10.769   2.251   1.441 -0.1259  0.0963 -0.1837
 5785W        W22046  14.866   7.603   2.096  0.4864 -0.0716 -0.1529
 5786W        W22047  13.048   9.500  13.930  0.0211  0.0520 -0.1009
 5787W        W22048   8.811   5.714  10.110  0.0233 -0.2458 -0.0548
 5788W        W22049  15.807   1.032  10.786  0.1289  0.0828 -0.3384
 5789W        W22050  15.370   5.627   0.853  0.2296  0.0719 -0.4208
 5790W        W22051  12.490  10.352  12.478  0.0597 -0.1141  0.1706
 5791W        W22052   7.241  16.120   4.642 -0.0540 -0.3647 -0.0721
 5792W        W22053   7.127  10.548  10.467  0.0962  0.0926 -0.0982
 5793W        W22054  11.337  11.851  12.635  0.0086  0.1390  0.2456
 5794W        W22055   4.692   2.313  14.018  0.2413 -0.0668 -0.1277
 5795W        W22056  13.373   7.748  14.353  0.2375 -0.0412  0.0216
 5796W        W22057  18.707  16.490   1.086 -0.2927 -0.0533  0.0446
 5797W        W22058  17.961   2.131   4.865 -0.2000  0.2904  0.0555
 5798W        W22059   5.174   6.370  10.770  0.0691 -0.0380 -0.0141
 5799W        W22060  13.354  13.394   4.578 -0.2630 -0.0398  0.2124
 5800W        W22061  17.144   0.813   4.010  0.0746 -0.3503 -0.2094
 5801W        W22062   9.631   6.511  10.588 -0.0067  0.0579 -0.2229
 5802W        W22063   3.698  15.134  13.196 -0.0436 -0.1597 -0.4460
 5803W        W22064  12.175   4.120  12.580 -0.1193 -0.2517 -0.3977
 5804W        W22065   4.699  17.661  11.058 -0.0771 -0.2718  0.1667
 5805W        W22066  16.722  14.307   1.278 -0.0106 -0.0588  0.1655
 5806W        W22067   1.437  15.695   2.959 -0.0119  0.2052 -0.0823
 5807W        W22068  10.469  10.071   0.628 -0.1487  0.3520  0.0489
 5808W        W22069   8.458  12.576   0.821 -0.0866  0.0224 -0.2850
 5809W        W22070  13.626   9.767   5.223 -0.2400 -0.0719  0.0395
 5810W        W22071  15.550   1.263  13.810 -0.0047 -0.1352  0.1655
 5811W        W22072   5.828   2.395   2.646 -0.1364  0.0664  0.2562
 5812W        W22073   2.888   5.585   3.359  0.0695  0.1060 -0.0460
 5813W        W22074   9.170  11.545   2.149 -0.1578 -0.1143  0.1643
 5814W        W22075  13.569  12.905   4.475 -0.0923  0.0817  0.2886
 5815W        W22076   2.549  10.156   1.729  0.0100 -0.1310 -0.0632
 5816W        W22077   5.519   0.123   2.747 -0.1770  0.2422 -0.3992
 5817W        W22078   4.074  17.350  14.552 -0.1578  0.0797  0.1390
 5818W        W22079   8.745  11.760  14.320 -0.0973  0.1250  0.0537
 5819W        W22080   7.804   1.641   3.498 -0.0734 -0.0468 -0.0028
 5820W        W22081   9.522   6.143   2.316 -0.2043 -0.5900 -0.1725
 5821W        W22082   1.377  10.441  12.479  0.2973  0.1391 -0.1543
 5822W        W22083  13.895  15.330  12.660 -0.2573 -0.0849  0.1225
 5823W        W22084   7.196  13.172   3.181 -0.2566 -0.5999 -0.3320
 5824W        W22085  14.220  15.835  11.516  0.1562 -0.1467 -0.1208
 5825W        W22086  15.902  10.539  13.761  0.1240  0.1579 -0.0956
 5826W        W22087   2.322   7.076   4.626 -0.1923 -0.3279  0.2213
 5827W        W22088  15.235   0.232   3.597  0.2314  0.2578  0.3774
 5828W        W22089   6.249   3.241   9.667 -0.1406 -0.2182  0.3004
 5829W        W22090   5.585   6.033   3.435  0.3359 -0.1135 -0.1008
 5830W        W22091  10.084  18.746  14.624  0.1227 -0.1305  0.1353
 5831W        W22092  16.879  16.756   0.151  0.3074  0.1069  0.0185
 5832W        W22093   5.568  18.905  10.356 -0.2985  0.0688  0.1340
 5833W        W22094   1.748  18.247  11.092  0.0794 -0.2766 -0.2085
 5834W        W22095   3.153   6.569   3.368  0.0792 -0.3874 -0.0030
 5835W        W22096   1.540  14.271  12.255  0.2187 -0.1436  0.0936
 5836W        W22097  11.738  11.048   5.098  0.1158  0.0237 -0.0583
 5837W        W22098   7.805  15.398   1.526  0.0191 -0.0174  0.1704
 5838W        W22099  18.990   9.384   1.950  0.0972 -0.1140  0.1992
 5839W        W22100   3.492  14.846   1.573  0.0430  0.1442 -0.0493
 5840W        W22101  13.375  18.952  12.304  0.2425  0.1946 -0.3988
 5841W        W22102  12.711   7.229  11.376 -0.4186  0.0787 -0.0188
 5842W        W22103   0.831  17.201  10.893 -0.0475 -0.2570 -0.0966
 5843W        W22104   6.107   1.525  12.986  0.1356 -0.2272  0.1449
 5844W        W22105   6.575   2.854  10.495  0.0614 -0.1326  0.3290
 5845W        W22106   9.763   0.653   2.618 -0.2000 -0.0989 -0.2225
 5846W        W22107  14.669  15.379   3.680  0.4134  0.3143  0.0684
 5847W        W22108  14.468   4.661   2.996  0.1682  0.1060  0.4805
 5848W        W22109   6.023   1.655  10.917 -0.0951  0.2606 -0.0973
 5849W        W22110   9.873   4.756   4.280  0.5048  0.1895  0.0628
 5850W        W22111   3.126   1.129   9.696 -0.2266 -0.0009 -0.0602
 5851W        W22112   3.673  13.827  11.836  0.0848  0.0089  0.3244
 5852W        W22113  12.040   3.419   3.576 -0.0942 -0.1359  0.2864
 5853W        W22114   7.449  15.828   5.480 -0.1125  0.1383 -0.2180
 5854W        W22115  17.907   6.920  10.850  0.2729  0.1927  0.1583
 5855W        W22116   7.563   3.255   0.876 -0.0420 -0.0556  0.2060
 5856W        W22117  17.891   5.057   0.703 -0.1143  0.2011  0.0228
 5857W        W22118  18.135  15.238  13.815 -0.2103 -0.0806  0.1025
 5858W        W22119   0.648  17.517  13.570  0.0162 -0.1994 -0.0635
 5859W        W22120   3.067  10.460  14.172 -0.1790 -0.1223  0.0267
 5860W        W22121   9.053   6.632  13.563 -0.2692 -0.7117 -0.0817
 5861W        W22122   0.476  16.408   3.005 -0.0616  0.0043  0.1699
 5862W        W22123  16.089  19.077   0.581 -0.0565 -0.0689  0.2997
 5863W        W22124  10.362   8.850   5.348 -0.2245  0.4177 -0.0480
 5864W        W22125   0.467   9.426  11.146 -0.0216 -0.3133  0.0870
 5865W        W22126   7.710   7.630   4.049 -0.0090  0.0055  0.2316
 5866W        W22127  15.940  17.575  11.280  0.1668 -0.0847  0.0214
 5867W        W22128   9.674  12.881  14.231 -0.1604 -0.2003 -0.0524
 5868W        W22129  18.062   1.546   1.797  0.1394  0.0147 -0.0530
 5869W        W22130   1.460  18.507   3.272 -0.1999 -0.0781 -0.1117
 5870W        W22131   9.809  13.134   0.378 -0.0945  0.3736 -0.0682
 5871W        W22132   6.558   0.060  13.924  0.1207 -0.1268 -0.2288
 5872W        W22133   6.383  17.782   4.372 -0.0193  0.0846 -0.2904
 5873W        W22134   9.021  13.458  11.624 -0.2049  0.0051  0.5946
 5874W        W22135  13.192  14.809  12.645  0.1048  0.1495  0.2497
 5875W        W22136  11.950  13.522  14.493  0.1344  0.2066  0.0377
 5876W        W22137  16.165   2.267  12.278 -0.1969  0.1337  0.1342
 5877W        W22138  16.624   8.469  10.689 -0.0977 -0.1868  0.0917
 5878W        W22139   5.561   0.836   1.853 -0.2993 -0.1590  0.2888
 5879W        W22140   8.941  15.860  13.669 -0.1895 -0.0645  0.3678
 5880W        W22141   5.100  12.428   0.775 -0.1484  0.0682 -0.1938
 5881W        W22142   1.105  13.380   2.727  0.0771  0.1825  0.0780
 5882W        W22143   8.369  16.962  12.916  0.1809 -0.0087  0.2894
 5883W        W22144   1.968  10.351   1.825 -0.1113 -0.0112  0.0470
 5884W        W22145   5.646  15.259  11.200 -0.1721  0.0198 -0.0760
 5885W        W22146   0.768   0.768  12.523 -0.0237  0.0369  0.0762
 5886W        W22147   3.462   3.096   0.552  0.1852 -0.3680 -0.2828
 5887W        W22148  18.913  18.198  12.036 -0.2390  0.1408 -0.1459
 5888W        W22149  15.731   7.705   5.091 -0.2304  0.1324  0.3272
 5889W        W22150  12.770  15.815   2.437  0.0831 -0.0972  0.3992
 5890W        W22151   5.212   8.434  10.105  0.0076  0.1107  0.0015
 5891W        W22152   7.194   9.483  11.193 -0.0608 -0.0724 -0.1512
 5892W        W22153  12.587   3.509   0.004  0.0523 -0.1492  0.1028
 5893W        W22154  13.049   8.107   0.370  0.2093  0.2585  0.2046
 5894W        W22155   6.944  16.011   2.779  0.0281  0.1472  0.3683
 5895W        W22156  13.644   5.204   5.156 -0.2572 -0.1442  0.0703
 5896W        W22157   5.705   1.163   0.375 -0.0787  0.1440  0.0710
 5897W        W22158  13.871  14.772   3.504  0.0457 -0.1718  0.0067
 5898W        W22159  16.043  12.435   1.495 -0.1914  0.3676  0.2793
 5899W        W22160  11.613  19.249  10.212 -0.1723  0.1310 -0.1766
 5900W        W22161   4.524   6.188   4.169 -0.0207 -0.2308 -0.0727
 5901W        W22162  11.708   1.905  10.747  0.2877 -0.0302  0.0411
 5902W        W22163   6.162   2.538  14.613  0.5869 -0.1639  0.0239
 5903W        W22164  12.341  12.056   4.595  0.0859  0.1431 -0.1482
 5904W        W22165  10.825  11.408  12.255  0.1006  0.3079  0.0856
 5905W        W22166   5.422   1.028   4.125 -0.1677  0.0156  0.1503
 5906W        W22167  15.691   4.987   3.126  0.1941  0.1888  0.0002
 5907W        W22168  17.621   7.767  13.743 -0.1339 -0.0685 -0.1683
 5908W        W22169  12.166   2.443   3.670 -0.0829 -0.0741 -0.1637
 5909W        W22170   2.854  12.380   2.843  0.1141 -0.2292  0.1066
 5910W        W22171   2.248  13.824   5.748  0.1988 -0.2179 -0.4644
 5911W        W22172   1.444   8.001   0.340  0.4166 -0.2837  0.2504
 5912W        W22173   1.984  17.084   4.157  0.0017  0.1369 -0.1155
 5913W        W22174  13.696  11.184  13.608  0.4967 -0.0707  0.0158
 5914W        W22175  15.221   7.842   2.445  0.0887 -0.0471  0.2133
 5915W        W22176   0.558   1.268  12.286  0.0272  0.0515  0.1587
 5916W        W22177  17.830   5.725   1.801 -0.1061  0.0614 -0.2128
 5917W        W22178  16.238  14.278   5.274  0.0808 -0.1596  0.0263
 5918W        W22179   9.871  15.439  13.591  0.1372  0.2576 -0.0276
 5919W        W22180  18.482   4.203  10.580  0.4261  0.3134 -0.1295
 5920W        W22181   6.851   6.812   2.682  0.1421 -0.0299  0.1360
 5921W        W22182  15.718  17.996   3.721  0.1981  0.1751  0.2561
 5922W        W22183  17.744   8.291  10.693 -0.1707  0.0113 -0.0288
 5923W        W22184  16.407  16.723  14.729  0.0080 -0.0560  0.0570
 5924W        W22185  17.930   7.424   0.244 -0.0535 -0.3225  0.2387
 5925W        W22186   9.318   0.987   2.690 -0.0433 -0.2270  0.2855
 5926W        W22187   5.826  17.534   0.610 -0.1079  0.0687  0.1022
 5927W        W22188  17.599  13.356   3.059  0.0261  0.3624  0.0398
 5928W        W22189   6.259   8.041  12.089 -0.0128 -0.0139  0.0933
 5929W        W22190   1.033   9.281  11.836 -0.3316  0.0750 -0.0160
 5930W        W22191   7.430   2.736   0.183 -0.2713  0.1926 -0.0712
 5931W        W22192  10.882   2.118   4.353  0.2214 -0.0321 -0.1046
 5932W        W22193  10.756   4.587  12.158  0.1148  0.2106  0.0090
 5933W        W22194  11.205   1.585   0.307 -0.1094  0.0859  0.0260
 5934W        W22195   0.859  15.667   0.636  0.0845  0.0956 -0.4192
 5935W        W22196   3.799  13.780   2.648 -0.0623  0.0517 -0.1276
 5936W        W22197  18.226   3.445  13.386 -0.1255 -0.3732  0.2938
 5937W        W22198   0.826  17.818  13.226 -0.3932  0.1396  0.0634
 5938W        W22199   0.188  18.522   3.499 -0.1763  0.4582  0.0715
 5939W        W22200   8.085  16.398  12.845  0.0850 -0.0119  0.0829
 5940W        W22201  10.579   3.530  13.047 -0.1673 -0.1500  0.1286
 5941W        W22202  12.603  10.980   1.416 -0.3905 -0.1357  0.4940
 5942W        W22203   6.912   2.196  14.393 -0.0793  0.0896  0.0246
 5943W        W22204   2.125  15.065  13.729 -0.1747 -0.0691  0.1468
 5944W        W22205  16.461  10.865  13.608  0.2813 -0.0286 -0.2542
 5945W        W22206  15.014  18.744  10.958 -0.2544 -0.3185  0.0253
 5946W        W22207   7.527   7.405  14.698  0.2635 -0.1080  0.2718
 5947W        W22208  12.670  11.967   0.269 -0.1651 -0.0194 -0.1055
 5948W        W22209  10.240   2.493   1.701  0.2350 -0.0063 -0.1726
 5949W        W22210   2.567   8.169   4.002 -0.0274 -0.0352 -0.0718
 5950W        W22211   9.520   7.637  10.206  0.1424 -0.2209  0.1471
 5951W        W22212  18.031  18.494   0.246  0.1318 -0.0234 -0.1179
 5952W        W22213   7.845   7.131   3.613 -0.1449  0.0290  0.0879
 5953W        W22214   4.923  16.540  13.745  0.0786  0.0742  0.0716
 5954W        W22215  17.744  13.088   4.288  0.4587  0.0490 -0.2268
 5955W        W22216  17.321   9.154  14.663 -0.0478  0.1013  0.1086
 5956W        W22217   5.944  13.011   0.519 -0.1101 -0.0882  0.0028
 5957W        W22218  11.360   6.637  13.566  0.0791 -0.3293 -0.0085
 5958W        W22219  12.397  14.475  10.672  0.1775 -0.1374 -0.0864
 5959W        W22220  15.673   0.966   5.133  0.1312  0.0271  0.0891
 5960W        W22221  13.540   0.187  12.885 -0.0834  0.1792  0.2064
 5961W        W22222   9.440   4.848  13.220  0.0137  0.2300 -0.1808
 5962W        W22223  15.528   9.924   3.996  0.2649  0.0742 -0.0526
 5963W        W22224   2.528   8.074   1.725 -0.0683  0.1018 -0.1734
 5964W        W22225   9.879   4.421   2.497 -0.1729 -0.0987  0.1982
 5965W        W22226  17.791  10.023   1.393 -0.0151 -0.2329 -0.1271
 5966W        W22227  12.871  18.846  13.200 -0.4424 -0.0943  0.1436
 5967W        W22228   4.264  18.298   2.905  0.1993 -0.1074 -0.1351
 5968W        W22229  12.085  19.309   1.808 -0.0597 -0.1076 -0.0862
 5969W        W22230   0.915   1.197   0.831 -0.2141  0.0995  0.0588
 5970W        W22231  16.096  14.045   3.218  0.1057 -0.0264  0.1957
 5971W        W22232  16.443   3.876   1.322  0.4263  0.0074  0.3440
 5972W        W22233   1.965   0.767   0.369  0.1357 -0.2605 -0.1429
 5973W        W22234   1.079  14.057  12.487  0.0809  0.4080 -0.0855
 5974W        W22235   7.202   5.521  10.482 -0.5449  0.2492  0.0700
 5975W        W22236  13.172   1.086  11.130  0.0335  0.0067 -0.0220
 5976W        W22237   1.523  13.987   0.728 -0.0670 -0.2119 -0.5343
 5977W        W22238   9.142  17.241   3.399  0.0814 -0.0645 -0.0957
 5978W        W22239  16.842  10.320   0.031 -0.1847  0.0940 -0.1336
 5979W        W22240  13.540   4.754   1.440  0.3388 -0.0101 -0.0690
 5980W        W22241  10.826   0.733   3.149 -0.1168  0.0323  0.2775
 5981W        W22242   0.774  12.756  14.286  0.0394 -0.1555 -0.1664
 5982W        W22243   8.653   7.093   3.950  0.1540  0.0868 -0.2195
 5983W        W22244  16.025   3.500  11.059 -0.4690  0.2774 -0.2063
 5984W        W22245  18.424  15.034   2.542  0.1565  0.1706 -0.2125
 5985W        W22246   9.561   4.464  14.418 -0.3113  0.0316 -0.1508
 5986W        W22247   1.950   6.733  14.145  0.1480  0.0399  0.1302
 5987W        W22248  10.571   7.089  11.212  0.1263  0.4905  0.0566
 5988W        W22249   3.359   8.902   2.372  0.1547 -0.0661  0.0124
 5989W        W22250   3.332  11.021   3.468 -0.0885  0.1019 -0.0205
 5990W        W22251   8.215  10.117   4.405  0.1716  0.2316  0.0859
 5991W        W22252   0.093   4.335  12.938  0.4446 -0.0385  0.1082
 5992W        W22253  18.608   2.207  14.523 -0.1720  0.1841  0.1774
 5993W        W22254   4.063   1.230  13.076 -0.2456  0.1990 -0.2275
 5994W        W22255  16.084  16.981   3.694  0.1737  0.1663  0.0277
 5995W        W22256   0.302  17.866   4.130 -0.2587  0.2021 -0.2563
 5996W        W22257   6.658  10.511   1.292 -0.0857  0.0969 -0.1892
 5997W        W22258   5.246   3.481   4.479  0.1268 -0.0789  0.3893
 5998W        W22259   9.812   3.901  14.555 -0.0259  0.2161 -0.0735
 5999W        W22260   3.499  14.411   2.158 -0.1415  0.0174 -0.0754
 6000W        W22261   8.526  14.101  11.600 -0.0924  0.1565 -0.3379
 6001W        W22262   5.380   8.375  11.121  0.1636  0.1843 -0.1896
 6002W        W22263   1.290   7.984   1.762 -0.0610  0.1086  0.2949
 6003W        W22264   2.778   0.374   2.434  0.0085  0.1878  0.0025
 6004W        W22265   6.952   4.707  14.029 -0.1373  0.3385  0.0649
 6005W        W22266  13.370   6.405  14.357 -0.0831  0.1930  0.2793
 6006W        W22267  11.411   5.383  14.075  0.0072  0.1466  0.2440
 6007W        W22268   0.835   7.111   5.347  0.0030  0.0204 -0.2456
 6008W        W22269   4.843   2.657  10.482  0.4314 -0.0150  0.1833
 6009W        W22270  13.721  13.767   5.469 -0.1104 -0.2288 -0.1499
 6010W        W22271  15.040  13.355   3.784 -0.1102  0.0386 -0.1112
 6011W        W22272  19.397   7.361  10.572  0.0137  0.1108 -0.0583
 6012W        W22273  12.452  14.531   0.989 -0.2519  0.2008  0.4665
 6013W        W22274  13.792  17.054  10.444  0.2094 -0.1067 -0.0044
 6014W        W22275  13.844  18.886   5.451  0.0196  0.6491 -0.1865
 6015W        W22276  12.715  14.179   5.448  0.1221 -0.0326 -0.1371
 6016W        W22277  17.084   6.012   1.377 -0.3121  0.0027 -0.2031
 6017W        W22278  10.809  14.956  12.003  0.2672  0.0704  0.2849
 6018W        W22279  12.561  18.292   5.092  0.0740 -0.0543  0.1247
 6019W        W22280   9.188  10.995   1.339 -0.0028 -0.0021  0.0418
 6020W        W22281  14.821   9.511  14.426  0.1552 -0.2622  0.0909
 6021W        W22282  17.791  18.322   3.179  0.0456  0.1353  0.1287
 6022W        W22283  10.291   1.958  10.926 -0.0991  0.1912  0.3663
 6023W        W22284   8.774   6.630   9.811  0.0289 -0.1757 -0.2986
 6024W        W22285   7.768   8.088   5.072  0.0048  0.0488 -0.3533
 6025W        W22286  15.455   8.226  12.391  0.2505 -0.2003  0.2563
 6026W        W22287   1.149  11.612   0.363 -0.0144 -0.3018 -0.1552
 6027W        W22288  13.411   3.815  13.435  0.2298 -0.1984  0.0891
 6028W        W22289  11.864  12.717   0.131 -0.0538  0.1182  0.0919
 6029W        W22290  11.790   2.490   4.692 -0.1564 -0.1840 -0.0237
 6030W        W22291  11.851  13.827   1.184  0.0239  0.3268 -0.1059
 6031W        W22292  14.778  17.060  13.687  0.0688  0.1585  0.2199
 6032W        W22293  11.523  13.192   1.498 -0.0300  0.0871 -0.4057
 6033W        W22294   0.808  17.224   1.097 -0.1051 -0.1050 -0.2571
 6034W        W22295   1.169  13.611  10.492 -0.0419 -0.0644 -0.1095
 6035W        W22296  12.160  18.477   5.317  0.1277 -0.5218 -0.0209
 6036W        W22297  12.552   4.764  14.588 -0.1051  0.2732 -0.2230
 6037W        W22298   9.481   8.671   0.494 -0.1084  0.0808  0.1696
 6038W        W22299  14.389  14.999  14.801 -0.0417  0.1903 -0.2611
 6039W        W22300  12.022  11.618   1.035  0.1873 -0.0599 -0.0167
 6040W        W22301  15.874  19.334   3.875  0.3250 -0.1322 -0.3074
 6041W        W22302  14.484  10.009   2.685  0.0092 -0.1416  0.0959
 6042W        W22303   6.575  14.840   3.306  0.1158  0.2307 -0.1591
 6043W        W22304  13.734   6.883  10.892  0.3426  0.1496  0.0829
 6044W        W22305   0.050   9.805  10.514  0.3022  0.0552 -0.0330
 6045W        W22306  10.801  18.900  11.457  0.1311 -0.2072 -0.0234
 6046W        W22307   9.919   6.568  13.616 -0.1223  0.0137 -0.0618
 6047W        W22308  15.895  17.139   2.206 -0.6879  0.2383 -0.1725
 6048W        W22309   5.915   3.432   9.974 -0.1526 -0.0561 -0.2199
 6049W        W22310   1.363  13.203  11.817 -0.0244  0.2202  0.3010
 6050W        W22311  13.903   1.144   4.225  0.1238 -0.1162  0.2139
 6051W        W22312  15.645   1.960  12.367 -0.2761 -0.3055  0.2566
 6052W        W22313   2.758   6.334  14.428  0.2260  0.0228 -0.2757
 6053W        W22314   1.142   7.610   2.061 -0.0618 -0.2359  0.0527
 6054W        W22315  15.108  17.164   0.698  0.1112  0.0717 -0.0673
 6055W        W22316   3.717  17.432   4.371 -0.1342 -0.2803  0.4245
 6056W        W22317   0.705   9.151  13.728  0.2033  0.1803  0.0876
 6057W        W22318   8.947   1.217   4.147  0.2192 -0.1692  0.3398
 6058W        W22319   9.290  16.120   1.144 -0.1386 -0.2071  0.1312
 6059W        W22320   8.949  10.073  14.062  0.0564 -0.4438  0.1162
 6060W        W22321  12.516   9.514  11.045  0.2039  0.1039  0.2029
 6061W        W22322  17.217   7.019   3.818  0.1788  0.0576 -0.1771
 6062W        W22323   8.997  15.139  11.131 -0.2616 -0.0338 -0.0938
 6063W        W22324   4.350   0.106   3.240 -0.3166  0.3040  0.0535
 6064W        W22325   6.973   5.210   1.231 -0.4031  0.0180 -0.2725
 6065W        W22326   9.223  15.182   1.386 -0.0214 -0.0000  0.2618
 6066W        W22327  11.704   4.069   3.717  0.0484  0.0465  0.4616
 6067W        W22328  10.365   3.060   0.586  0.1036  0.2410 -0.4757
 6068W        W22329  17.897  14.193  13.957  0.0542 -0.0037  0.0147
 6069W        W22330   1.114   1.337   2.715  0.2385 -0.2592  0.3634
 6070W        W22331   5.562  11.662   1.835 -0.3816 -0.1162  0.0670
 6071W        W22332  16.398   0.060   6.078 -0.1145  0.0222 -0.1146
 6072W        W22333  18.696   7.254  10.305  0.1595 -0.0317 -0.1404
 6073W        W22334   5.938  14.212  11.674  0.0557 -0.2380  0.1705
 6074W        W22335  13.854  18.428  12.648 -0.3019 -0.1566  0.1396
 6075W        W22336   5.504   3.164  11.774 -0.2489 -0.1349 -0.2865
 6076W        W22337  18.329   0.286   3.941 -0.4250  0.1129 -0.0041
 6077W        W22338   7.606   4.150  14.127 -0.1187  0.0222 -0.0978
 6078W        W22339  14.884   9.002   0.364  0.0652 -0.2999 -0.0167
 6079W        W22340   7.792   8.675   0.572 -0.0728 -0.3006 -0.1967
 6080W        W22341  17.754  16.850   2.766  0.1632  0.0989 -0.2243
 6081W        W22342   1.050   2.545  11.032  0.0393 -0.0049  0.0392
 6082W        W22343  14.743  17.932   0.968  0.0577  0.0820 -0.0052
 6083W        W22344  16.738   2.808   2.420  0.1780 -0.1641  0.1867
 6084W        W22345   4.104  17.527   1.734 -0.1666 -0.1308 -0.0587
 6085W        W22346   2.459   7.713   0.396 -0.1379  0.3166  0.1857
 6086W        W22347  15.195  11.281  10.932 -0.1612  0.0878 -0.0495
 6087W        W22348  13.787  17.050  14.556  0.0635  0.0261 -0.3339
 6088W        W22349   5.510  11.703  12.820  0.0432 -0.0459 -0.3621
 6089W        W22350  15.649  15.794   3.788 -0.1146  0.1789 -0.0598
 6090W        W22351   7.062   9.512   4.967  0.4829  0.1504  0.0099
 6091W        W22352  16.504  10.821  12.758  0.0842  0.0395 -0.3513
 6092W        W22353   6.043   4.773  10.978 -0.1549  0.2825  0.0669
 6093W        W22354  17.994  16.680  13.719  0.2036 -0.2773 -0.0908
 6094W        W22355   2.581  15.377  10.606 -0.0222 -0.2850 -0.0062
 6095W        W22356  19.214  12.275   1.200  0.2764  0.0571  0.0070
 6096W        W22357  10.845   4.273  11.731 -0.0306 -0.1338 -0.1359
 6097W        W22358  14.637  19.095  14.378 -0.2401 -0.1982  0.0128
 6098W        W22359   5.501   7.498  13.518  0.3738 -0.2002  0.0203
 6099W        W22360   0.204  12.889   4.134  0.0230 -0.1182 -0.3333
 6100W        W22361   2.324  11.728  14.401 -0.0674  0.4020 -0.1534
 6101W        W22362  16.122  16.773  12.246  0.1051 -0.0275 -0.2062
 6102W        W22363  18.809  16.560  11.619  0.2450  0.0699  0.2167
 6103W        W22364   2.127  12.880  13.530 -0.1636  0.1802  0.1367
 6104W        W22365  12.125   9.476  12.976  0.0263 -0.0032  0.0587
 6105W        W22366  11.692   7.296  12.845 -0.0580  0.0047  0.4830
 6106W        W22367  18.269   2.007   4.475  0.3559 -0.2014 -0.2377
 6107W        W22368  15.328  17.402   0.322  0.2232 -0.0922 -0.1658
 6108W        W22369   9.060   7.303  11.586  0.2292  0.0312  0.0546
 6109W        W22370  16.734   5.648   5.225 -0.0448 -0.2620 -0.1206
 6110W        W22371   6.150  12.410   2.585  0.0150 -0.1779 -0.1945
 6111W        W22372   9.868  17.358   0.253 -0.1437  0.0555  0.1568
 6112W        W22373  13.936  16.642  12.069  0.0542 -0.0671 -0.1674
 6113W        W22374  19.416   6.031  13.930 -0.1053  0.1827 -0.0166
 6114W        W22375  12.049  18.066   4.380  0.2408 -0.3253  0.2071
 6115W        W22376   3.487   0.926  14.399  0.2028 -0.1846  0.2250
 6116W        W22377   0.958   6.875   4.843  0.1800 -0.3348 -0.0765
 6117W        W22378  10.480  18.458  10.674 -0.0516 -0.3087  0.0538
 6118W        W22379   4.346  11.566   1.299 -0.1407 -0.1144  0.0920
 6119W        W22380   0.578   4.778  12.156  0.1311  0.1934  0.0868
 6120W        W22381   0.629  16.155   0.845  0.1850 -0.2112 -0.0473
 6121W        W22382  14.099   0.360  12.982 -0.0980  0.2135 -0.4023
 6122W        W22383  12.079  13.153  14.134  0.1457 -0.1448 -0.1041
 6123W        W22384   3.455  17.408  12.656 -0.1496  0.1470 -0.2821
 6124W        W22385   5.176  11.423  14.751 -0.1061  0.2150  0.1922
 6125W        W22386   6.589   8.296   2.400 -0.0455  0.0035  0.0213
 6126W        W22387   3.013   0.038  13.337 -0.1106  0.1095 -0.2986
 6127W        W22388  10.672  17.108   0.198  0.0614  0.0858  0.4986
 6128W        W22389   1.521  14.096   3.177 -0.0608 -0.2639 -0.1532
 6129W        W22390   4.103   9.557  13.124 -0.0092  0.0777  0.2586
 6130W        W22391   1.747   7.154  14.081 -0.1686  0.1482  0.0688
 6131W        W22392  17.690  18.408   2.526 -0.0903  0.1366 -0.1598
 6132W        W22393  16.731   0.008  11.398 -0.0249  0.2356 -0.3073
 6133W        W22394  18.997   5.271  11.591 -0.1028  0.1498  0.1785
 6134W        W22395  16.995  14.799  11.617 -0.0902 -0.1153  0.1417
 6135W        W22396  12.911  14.386  11.757 -0.3481 -0.0519 -0.0507
 6136W        W22397  13.039  19.018  12.729  0.2271 -0.0934  0.3460
 6137W        W22398  18.910   8.590   2.268  0.2026 -0.0029  0.0930
 6138W        W22399   1.510   5.627  10.616  0.1204 -0.0181  0.3350
 6139W        W22400   4.021   2.934  13.924  0.3646  0.2843  0.2099
 6140W        W22401   9.670  10.226   3.502  0.1823  0.1242 -0.0457
 6141W        W22402   0.967  11.050   4.029 -0.4179  0.2760 -0.2127
 6142W        W22403  10.499   1.664  13.356 -0.0025 -0.0794 -0.0500
 6143W        W22404  15.756  13.023   1.814  0.1839  0.1335  0.0672
 6144W        W22405   2.137  11.530   5.166 -0.2865  0.2811 -0.0203
 6145W        W22406   8.622   1.389   4.520  0.1730 -0.0762 -0.1692
 6146W        W22407  10.685  10.189   0.150  0.1531  0.0329  0.1001
 6147W        W22408  13.356  16.919  14.207 -0.1663 -0.0815  0.0311
 6148W        W22409  15.310   2.812  14.514 -0.2184  0.0939  0.2798
 6149W        W22410  14.167   8.693  10.468  0.0800 -0.3573  0.0405
 6150W        W22411  15.956  15.068   3.287 -0.0670 -0.0093  0.0469
 6151W        W22412   0.021  18.677  13.078  0.0615  0.0110  0.0726
 6152W        W22413   1.584   1.823   5.180  0.0620  0.2727 -0.0262
 6153W        W22414  17.979  17.716  11.889  0.1718  0.0105 -0.0698
 6154W        W22415   3.254   9.903  11.217  0.0872  0.1763 -0.1622
 6155W        W22416   6.863  19.011   0.671  0.2695  0.0667  0.2471
 6156W        W22417   7.711   4.703   4.414 -0.4328  0.5919 -0.0659
 6157W        W22418   3.318   7.241  14.311  0.0723 -0.1233 -0.1851
 6158W        W22419  12.812  13.064   0.205  0.1403  0.2413 -0.1037
 6159W        W22420   5.410  15.522  12.031 -0.5516  0.0598  0.2233
 6160W        W22421   6.655   6.919  12.620  0.0851 -0.1160 -0.0000
 6161W        W22422  16.443   9.899  11.923  0.2471  0.2933  0.0989
 6162W        W22423  13.951   0.966   1.681  0.2738 -0.0606 -0.0869
 6163W        W22424  12.582   5.943  13.551  0.2929  0.2613 -0.0553
 6164W        W22425   2.876  13.394  13.061  0.1856 -0.1039 -0.1644
 6165W        W22426  15.895  14.815   3.721  0.1526 -0.3713  0.2552
 6166W        W22427   1.269   2.205   0.676 -0.0269 -0.1228  0.0374
 6167W        W22428  10.805   2.992   3.446 -0.0529 -0.0600 -0.1182
 6168W        W22429   5.225  17.598  13.819  0.2162 -0.2587 -0.0813
 6169W        W22430   7.977   3.582  12.741  0.2625 -0.2007 -0.1039
 6170W        W22431   3.804  16.739  14.284 -0.2419 -0.0485 -0.2388
 6171W        W22432  17.879   3.893   4.143 -0.0333  0.2153 -0.0961
 6172W        W22433   8.457   1.760   1.755 -0.2523 -0.1344  0.1181
 6173W        W22434  15.734  11.133   0.901  0.0930  0.0489  0.0376
 6174W        W22435  17.489   3.723  14.134  0.0393  0.2207  0.3668
 6175W        W22436  16.204   3.970  12.368 -0.0655  0.2067  0.0634
 6176W        W22437   6.446   1.892  13.734 -0.0286  0.2391  0.0784
 6177W        W22438  17.931  12.265  14.715 -0.2055  0.0150  0.2323
 6178W        W22439   0.846   0.864   9.622 -0.0685  0.0292 -0.1351
 6179W        W22440   4.300  10.726   1.002  0.1790  0.3647  0.2696
 6180W        W22441   5.367  13.336  14.643 -0.0884  0.0926 -0.1303
 6181W        W22442   7.038  16.371  10.841  0.0190 -0.0308  0.0870
 6182W        W22443  17.652  11.770  12.354  0.0863  0.3264 -0.0835
 6183W        W22444   4.274   6.211   9.687 -0.0147 -0.0640  0.1767
 6184W        W22445   2.667   4.673   1.861 -0.1078 -0.2647  0.0997
 6185W        W22446   7.894  16.606  10.569 -0.3313  0.0525  0.1369
 6186W        W22447   4.157   0.067  11.018  0.0579 -0.2096 -0.1865
 6187W        W22448  11.636   0.718  12.147 -0.0002  0.0728 -0.2151
 6188W        W22449   5.190  17.966  11.363 -0.0088  0.1133 -0.1036
 6189W        W22450  10.962   4.435   2.837 -0.3216 -0.1544  0.1856
 6190W        W22451   9.458   7.307  11.908 -0.2120 -0.1470  0.1672
 6191W        W22452   7.719  17.678   0.093 -0.1441 -0.0376  0.2787
 6192W        W22453  18.806   6.762  10.437 -0.0986  0.1123  0.0812
 6193W        W22454   6.649  16.306   9.332  0.1094 -0.0001  0.3778
 6194W        W22455  14.881  13.364   2.335  0.1410  0.2969  0.1149
 6195W        W22456  16.902  13.572  12.263  0.0059  0.2443 -0.1021
 6196W        W22457   8.619  15.877   0.945 -0.4415 -0.1590  0.0734
 6197W        W22458  17.419   9.146   0.882  0.0491 -0.2153 -0.1515
 6198W        W22459   1.077  15.074  12.294  0.2099 -0.1979  0.2042
 6199W        W22460   5.510   9.670   3.529 -0.0715  0.2033  0.0447
 6200W        W22461  17.051  14.921   0.159  0.1759 -0.0713 -0.0452
 6201W        W22462   0.854   8.204   3.603  0.0977  0.0217  0.1302
 6202W        W22463  17.694   9.632   4.018  0.5034 -0.2466  0.0698
 6203W        W22464  17.484  17.979  12.709 -0.1573 -0.1772 -0.0690
 6204W        W22465  11.078  18.216   0.211  0.0955 -0.0878  0.0345
 6205W        W22466   3.621  10.385   0.290  0.1634 -0.4037  0.1273
 6206W        W22467  18.808  14.064   1.998 -0.3168  0.1125  0.0638
 6207W        W22468  10.601   9.438   9.910  0.1295 -0.1391 -0.0989
 6208W        W22469   0.882  10.486   0.741 -0.2460 -0.0235 -0.1912
 6209W        W22470   4.208  17.869  11.156 -0.3636 -0.0159 -0.1966
 6210W        W22471  18.880   0.842  14.229  0.1986 -0.3142 -0.0897
 6211W        W22472   6.226  16.979   4.837 -0.3434  0.1135 -0.0471
 6212W        W22473   5.407   5.116  12.340  0.0806 -0.0533  0.3627
 6213W        W22474   6.121   7.315  10.204 -0.2494  0.0790 -0.0172
 6214W        W22475  16.015  18.203   4.746 -0.0655 -0.1430  0.0671
 6215W        W22476  12.915   6.647   1.490 -0.0190  0.1986 -0.3255
 6216W        W22477  15.842   2.737   1.446  0.0738  0.1004  0.0985
 6217W        W22478   7.855  16.378   1.693  0.2160 -0.3308  0.4970
 6218W        W22479   0.089  17.651   5.436  0.1671 -0.2962  0.0944
 6219W        W22480  14.897   6.972  12.297 -0.1463  0.2035 -0.2585
 6220W        W22481   9.966  17.009  13.276 -0.0042  0.0933 -0.5005
 6221W        W22482   2.655  15.444  11.745  0.2971  0.2613 -0.0298
 6222W        W22483  11.224  10.646  14.043 -0.1180  0.3418 -0.0742
 6223W        W22484   1.772   4.785   0.885  0.3492 -0.1488  0.0939
 6224W        W22485  14.631   1.419   0.133 -0.0576  0.1251 -0.2246
 6225W        W22486   1.340   0.544  14.114  0.3669  0.1641 -0.4110
 6226W        W22487   5.097   9.173   2.774 -0.2368 -0.0122 -0.2598
 6227W        W22488   5.199  13.406  10.839  0.4935  0.3406 -0.0501
 6228W        W22489  19.029   6.827   3.566  0.0034  0.1172  0.1028
 6229W        W22490  17.940   3.088  13.778  0.0005 -0.1401  0.2714
 6230W        W22491   3.388  15.613   2.078 -0.1030  0.2972 -0.3751
 6231W        W22492  12.836   5.563   3.218  0.2893  0.1147  0.0466
 6232W        W22493   1.028  18.136   4.855  0.0118 -0.0786  0.1070
 6233W        W22494   3.562   8.825   1.886 -0.2136  0.1429 -0.0155
 6234W        W22495   9.075   4.079  11.406  0.0114 -0.3244  0.3586
 6235W        W22496  11.203  19.309   2.210 -0.0651 -0.0243 -0.2800
 6236W        W22497   8.749  17.382   4.544 -0.2858  0.1166 -0.2348
 6237W        W22498   3.733   2.321   1.006  0.1897 -0.0706 -0.2289
 6238W        W22499   8.331  13.797  12.820 -0.1448  0.5345  0.0708
 6239W        W22500  13.865   6.655   0.906  0.0489  0.3313  0.1646
 6240W        W22501  16.957  13.091   0.843  0.2806  0.1303  0.3668
 6241W        W22502   2.410   1.762   0.710 -0.1326  0.0876 -0.0906
 6242W        W22503  12.726   9.215   3.600  0.1341 -0.1785 -0.0073
 6243W        W22504  14.339  13.500   4.929  0.1270  0.0029  0.0678
 6244W        W22505  12.672  13.947   1.394  0.1119 -0.0130  0.0876
 6245W        W22506  16.354   5.222   3.601  0.0036 -0.1787  0.2411
 6246W        W22507   6.219   7.862  10.080 -0.1649 -0.0736  0.3292
 6247W        W22508  17.207  14.348  11.751  0.0186  0.1738 -0.1829
 6248W        W22509  14.211   3.595   3.982 -0.3919  0.1898  0.0024
 6249W        W22510   6.940   6.112   3.322  0.0765  0.2308 -0.0858
 6250W        W22511   6.527  12.991  12.651  0.0395 -0.1107 -0.3120
 6251W        W22512   5.930   5.265  14.433 -0.1306  0.0673 -0.2297
 6252W        W22513   0.398  13.717   3.367  0.1110  0.0246  0.0931
 6253W        W22514  17.643   3.550  13.242 -0.2016 -0.0503 -0.1672
 6254W        W22515  11.212   4.752   1.963 -0.0120  0.0134 -0.0620
 6255W        W22516  15.033   1.466  13.693 -0.2627 -0.0537  0.0017
 6256W        W22517  11.693  15.213  11.410 -0.1971  0.0086 -0.5311
 6257W        W22518   3.138  17.465   5.355 -0.0670  0.3478  0.0335
 6258W        W22519  12.225  13.350   1.892 -0.0492 -0.2895  0.1728
 6259W        W22520  19.249   0.496   1.547  0.0795  0.3898 -0.1915
 6260W        W22521  18.353   8.904  12.472 -0.2624  0.0793  0.3258
 6261W        W22522  11.842   9.731   3.063  0.0919  0.5044 -0.0987
 6262W        W22523   4.042   9.216   1.268  0.1233  0.0900  0.0867
 6263W        W22524   7.835   8.796   2.822  0.0621 -0.1520  0.0913
 6264W        W22525   2.642   4.599  13.467  0.0405 -0.2500 -0.0419
 6265W        W22526   5.367  15.511  10.321  0.0220 -0.3308  0.0165
 6266W        W22527   6.351   4.987   0.912 -0.0782 -0.0012  0.0336
 6267W        W22528  12.046  10.125  14.530 -0.0533 -0.0942 -0.0055
 6268W        W22529  12.828   7.648   3.053  0.1141 -0.0901 -0.1929
 6269W        W22530  17.765   1.857  13.255 -0.3052  0.4738  0.0007
 6270W        W22531   0.416   4.013  11.016 -0.2100 -0.1072 -0.1475
 6271W        W22532   5.400  14.496   9.839  0.3137  0.2771 -0.1999
 6272W        W22533   9.481   2.467  12.092  0.1313 -0.4518 -0.0849
 6273W        W22534   5.152  10.115  13.197  0.0911 -0.1184  0.3448
 6274W        W22535   3.929  14.752  10.953 -0.2411  0.0415  0.0525
 6275W        W22536   0.525  10.409  14.751  0.2983  0.3348 -0.1706
 6276W        W22537  13.658  16.840   1.694  0.3005  0.4205  0.1206
 6277W        W22538   5.581  14.060  11.982  0.0495 -0.3553 -0.2673
 6278W        W22539  18.891  17.494   4.930 -0.1145  0.0563 -0.1246
 6279W        W22540   4.278  18.974  10.958  0.1895 -0.0270  0.1779
 6280W        W22541   0.975   3.308  10.472  0.2272 -0.0367 -0.0141
 6281W        W22542   4.435   1.526   4.792 -0.3067 -0.1283 -0.0003
 6282W        W22543  11.087  18.931   1.852  0.1326 -0.0829 -0.1096
 6283W        W22544  17.191   3.014  11.815 -0.1162 -0.1167 -0.0541
 6284W        W22545  16.387  18.706  13.500 -0.1815 -0.1187  0.0801
 6285W        W22546   6.277  18.600   1.031  0.0382 -0.0315 -0.0930
 6286W        W22547   1.414   8.819  12.624  0.0126 -0.0734  0.1238
 6287W        W22548   1.420   5.923   1.403  0.2046  0.2626 -0.1707
 6288W        W22549   9.545   7.115  10.143  0.1683  0.0108  0.1211
 6289W        W22550   5.941   1.638  13.535  0.3128 -0.0843  0.0539
 6290W        W22551   3.990  15.702   0.073 -0.1874  0.2728 -0.0293
 6291W        W22552   7.027   3.630   3.523 -0.1554 -0.2054 -0.2091
 6292W        W22553  14.100   2.847  13.764 -0.1212  0.1725  0.1304
 6293W        W22554  15.071  10.595   4.967  0.0537  0.1001 -0.0520
 6294W        W22555  11.038   7.670   0.625 -0.0144  0.0125 -0.2059
 6295W        W22556   1.161  17.029  12.018  0.3047  0.1625 -0.2050
 6296W        W22557  16.055  14.782   4.310  0.2478  0.4076 -0.3995
 6297W        W22558   9.169   2.072   8.739 -0.3002  0.1205  0.1006
 6298W        W22559  11.093  14.409  11.412  0.4077  0.0672  0.2055
 6299W        W22560   8.160   3.079   3.152  0.0472 -0.1879 -0.2385
 6300W        W22561   3.232   9.159   2.786  0.1992  0.1501 -0.0909
 6301W        W22562  16.405   5.004   2.063 -0.0914  0.0840  0.0134
 6302W        W22563   4.853   4.729  11.722  0.0387  0.1620  0.0958
 6303W        W22564   5.953  12.810  12.085 -0.2179  0.2069 -0.1312
 6304W        W22565   9.881  15.879  13.853  0.3989 -0.0340  0.3009
 6305W        W22566  11.265  10.669   2.419  0.0878  0.3324 -0.0272
 6306W        W22567  10.413   4.260   0.250  0.4201 -0.5714 -0.2239
 6307W        W22568   9.260   0.466  12.051  0.3126 -0.0294 -0.1674
 6308W        W22569  16.446  17.431  10.500 -0.3499  0.0596 -0.2055
 6309W        W22570   3.007   0.675  10.805  0.1706  0.2112 -0.0372
 6310W        W22571  10.596  12.925  11.291  0.3148 -0.2013  0.0375
 6311W        W22572   3.691  10.375  12.765  0.1546  0.1567  0.3802
 6312W        W22573  14.972  11.728   2.989  0.0466  0.2995  0.1294
 6313W        W22574   3.643  17.972   1.785  0.1185 -0.1075  0.2875
 6314W        W22575   9.632   3.383   0.656 -0.0123  0.0983  0.1814
 6315W        W22576  17.992   6.235  13.495  0.1509 -0.1669  0.2268
 6316W        W22577   0.255   9.572   2.853 -0.0574  0.3478  0.0597
 6317W        W22578   2.799  13.155  14.465  0.3022  0.0357  0.2168
 6318W        W22579  18.423   1.508  13.963 -0.0607 -0.1630 -0.0489
 6319W        W22580  13.646   7.294   4.116  0.0375  0.0401 -0.0818
 6320W        W22581   1.992  14.390   2.967  0.1391  0.2426 -0.1498
 6321W        W22582   2.272   8.400  12.143 -0.3592  0.2603  0.0380
 6322W        W22583  10.789   6.138   3.117 -0.0094 -0.1561  0.0243
 6323W        W22584   7.885   4.779  10.737 -0.1090  0.0355  0.0237
 6324W        W22585   4.725  17.933  11.597  0.0252  0.0273  0.0525
 6325W        W22586  17.323   1.175   0.408 -0.1161  0.0752  0.0693
 6326W        W22587  12.719   6.648  12.209  0.2012 -0.0358  0.2385
 6327W        W22588  12.425   5.664  11.562  0.1505 -0.2277  0.3036
 6328W        W22589   0.476  15.460   1.991 -0.0158 -0.2363 -0.1615
 6329W        W22590  16.265   7.556  13.457  0.2265  0.1517  0.0910
 6330W        W22591   4.374  11.548   5.577  0.0036 -0.3385  0.0761
 6331W        W22592   6.237  17.087   1.876 -0.1066 -0.1936  0.0010
 6332W        W22593   5.163  13.843  12.209 -0.3019 -0.1937 -0.1711
 6333W        W22594  11.273   2.366   1.548 -0.1622 -0.0767 -0.0629
 6334W        W22595   8.892   6.415  11.413 -0.2894  0.1022 -0.0632
 6335W        W22596  10.044  13.302   2.989 -0.3225  0.4519  0.0227
 6336W        W22597  10.909  12.084  11.049  0.0172  0.1937 -0.0290
 6337W        W22598  12.314  15.893  12.562 -0.0192 -0.2895 -0.2070
 6338W        W22599  16.777  16.917  13.310 -0.1618  0.0310  0.2243
 6339W        W22600   3.677  11.846  13.740  0.2556 -0.2642  0.1377
 6340W        W22601   8.317  15.710  14.569 -0.2690  0.3301  0.2198
 6341W        W22602  14.739   4.329  12.648  0.2217  0.0058  0.0291
 6342W        W22603   4.008  19.391   0.914  0.0894  0.1010 -0.1176
 6343W        W22604   4.091   4.457  10.510 -0.1271 -0.0850 -0.0343
 6344W        W22605   3.310   7.170  12.663 -0.0884 -0.0537  0.1445
 6345W        W22606   8.582   7.519   9.355 -0.1275 -0.0481 -0.0638
 6346W        W22607  10.657   7.413   3.090 -0.0823  0.1021  0.2045
 6347W        W22608  18.928  10.254   1.431 -0.0029 -0.2138  0.0040
 6348W        W22609  19.464   4.617  11.569  0.7205 -0.1019 -0.0349
 6349W        W22610  10.914  14.108  11.007 -0.2734  0.3662 -0.1143
 6350W        W22611  15.377  12.047   1.099  0.3691  0.0823  0.6760
 6351W        W22612   0.833   8.849  14.490  0.1713  0.3562 -0.0096
 6352W        W22613  11.912   3.247   1.868 -0.1824 -0.0631 -0.0546
 6353W        W22614  15.942  16.312  12.519 -0.1311  0.0132 -0.3044
 6354W        W22615   9.466  16.921   3.653  0.1883 -0.0004 -0.4771
 6355W        W22616  15.585  15.128  14.785 -0.3921 -0.2026 -0.0836
 6356W        W22617  10.938   8.804  14.387  0.1772  0.0091 -0.2611
 6357W        W22618   8.821   1.206  12.686  0.0268 -0.1209 -0.2615
 6358W        W22619  13.451   6.306  10.033 -0.0090 -0.0610  0.1750
 6359W        W22620   6.231  14.469  11.334 -0.0775  0.1184 -0.0518
 6360W        W22621   5.330  17.603   2.996  0.0808  0.0058 -0.0753
 6361W        W22622  18.620   8.056  14.131 -0.0856 -0.0221 -0.0604
 6362W        W22623   4.924  15.883   4.600  0.1006 -0.1632 -0.2821
 6363W        W22624  17.905   7.184   1.534  0.0554 -0.1458 -0.2676
 6364W        W22625  17.570  11.392  14.322  0.4621  0.1452 -0.3509
 6365W        W22626   6.253   7.358   1.274 -0.0835  0.1763  0.1302
 6366W        W22627  17.315  16.642  12.483  0.1397  0.0023 -0.0324
 6367W        W22628   7.061   6.420  11.738 -0.3104  0.2675 -0.1290
 6368W        W22629   4.156   6.797   0.487  0.0109 -0.2066 -0.2845
 6369W        W22630  12.125  11.313   0.597 -0.0046  0.3017 -0.1361
 6370W        W22631  12.348   6.929   1.893  0.1585 -0.2940  0.2042
 6371W        W22632   4.015   6.490  12.998  0.1384  0.0444 -0.2099
 6372W        W22633   2.927   1.644   4.489 -0.0145  0.0557  0.0678
 6373W        W22634   9.412  18.090   3.712  0.0239 -0.1379 -0.0551
 6374W        W22635   4.570  17.574   1.594  0.0089 -0.0365 -0.0584
 6375W        W22636   7.374  18.810  11.506 -0.0288 -0.1193  0.0448
 6376W        W22637   7.817  10.149  11.080  0.3252  0.1061  0.2332
 6377W        W22638   9.683  11.500   4.408  0.0897 -0.2967  0.1918
 6378W        W22639   3.672  11.935  12.375  0.2850 -0.2877 -0.2817
 6379W        W22640  15.814  15.498  12.137  0.3081  0.2517 -0.0207
 6380W        W22641   6.864   2.423   4.331  0.1100 -0.0357  0.3942
 6381W        W22642   7.626  16.725   3.149  0.0177  0.1945 -0.1724
 6382W        W22643   8.675  19.133   9.445  0.1806  0.2216 -0.0530
 6383W        W22644  17.465  13.397   4.589 -0.0254  0.1386 -0.2239
 6384W        W22645  15.098  14.053  10.714 -0.0912  0.3367  0.0695
 6385W        W22646  15.037   2.891  13.523  0.3199  0.0094  0.1382
 6386W        W22647   6.266   4.327  11.604 -0.1546 -0.1262  0.2604
 6387W        W22648  11.235   9.723  12.643  0.0785  0.1999 -0.0695
 6388W        W22649   8.564   4.362  13.025  0.2515  0.2474  0.0304
 6389W        W22650   1.008   7.893   3.963  0.0672 -0.0617  0.2052
 6390W        W22651  16.166   3.104   1.493 -0.2932 -0.0069  0.3948
 6391W        W22652   7.581   6.825   3.291 -0.1033  0.2680 -0.1759
 6392W        W22653  11.252  14.954  11.464 -0.0015 -0.3833 -0.2228
 6393W        W22654   3.017   6.775  14.363 -0.0807 -0.0025 -0.1985
 6394W        W22655   4.812  19.172   2.626 -0.1654 -0.0733  0.1854
 6395W        W22656  19.017  16.607   2.205  0.1574 -0.2465  0.2583
 6396W        W22657  18.929  17.921   1.672  0.1423 -0.1218 -0.3681
 6397W        W22658   5.026  18.992  13.977  0.0027 -0.0872  0.0815
 6398W        W22659   4.689  11.690   2.198 -0.2109 -0.0727 -0.1532
 6399W        W22660  15.003   4.298  11.887 -0.2154 -0.0115 -0.2034
 6400W        W22661   9.686   4.638   0.083 -0.3980 -0.0731 -0.1156
 6401W        W22662  16.280   6.525   4.277 -0.2689 -0.2504 -0.2098
 6402W        W22663   3.038   6.961  11.436 -0.0485 -0.1848  0.2919
 6403W        W22664   7.681   6.131  14.291 -0.0299  0.0130 -0.0555
 6404W        W22665  19.290  16.759   4.469  0.0280  0.0862 -0.3410
 6405W        W22666  18.726   9.351  11.585  0.0060 -0.0088 -0.3790
 6406W        W22667   7.060  10.186   2.697  0.0174 -0.4306 -0.2925
 6407W        W22668   8.972   5.073   3.098  0.1670 -0.0230 -0.4290
 6408W        W22669  14.155   8.442   3.121  0.1868  0.0205  0.1122
 6409W        W22670  15.063   6.441   1.279 -0.0219  0.0290 -0.1059
 6410W        W22671   7.326  16.283   2.862  0.5717  0.1395  0.0257
 6411W        W22672  12.187   0.631  14.137  0.2081 -0.2524 -0.0274
 6412W        W22673  15.450  19.407   3.264  0.2036 -0.0257  0.0009
 6413W        W22674   7.536   5.903  12.919 -0.1972  0.2960  0.2630
 6414W        W22675   8.063   4.340   0.140  0.2607 -0.1813 -0.0784
 6415W        W22676  11.406   5.769  11.950 -0.3005  0.0301 -0.1448
 6416W        W22677   9.937  19.373  12.556 -0.1992  0.0836  0.1337
 6417W        W22678   4.995   5.039   1.018 -0.2689  0.2446  0.0046
 6418W        W22679  13.786  11.816  11.413  0.1067  0.2866  0.2067
 6419W        W22680  17.002  14.438  12.862  0.1245  0.0699 -0.0620
 6420W        W22681   9.603   8.341  12.978 -0.0094 -0.1675  0.3133
 6421W        W22682   5.174   1.089   1.737  0.0679  0.0505  0.0904
 6422W        W22683   3.485  16.448  13.839 -0.1282 -0.3126  0.1644
 6423W        W22684  15.976   6.617  13.107 -0.0287 -0.1449  0.1731
 6424W        W22685  13.335   4.315   1.389 -0.1340  0.2238  0.1517
 6425W        W22686  14.104   6.032  11.883  0.0502  0.0919  0.1527
 6426W        W22687  12.816  17.711   1.769  0.0951  0.1140 -0.1074
 6427W        W22688   0.577  19.369   1.198 -0.0238  0.0871  0.1695
 6428W        W22689  16.886   4.986   0.200 -0.0928 -0.1223  0.1396
 6429W        W22690   8.432   6.465   1.736 -0.0585 -0.0979  0.1869
 6430W        W22691   2.138   5.142   2.318 -0.0211  0.1054  0.5952
 6431W        W22692   4.861  13.275  12.864 -0.0609  0.0457  0.2593
 6432W        W22693  19.107   8.929  10.228 -0.1230 -0.0608 -0.2531
 6433W        W22694   6.797  16.835  10.601  0.1072  0.1748 -0.1690
 6434W        W22695  11.836   0.706   3.028 -0.0600 -0.2405 -0.1005
 6435W        W22696  15.235   7.044   4.493  0.0202 -0.0036  0.0004
 6436W        W22697   3.315  11.067   4.756  0.3006 -0.1959 -0.1467
 6437W        W22698   0.046   5.778  13.479  0.0387  0.2970 -0.0994
 6438W        W22699   6.666  15.116  10.430  0.0845 -0.1509  0.1596
 6439W        W22700  18.768   9.275   2.863 -0.5774 -0.0344  0.3129
 6440W        W22701   7.945  14.224   1.484 -0.2378 -0.0987 -0.0962
 6441W        W22702   0.494   0.790  13.447 -0.4157  0.0963  0.0249
 6442W        W22703  10.960   4.142  11.289 -0.2789  0.2987  0.1659
 6443W        W22704  13.458  16.877  10.982  0.0181 -0.3398 -0.0521
 6444W        W22705   5.658  19.105   2.225 -0.1108  0.0404  0.1030
 6445W        W22706   0.981  14.931   0.330  0.0038  0.1289 -0.0620
 6446W        W22707  16.626  17.456   4.537  0.0298  0.0565 -0.2279
 6447W        W22708  11.222  16.535   2.394 -0.1250 -0.0525 -0.2386
 6448W        W22709   4.537  12.351   3.073  0.3443  0.0268 -0.0245
 6449W        W22710   4.667   1.312  14.148  0.2564 -0.0529  0.1155
 6450W        W22711   0.301   6.533  10.420 -0.1538  0.3114 -0.2003
 6451W        W22712  14.641   3.458  11.260 -0.1373 -0.2030  0.3812
 6452W        W22713   2.933  11.048   1.615 -0.2272  0.0334  0.1637
 6453W        W22714   6.656  11.351   3.372  0.3745  0.0208  0.2109
 6454W        W22715   0.457  10.624   4.088  0.0239  0.0113  0.0835
 6455W        W22716  17.679   1.954   4.441 -0.3949 -0.0341 -0.1056
 6456W        W22717   2.963   1.439   4.000 -0.0877  0.4397  0.1637
 6457W        W22718   0.055   4.603   3.326 -0.2304  0.2646 -0.0989
 6458W        W22719   6.778   8.526  11.594  0.2887 -0.5490  0.1853
 6459W        W22720   1.962  13.831   2.948  0.1505  0.0273  0.1966
 6460W        W22721   7.925   4.974  13.635 -0.1292 -0.2294 -0.0352
 6461W        W22722   8.973  10.671   1.043  0.1094 -0.4989 -0.0772
 6462W        W22723  13.439   1.801   1.284 -0.0714 -0.0969 -0.0232
 6463W        W22724  16.828  15.693   4.173  0.1604 -0.0707 -0.3100
 6464W        W22725  10.208   1.737   3.977  0.0759  0.0344  0.0730
 6465W        W22726   4.045   7.263  12.431  0.0067  0.2095  0.2239
 6466W        W22727  10.582   7.348   3.618 -0.0117 -0.2071 -0.2081
 6467W        W22728   2.469  19.350   0.169  0.0619  0.1258  0.0732
 6468W        W22729  15.371  14.652  14.619 -0.1455  0.0052  0.2334
 6469W        W22730   3.311   2.342   3.736 -0.0401  0.2809  0.0722
 6470W        W22731   8.790   0.859  11.046 -0.2709 -0.1095  0.3817
 6471W        W22732   7.232  19.165  10.653  0.0135 -0.0346  0.0426
 6472W        W22733  15.379   5.081  10.243  0.1808 -0.1406 -0.2953
 6473W        W22734   1.473  17.663   0.431 -0.2471  0.0307  0.4491
 6474W        W22735  13.717   1.426   3.400 -0.3773  0.1850  0.1270
 6475W        W22736  18.733  11.251   0.719  0.0584 -0.0107 -0.0765
 6476W        W22737  10.665  16.638  12.997  0.0609 -0.2200 -0.2452
 6477W        W22738   9.077  18.975  13.117 -0.0352 -0.1031  0.1648
 6478W        W22739  13.050   8.775   3.420  0.3358 -0.0590 -0.1889
 6479W        W22740  19.472  11.847   0.977  0.0862 -0.0477 -0.5291
 6480W        W22741   0.939   7.922   0.159 -0.1408 -0.0142  0.1309
 6481W        W22742   3.698  18.891  10.256  0.5712 -0.6937  0.1737
 6482W        W22743   8.373  15.168   2.105  0.0286 -0.1011  0.2339
 6483W        W22744  19.257   4.493   4.689 -0.3496 -0.0038 -0.0579
 6484W        W22745   9.732   9.348   8.734 -0.1744  0.2263 -0.2213
 6485W        W22746  16.349  11.037  14.437 -0.0910 -0.2941 -0.1503
 6486W        W22747  17.748  17.030  10.264 -0.3386 -0.0388 -0.1040
 6487W        W22748   4.578  15.902  11.015 -0.3061 -0.2018 -0.3971
 6488W        W22749  11.857  14.897  13.131  0.0218 -0.1195 -0.0438
 6489W        W22750   8.568   7.396  13.018  0.0698 -0.0959 -0.0969
 6490W        W22751   0.391   4.986  14.779 -0.0646  0.0580 -0.2080
 6491W        W22752  16.393   4.368   2.855 -0.3038  0.0126  0.4108
 6492W        W22753  15.099   7.830  14.475 -0.2574 -0.0890  0.0142
 6493W        W22754  17.935   4.406  10.539  0.0630 -0.2060 -0.0699
 6494W        W22755  18.485  16.042  14.712 -0.1812  0.3104  0.2257
 6495W        W22756  11.575  17.194   1.863 -0.2463  0.1822  0.0483
 6496W        W22757  12.085  15.151   4.771  0.2622 -0.1272  0.0046
 6497W        W22758   7.093  16.824   0.585  0.0270 -0.0128  0.0843
 6498W        W22759   2.297  13.977   0.058  0.0220 -0.2701  0.1825
 6499W        W22760   9.735  10.464  12.893 -0.0413  0.0925 -0.0225
 6500W        W22761  17.049   8.305   3.018  0.1988  0.2937 -0.1944
 6501W        W22762  12.640  11.252   0.496 -0.1090 -0.3026  0.0950
 6502W        W22763   4.463  12.591  10.685 -0.2721  0.0559 -0.2296
 6503W        W22764  10.247  15.904  10.373  0.0042  0.1100  0.0073
 6504W        W22765  14.561   6.238   0.938 -0.0766  0.1930 -0.2854
 6505W        W22766   1.105   6.143   9.890 -0.1164  0.0699  0.0237
 6506W        W22767   0.221   4.728   9.973  0.0315 -0.1065 -0.2108
 6507W        W22768  10.513  13.123   0.818  0.1094 -0.3513  0.0042
 6508W        W22769   1.500  18.454   2.245 -0.5067 -0.2324 -0.1849
 6509W        W22770   8.538  10.913  13.910  0.3441 -0.1708  0.2306
 6510W        W22771  16.279   2.003  14.726  0.0534 -0.1143 -0.0473
 6511W        W22772  13.779   4.772   2.826  0.0585 -0.2156 -0.1354
 6512W        W22773   7.571   5.713  11.231  0.1560  0.2122 -0.1198
 6513W        W22774   8.520   0.656   8.999 -0.2759  0.3600  0.4291
 6514W        W22775   2.581   8.962  11.714  0.0356 -0.0163  0.0696
 6515W        W22776   6.181  10.069   2.398  0.2792 -0.0277  0.2757
 6516W        W22777   1.049   3.820  13.144 -0.3578 -0.1340 -0.0528
 6517W        W22778  15.244  11.190  12.626 -0.0449  0.0528 -0.3586
 6518W        W22779  16.756  17.276  12.329 -0.1170  0.1492  0.0302
 6519W        W22780  19.010  11.399   4.933 -0.0133 -0.1458  0.4369
 6520W        W22781   8.473   9.677   1.444 -0.4659  0.2060 -0.1639
 6521W        W22782   3.509  12.763  10.674 -0.1751 -0.1111  0.2485
 6522W        W22783   4.907  13.246   1.977 -0.1119  0.0210 -0.1825
 6523W        W22784   1.675  12.758  13.708  0.0941  0.3053 -0.1247
 6524W        W22785   2.180   2.894  12.756 -0.1162 -0.1202  0.0229
 6525W        W22786   6.900  11.483   1.925 -0.0965 -0.2820 -0.0291
 6526W        W22787   9.079  16.627   2.695  0.1621  0.0787 -0.0104
 6527W        W22788   0.897   7.413   0.278 -0.2177  0.1843 -0.1124
 6528W        W22789  10.728  17.517   3.464 -0.0915  0.1460  0.1636
 6529W        W22790  14.396  12.231   2.323  0.2338  0.0519 -0.1876
 6530W        W22791   5.157   0.081   3.664 -0.0288 -0.2141 -0.0276
 6531W        W22792   3.064  15.291  12.033 -0.2935 -0.0560 -0.5060
 6532W        W22793  14.815  14.756  11.931 -0.1286 -0.1193 -0.0570
 6533W        W22794  19.187  10.923   2.167  0.0627 -0.1608  0.0329
 6534W        W22795   5.208  10.178   2.338  0.0588  0.1092 -0.2359
 6535W        W22796   2.589  11.858   4.929  0.0495 -0.1866  0.0772
 6536W        W22797  18.340   7.639  13.302 -0.0512  0.2551  0.3845
 6537W        W22798   9.072   3.396   2.032  0.0532  0.0488 -0.2635
 6538W        W22799  14.026  14.694   4.494  0.4986 -0.1904  0.2747
 6539W        W22800  14.426  15.842   1.149 -0.1688  0.1212  0.3105
 6540W        W22801  16.546   7.905  12.142 -0.0050  0.1762  0.3676
 6541W        W22802  12.623  17.887   3.680 -0.1947  0.1430  0.0578
 6542W        W22803   7.547   9.067  14.119  0.2412  0.3865 -0.0068
 6543W        W22804  19.142   2.090  13.860  0.3093 -0.3981  0.0054
 6544W        W22805   6.463  17.250  11.444  0.1876  0.0117 -0.0419
 6545W        W22806   8.775  19.452   4.939  0.1673 -0.3329  0.0269
 6546W        W22807  15.286  17.718  12.604 -0.0482 -0.0568  0.2353
 6547W        W22808   6.908  13.819  11.758 -0.0248  0.2031  0.0465
 6548W        W22809  18.186  11.039  14.793  0.2366 -0.2681 -0.0923
 6549W        W22810  13.476  13.909  11.649 -0.1905  0.3361 -0.0109
 6550W        W22811   7.427   5.640   2.602 -0.2725  0.0424 -0.2614
 6551W        W22812  11.909   4.954   1.578  0.2082  0.4101 -0.1232
 6552W        W22813  17.302  18.563  12.859 -0.1876 -0.5253 -0.0866
 6553W        W22814  13.976   0.029   1.813 -0.2713 -0.3688  0.0641
 6554W        W22815  12.417   9.390   1.755  0.1039 -0.1735  0.1221
 6555W        W22816  11.357   0.294  12.927 -0.0758 -0.2288 -0.3011
 6556W        W22817   3.510   4.340   1.855 -0.2128  0.1453 -0.1976
 6557W        W22818   0.732   9.877  10.980 -0.3141  0.3807 -0.0621
 6558W        W22819  11.792   2.629  12.918 -0.4215 -0.0341  0.0002
 6559W        W22820  16.923   3.435   3.664 -0.3379  0.0937  0.0729
 6560W        W22821  16.227  17.248  11.595  0.0304 -0.2088  0.1662
 6561W        W22822  18.896   5.019  14.054 -0.1388 -0.1454 -0.4287
 6562W        W22823   6.843   1.690   9.967  0.1493 -0.0218 -0.1252
 6563W        W22824  16.799   8.560   3.446  0.1467  0.0002 -0.2712
 6564W        W22825  15.607  15.193   5.281  0.1255  0.1033  0.0555
 6565W        W22826   0.986  12.373  11.888 -0.2392  0.2024  0.1676
 6566W        W22827   2.449   5.154  10.789 -0.1183 -0.1471  0.2009
 6567W        W22828   1.559   6.942  10.207  0.2205 -0.0824 -0.3254
 6568W        W22829  11.000   1.730  13.457  0.0382 -0.2675 -0.4505
 6569W        W22830  11.327   6.482  12.314  0.0913 -0.0061  0.4615
 6570W        W22831   8.069   6.793   3.292  0.0884 -0.0941 -0.1369
 6571W        W22832   2.822  12.216  11.934 -0.2902 -0.1138 -0.1825
 6572W        W22833  13.116   8.660   2.861 -0.1420 -0.0214  0.0048
 6573W        W22834  14.856   5.274  10.991 -0.0813  0.0667 -0.0552
 6574W        W22835   3.511  17.786  11.668  0.0016  0.1543 -0.3358
 6575W        W22836  18.286  14.865  12.431  0.2751  0.2096  0.3000
 6576W        W22837   2.027   6.206   3.881 -0.1004 -0.0753  0.0541
 6577W        W22838  10.737   7.753   2.120 -0.3741 -0.0699  0.1427
 6578W        W22839   6.924   5.672  12.385  0.1219 -0.1697 -0.0206
 6579W        W22840   6.027   0.928  12.835  0.3142 -0.0596  0.2027
 6580W        W22841   8.201  18.719   0.384  0.0530  0.1977  0.2483
 6581W        W22842  17.013   3.389  11.171  0.0527 -0.1813  0.0137
 6582W        W22843  15.594  16.134   1.213 -0.2743 -0.1195 -0.1975
 6583W        W22844   6.464  18.101   4.025 -0.5196 -0.0988  0.1201
 6584W        W22845   9.581   8.631  10.266 -0.2946  0.1984 -0.0783
 6585W        W22846  14.177  15.021   1.652  0.1084 -0.1373 -0.2429
 6586W        W22847   2.493  14.510   3.063  0.0955  0.3601  0.1035
 6587W        W22848   4.623  15.009   2.397  0.1545 -0.3595 -0.3890
 6588W        W22849  19.431  14.500  13.054  0.4226 -0.1730 -0.0789
 6589W        W22850   7.970   5.883  14.607  0.1315 -0.0752 -0.0405
 6590W        W22851  13.431   8.299  14.480  0.1639 -0.0115  0.4917
 6591W        W22852   1.410   5.833  12.990  0.1043 -0.2890  0.1697
 6592W        W22853   1.108   4.793  13.491  0.0046 -0.1562 -0.1670
 6593W        W22854   2.184   1.311  12.851  0.1142  0.1233 -0.1334
 6594W        W22855   9.828   2.848   3.084 -0.3514 -0.3537  0.0908
 6595W        W22856  17.401   1.517  13.454  0.0167 -0.1544  0.2589
 6596W        W22857  13.682  17.305  14.063  0.2260  0.0150  0.1132
 6597W        W22858  14.167   6.288   3.414  0.1568  0.1749 -0.1405
 6598W        W22859  17.347  14.478   2.208  0.0744  0.0761  0.0778
 6599W        W22860   7.355   4.962   0.891  0.2691  0.2789  0.0953
 6600W        W22861   6.427   4.761  13.459  0.2918 -0.2318 -0.0826
 6601W        W22862   6.708   1.885   3.619  0.0193  0.0686 -0.1151
 6602W        W22863  13.137  15.991   0.241  0.1341 -0.0821  0.0762
 6603W        W22864  18.281  14.788   2.132 -0.1708  0.0853  0.4215
 6604W        W22865  18.710   3.397  11.665  0.0918 -0.1463 -0.0441
 6605W        W22866  14.054   7.738   4.024 -0.1644 -0.0706 -0.2393
 6606W        W22867  17.390   7.060  12.329 -0.3138 -0.2000  0.0611
 6607W        W22868  16.774   6.957   0.597  0.0900 -0.2039 -0.1596
 6608W        W22869  16.092  13.920  11.205 -0.0532 -0.1334  0.0548
 6609W        W22870  19.474   9.765   4.085 -0.2419  0.2367 -0.2315
 6610W        W22871  19.261   8.081   3.333 -0.0020 -0.3901 -0.0917
 6611W        W22872  15.477  17.536   3.613  0.1286 -0.0649  0.1878
 6612W        W22873   6.483  17.258   3.438  0.0885  0.2271  0.0897
 6613W        W22874   8.160  14.248   1.007  0.2374 -0.1245 -0.0590
 6614W        W22875   2.653  12.564  12.320 -0.2136  0.0289  0.1566
 6615W        W22876   5.093   7.757   2.743  0.0321 -0.1187  0.2111
 6616W        W22877  12.549   0.366   2.374 -0.1905 -0.2909 -0.4511
 6617W        W22878  12.153  15.902   4.072 -0.3661  0.0183 -0.1052
 6618W        W22879  17.147  12.329  11.913 -0.3832  0.1625 -0.0881
 6619W        W22880   2.702  15.769   2.942 -0.4104  0.0547  0.1878
 6620W        W22881  19.261   5.983  10.278  0.1062 -0.2831  0.1311
 6621W        W22882  11.141   5.463   0.703 -0.1439  0.2082  0.0822
 6622W        W22883   6.190  15.973   2.552 -0.0115  0.1306 -0.0413
 6623W        W22884  10.545   7.206  13.354  0.1140 -0.2521 -0.0120
 6624W        W22885   1.869   6.300  13.901 -0.0823  0.2129  0.2308
 6625W        W22886  10.545  13.618   0.041  0.0774 -0.1010  0.1151
 6626W        W22887  15.244   7.664  13.585 -0.2075  0.1166  0.0661
 6627W        W22888   4.308   0.278   4.855 -0.0013 -0.0748  0.2479
 6628W        W22889  13.949  10.315   1.272 -0.1298 -0.0088 -0.0857
 6629W        W22890  17.155  10.062   1.630  0.0905  0.2111 -0.2768
 6630W        W22891  14.229  12.572  13.824 -0.0108 -0.2522 -0.1935
 6631W        W22892  14.538  14.605  14.470  0.0180 -0.5031  0.5206
 6632W        W22893  15.087  14.849  12.332 -0.1791 -0.3731 -0.0851
 6633W        W22894  15.082   0.688  13.134  0.0990 -0.2156 -0.0569
 6634W        W22895   2.729   0.685   3.794  0.0939 -0.0436 -0.2654
 6635W        W22896   4.566  14.101  13.576 -0.1189 -0.0691 -0.0740
 6636W        W22897   9.953   8.957   4.367  0.0460 -0.0729 -0.4288
 6637W        W22898   6.206  10.851  12.101 -0.0869 -0.1810  0.1327
 6638W        W22899   6.101   1.608   9.212  0.0110  0.3899 -0.0450
 6639W        W22900   4.101   1.777  13.412  0.2488 -0.1877  0.0878
 6640W        W22901   0.841   2.112   1.091  0.1754 -0.2035  0.0068
 6641W        W22902  12.942  12.213   0.634 -0.4271 -0.0842  0.0589
 6642W        W22903  16.570   3.132  11.182  0.1849 -0.2042 -0.3072
 6643W        W22904   6.869   6.865   1.002 -0.1230  0.2863  0.1553
 6644W        W22905   4.033  13.381  11.252 -0.3080  0.2084 -0.0248
 6645W        W22906  14.224   6.504   1.259  0.1468  0.2074 -0.3884
 6646W        W22907   6.090   0.652   0.834 -0.0894 -0.0531  0.0269
 6647W        W22908   9.125  12.542  12.755  0.1090  0.0921 -0.0540
 6648W        W22909  11.300   7.998  13.214  0.0701 -0.0771  0.0398
 6649W        W22910   7.639   0.461  12.086  0.0650 -0.0972  0.2012
 6650W        W22911  11.182   9.769  10.607 -0.0887  0.0420 -0.0386
 6651W        W22912   9.210   3.642   0.645 -0.0244 -0.1089 -0.1045
 6652W        W22913   1.893  12.217   2.770  0.3396  0.4983 -0.1019
 6653W        W22914  13.987   4.936   1.877 -0.0704 -0.0344  0.0716
 6654W        W22915  13.228  16.843   0.593 -0.0752  0.2412  0.0550
 6655W        W22916  16.782   8.380   4.726  0.0222 -0.0211  0.0611
 6656W        W22917  10.657   9.062   1.020  0.1474  0.1239  0.1173
 6657W        W22918  11.945  13.399   1.460  0.2076 -0.4345  0.1446
 6658W        W22919  19.344  16.640   1.848 -0.3034 -0.1392  0.0096
 6659W        W22920   3.303   1.808   2.714 -0.1646  0.1691  0.0629
 6660W        W22921   4.606   6.446   0.672 -0.1709 -0.0344  0.0378
 6661W        W22922  11.263  16.730  10.897  0.4080  0.1296  0.2023
 6662W        W22923  17.521  11.222   1.180 -0.0244 -0.1357  0.0749
 6663W        W22924   6.462   6.024   1.622 -0.1843 -0.1370  0.6747
 6664W        W22925  15.832   4.867  10.506 -0.0793  0.0926  0.0855
 6665W        W22926  17.010  17.732   0.095  0.0071  0.0172 -0.1401
 6666W        W22927  13.740  11.443  12.460  0.3154  0.1286 -0.1953
 6667W        W22928  16.197  18.872   4.612 -0.2020 -0.1350  0.0175
 6668W        W22929   0.181   3.398  10.320  0.2304  0.2197 -0.2594
 6669W        W22930   0.178   3.885  14.241  0.2106 -0.0739  0.0096
 6670W        W22931  13.909  13.232   2.966  0.0515 -0.1000  0.0895
 6671W        W22932  16.124  13.480   3.247  0.2076 -0.0428  0.1849
 6672W        W22933  18.097   7.293  11.086 -0.0483 -0.0070  0.3397
 6673W        W22934  12.085   4.109   0.455  0.1003  0.2097  0.1272
 6674W        W22935  16.763  16.623   4.012  0.0447  0.1510 -0.2615
 6675W        W22936   2.886   1.295  11.425  0.4923  0.1208 -0.1386
 6676W        W22937  10.814  12.633  12.548  0.0093 -0.1475  0.1467
 6677W        W22938   8.642  16.411   0.142 -0.0632  0.0556 -0.3956
 6678W        W22939   0.247   2.278  12.313 -0.1770 -0.2713 -0.1094
 6679W        W22940  14.770   8.144   1.383 -0.3008 -0.1019  0.1316
 6680W        W22941  18.291  17.025  12.456 -0.1275 -0.4064 -0.3327
 6681W        W22942  18.913   9.910   0.892 -0.3207  0.0762 -0.1965
 6682W        W22943  19.397   3.036  12.229  0.0628  0.1485 -0.2030
 6683W        W22944  18.396   2.643  14.194 -0.2011  0.5476 -0.0894
 6684W        W22945   9.410   0.947   4.299 -0.3324 -0.4305 -0.2243
 6685W        W22946  18.485  11.460   2.324 -0.3151 -0.1545  0.2937
 6686W        W22947  17.616  10.069  14.503 -0.1361  0.1592  0.1659
 6687W        W22948   4.708  15.857   1.881 -0.0908  0.0384 -0.0560
 6688W        W22949  13.772   8.744   2.321  0.2014 -0.2125  0.1372
 6689W        W22950  12.756   3.113   3.638  0.0574 -0.0474  0.3208
 6690W        W22951  16.974  19.082   0.074 -0.3444 -0.0337 -0.0598
 6691W        W22952   2.310   1.755  12.542  0.0042  0.1717 -0.2863
 6692W        W22953   1.022  14.153   4.878  0.0106 -0.0729  0.0009
 6693W        W22954   6.964   8.945   0.172 -0.1477 -0.1425 -0.2387
 6694W        W22955   3.733  15.580  12.250  0.0300 -0.3452  0.0948
 6695W        W22956  17.956   5.718   5.082  0.2415 -0.1592 -0.0436
 6696W        W22957  13.676   7.406  11.812  0.1235 -0.0371 -0.1291
 6697W        W22958  10.048  16.109   0.131  0.4613  0.1565 -0.1138
 6698W        W22959  10.300  14.181   1.963  0.0996 -0.1648  0.0038
 6699W        W22960  12.121   1.859  14.247 -0.2840  0.2641 -0.1269
 6700W        W22961   1.896  18.027  11.576  0.1587  0.1272  0.2900
 6701W        W22962   2.897  10.614  10.866  0.1713  0.3679 -0.3054
 6702W        W22963  14.153  18.633   4.948 -0.0361  0.1265  0.1618
 6703W        W22964  12.685   2.581   4.476 -0.1920 -0.2641 -0.1405
 6704W        W22965  10.745  16.184  13.369  0.1954  0.0321 -0.0346
 6705W        W22966  11.570   0.753   5.089  0.1860  0.0810 -0.2832
 6706W        W22967  15.176  10.236  14.408 -0.0266  0.4434 -0.5398
 6707W        W22968   1.297  15.188  11.597 -0.0210 -0.1210 -0.0243
 6708W        W22969  12.037  11.599  13.252  0.5319  0.1157  0.2661
 6709W        W22970   0.527   8.106   4.409  0.0154 -0.2499 -0.3825
 6710W        W22971  17.260  11.407   2.902  0.1619  0.2865  0.0098
 6711W        W22972   3.289  12.255   2.113 -0.1541 -0.3077 -0.0133
 6712W        W22973   4.966   0.318  14.331 -0.0327 -0.2780 -0.4429
 6713W        W22974  14.273  15.446   4.060 -0.0421  0.0478 -0.1553
 6714W        W22975   8.079   1.453   2.660  0.1512 -0.3656 -0.1452
 6715W        W22976  11.394   2.508  11.330 -0.2015 -0.0967 -0.1944
 6716W        W22977  19.381  13.596   2.878  0.0693  0.1050 -0.2037
 6717W        W22978  10.372  14.010  11.765 -0.2363 -0.0448 -0.2843
 6718W        W22979   1.843   9.147  12.351 -0.1692  0.0774 -0.3259
 6719W        W22980   1.756  12.945  12.655 -0.1332 -0.0171 -0.1736
 6720W        W22981   2.759  14.813   1.331 -0.1107 -0.1674  0.0807
 6721W        W22982   8.761  17.623  11.304  0.2101  0.0224  0.4139
 6722W        W22983  19.296  17.982  13.006 -0.2639 -0.3544  0.1496
 6723W        W22984   8.498  12.723  10.072 -0.0281 -0.2032  0.3176
 6724W        W22985  13.532  16.530  14.552 -0.1139  0.0031  0.0559
 6725W        W22986   9.879   4.947   1.632  0.2966 -0.2158  0.0046
 6726W        W22987   6.445   8.067   4.168  0.0385  0.4828 -0.4089
 6727W        W22988  16.285   2.621   1.611 -0.2732  0.0805  0.2754
 6728W        W22989   6.979  18.193   9.360 -0.0295 -0.1066 -0.1032
 6729W        W22990  14.852   8.320  11.673 -0.0960  0.2881 -0.0790
 6730W        W22991  12.740  19.275  12.410  0.0006  0.1453 -0.2655
 6731W        W22992   0.703   5.457   1.609 -0.1517 -0.0506 -0.1809
 6732W        W22993  14.276   4.766  14.546  0.1206  0.1095  0.1741
 6733W        W22994   5.761  11.148  14.109  0.4191 -0.0755  0.0689
 6734W        W22995  12.520   6.501   1.760 -0.2126  0.0525 -0.0599
 6735W        W22996  16.424   3.086  13.899 -0.1039  0.1882 -0.3174
 6736W        W22997  17.126   9.262  13.782 -0.1148  0.1972 -0.1202
 6737W        W22998   9.219  12.450   5.216  0.1036  0.0300 -0.4638
 6738W        W22999   5.310  14.066   0.530 -0.0111  0.1913 -0.3972
 6739W        W23000  17.201  13.180   2.885 -0.0994 -0.1567  0.0149
 6740W        W23001  14.103  16.528  13.666 -0.2475 -0.2859  0.1254
 6741W        W23002   9.269  11.655   4.162 -0.0094  0.0447  0.1074
 6742W        W23003  12.935  10.759   0.308 -0.0797 -0.0618  0.0267
 6743W        W23004  13.797   3.971   2.263  0.0276  0.1611  0.1538
 6744W        W23005  14.315   1.080  12.077 -0.0780 -0.2927  0.2667
 6745W        W23006   5.109   0.944  13.793 -0.1033  0.3712 -0.2180
 6746W        W23007   0.930  11.599   2.100 -0.1990 -0.2548  0.1211
 6747W        W23008   2.900  15.377   2.146  0.1670  0.3178  0.0862
 6748W        W23009   9.699  17.642   2.049  0.2396  0.2159 -0.1037
 6749W        W23010  17.788   6.092  11.728  0.2961 -0.2028 -0.3136
 6750W        W23011  17.317   3.158   2.184  0.2458 -0.3492 -0.5074
 6751W        W23012  16.465  12.861   4.435  0.1638 -0.0803  0.0474
 6752W        W23013   8.750  12.893  12.467 -0.1728 -0.0905 -0.0960
 6753W        W23014  14.513   2.839  11.606 -0.0622 -0.3022  0.0709
 6754W        W23015  17.839  18.050  11.061  0.2632 -0.0837  0.2523
 6755W        W23016   6.485   6.235  10.084  0.1382  0.1421  0.0248
 6756W        W23017   0.375  14.006   1.186 -0.2566 -0.0617  0.1092
 6757W        W23018   8.639   0.421   0.802  0.1201  0.0341 -0.3949
 6758W        W23019   4.725   5.018  13.551 -0.4131 -0.2343 -0.0185
 6759W        W23020  18.111   4.364   4.140  0.0350  0.1416  0.3039
 6760W        W23021  15.235   5.683   4.296  0.1222  0.2411  0.1788
 6761W        W23022  13.190  19.123  14.002  0.1068 -0.2203  0.1125
 6762W        W23023  13.029   6.478   2.139  0.2511  0.0277  0.1793
 6763W        W23024   5.339   5.015  14.241 -0.4089  0.1045 -0.0018
 6764W        W23025  13.664  18.693  10.773  0.0316  0.2270 -0.0966
 6765W        W23026   9.824  13.516  13.336  0.0870  0.2815  0.5648
 6766W        W23027   7.923   2.635   3.297 -0.4413 -0.1701 -0.7235
 6767W        W23028   5.153  11.729  11.440  0.3427  0.0606 -0.4096
 6768W        W23029  15.279  11.460   5.537  0.0428 -0.1523  0.1529
 6769W        W23030   0.026  14.212  12.256 -0.1530  0.1328 -0.1302
 6770W        W23031  14.754  13.700   0.645 -0.2248 -0.0478 -0.0934
 6771W        W23032   0.571  17.854  12.774  0.0699 -0.1996  0.1983
 6772W        W23033  15.815  12.828   5.927 -0.0695 -0.3176  0.1946
 6773W        W23034   3.024  12.839   0.115  0.1033  0.2262 -0.0616
 6774W        W23035  16.516   4.819  14.260  0.1576  0.2744 -0.3273
 6775W        W23036  10.872  11.730   2.725 -0.2642  0.0670  0.0902
 6776W        W23037  10.466   4.212   4.844  0.0079 -0.0169  0.0624
 6777W        W23038   4.776   8.888  12.709 -0.5976  0.3026  0.0526
 6778W        W23039   1.569   9.076   0.321  0.5190  0.0762  0.0618
 6779W        W23040  15.598   8.464  11.458  0.1192 -0.0179 -0.2170
 6780W        W23041  18.536  14.628   4.792  0.0270  0.1525 -0.1810
 6781W        W23042  16.245   5.010  10.272  0.2751 -0.0544  0.1254
 6782W        W23043   5.402  10.058  11.299  0.0485 -0.1806  0.1722
 6783W        W23044   1.680   5.339  11.251 -0.1513 -0.0531 -0.1036
 6784W        W23045   5.283  18.683  13.610 -0.0710 -0.1088 -0.4596
 6785W        W23046  15.682  18.303   0.004  0.0786  0.2515 -0.1959
 6786W        W23047  18.322   5.747   1.669  0.1342  0.0051 -0.1370
 6787W        W23048  18.520  17.899   0.932 -0.3044  0.0932  0.2191
 6788W        W23049  10.941   5.334   2.084 -0.2130  0.2449  0.1990
 6789W        W23050  11.855  14.949  12.195 -0.1303 -0.2372  0.0313
 6790W        W23051   8.835   3.147  11.515 -0.1543  0.1420  0.2865
 6791W        W23052   7.406   3.518   9.757 -0.0247  0.0261  0.1587
 6792W        W23053   1.382  15.052  13.567  0.1737 -0.0640 -0.3711
 6793W        W23054   7.654  12.160  10.478  0.0392  0.1019  0.3970
 6794W        W23055   6.968  16.587   0.129 -0.1708  0.0316  0.0182
 6795W        W23056  11.068   6.596   1.442  0.2038 -0.0326  0.2350
 6796W        W23057   0.288   1.593  11.361 -0.0774  0.1059  0.2719
 6797W        W23058   6.980   3.963  12.589  0.1492 -0.1486 -0.1479
 6798W        W23059   3.939   3.518  10.468 -0.0187 -0.1638 -0.1451
 6799W        W23060  11.730  17.347   9.746 -0.3196  0.1606 -0.2511
 6800W        W23061   0.145   7.148   2.515  0.2547  0.0053 -0.1821
 6801W        W23062   6.035  13.502   0.301  0.0549  0.0397  0.2429
 6802W        W23063  13.741  15.230  14.376 -0.1345  0.0239 -0.1798
 6803W        W23064  11.220  11.034   4.940  0.2175 -0.0904  0.1683
 6804W        W23065   0.132   1.926   3.023 -0.2284 -0.1769 -0.1352
 6805W        W23066   7.092   1.956  11.297  0.2524  0.3044  0.1815
 6806W        W23067   1.523   8.882   2.226  0.1883  0.1416  0.4934
 6807W        W23068  13.429   4.580  14.509 -0.0129 -0.0999  0.1302
 6808W        W23069   8.591   4.180   3.046  0.0562 -0.2912  0.0055
 6809W        W23070   9.879  15.507   4.203  0.1883 -0.1460 -0.1195
 6810W        W23071  16.930  11.455   1.168 -0.0940  0.0637 -0.0075
 6811W        W23072  16.105   0.466  12.118  0.0850  0.1589 -0.0970
 6812W        W23073   0.737   9.064  12.164  0.0379 -0.1968 -0.0270
 6813W        W23074   0.348   8.226  12.462  0.0211  0.1045  0.4508
 6814W        W23075   5.999  16.271  11.239 -0.0917  0.5378  0.0141
 6815W        W23076   1.938   0.656   2.646  0.3481  0.1316 -0.0816
 6816W        W23077   8.712  18.364   3.192 -0.1543 -0.2596 -0.2872
 6817W        W23078   6.262   6.713   2.898 -0.3144  0.0998  0.0661
 6818W        W23079  10.975   2.463   5.513  0.0062  0.1024  0.0970
 6819W        W23080   5.144   1.895   3.582 -0.0583 -0.0558  0.1749
 6820W        W23081   7.751  13.993   3.877  0.0461 -0.0145  0.1249
 6821W        W23082  11.353   8.664  11.404 -0.0241 -0.1735  0.0462
 6822W        W23083  14.586  12.385  11.121 -0.0041 -0.2492 -0.0807
 6823W        W23084  16.563   1.539  11.323 -0.0354 -0.3703  0.0470
 6824W        W23085  15.646   7.412  12.783  0.4989 -0.0864  0.0120
 6825W        W23086  14.641  16.933   0.652 -0.0715  0.1918  0.0693
 6826W        W23087  13.653  10.247   4.474  0.5390  0.0922 -0.0121
 6827W        W23088  13.830  16.224   5.631 -0.2434 -0.2295  0.1247
 6828W        W23089   0.072   4.274   2.145  0.1108  0.0237  0.1373
 6829W        W23090   9.663   9.404   9.702 -0.0129  0.2062 -0.6455
 6830W        W23091   4.668  11.873  13.443  0.3910 -0.1250  0.0055
 6831W        W23092  15.257   4.132   3.665  0.1298  0.2081  0.1052
 6832W        W23093   1.195   7.699  13.386  0.2049  0.1548 -0.0754
 6833W        W23094  10.708   5.865   9.934  0.2178 -0.1278  0.1531
 6834W        W23095   4.849  14.304  13.184 -0.0295 -0.1793 -0.2358
 6835W        W23096  17.310   0.700   1.010 -0.2515  0.1457 -0.0234
 6836W        W23097  11.824   2.412   4.167  0.0007 -0.1001  0.1791
 6837W        W23098  15.418  17.167  12.612 -0.1123 -0.1107  0.2740
 6838W        W23099   9.687   5.742   2.111  0.0843 -0.1980 -0.1505
 6839W        W23100   1.795   0.128   3.278  0.3346  0.1832 -0.0890
 6840W        W23101  11.246  16.172   2.009 -0.1711 -0.0479 -0.3147
 6841W        W23102   8.822   6.009   3.345  0.2131 -0.2042 -0.0442
 6842W        W23103   6.399   9.437  13.519 -0.0729 -0.1281 -0.2641
 6843W        W23104  11.584  12.774  12.672 -0.0476  0.2132 -0.5485
 6844W        W23105   3.935  18.563   3.841  0.2937  0.1451  0.0413
 6845W        W23106   0.993  17.284   3.425  0.3320  0.0842 -0.0200
 6846W        W23107   9.326  18.035   4.895  0.1531  0.0549 -0.0400
 6847W        W23108  17.337  10.725   1.971 -0.2100  0.0413  0.1010
 6848W        W23109  15.751  18.088  11.790  0.1419  0.2115  0.1697
 6849W        W23110  18.460  16.431  12.918  0.1001 -0.1233  0.3607
 6850W        W23111   8.481   7.915  14.636  0.1547 -0.0334 -0.1550
 6851W        W23112  12.663   0.007  11.938  0.1144  0.1612  0.1373
 6852W        W23113   3.871   0.516  11.334 -0.0277 -0.1552 -0.0332
 6853W        W23114  12.050   8.265   0.400  0.2813 -0.2314 -0.0237
 6854W        W23115  13.185  18.846  13.583 -0.0130  0.2620  0.0918
 6855W        W23116  11.282  11.526   2.946 -0.5956  0.1144  0.1777
 6856W        W23117   7.022   0.223   3.278 -0.0589  0.0306  0.0462
 6857W        W23118   9.385   0.296  14.372  0.0091  0.1475 -0.4836
 6858W        W23119  18.033   3.618   0.820 -0.0682  0.0231  0.2987
 6859W        W23120   9.134   5.564  10.980  0.1455  0.1952  0.1135
 6860W        W23121  16.557  10.199   5.122  0.1181  0.0523  0.3088
 6861W        W23122  17.444   8.610  13.796  0.2387 -0.1743 -0.0008
 6862W        W23123  19.003   8.474   3.157 -0.1938 -0.3097 -0.3059
 6863W        W23124  19.328   7.907  12.776  0.0705 -0.0025 -0.1226
 6864W        W23125  13.987   9.445  11.910 -0.0344 -0.0357  0.0806
 6865W        W23126  18.664  17.625   3.024  0.2785 -0.2745  0.1840
 6866W        W23127   7.433  12.743   2.337  0.2902  0.4132 -0.0409
 6867W        W23128  13.409  10.395   0.295  0.0030 -0.2933  0.0386
 6868W        W23129  15.946   6.595  14.178  0.0904 -0.0924  0.0137
 6869W        W23130   3.105   0.708   3.462  0.0023 -0.0375 -0.2699
 6870W        W23131  14.790  14.410  12.310  0.4150  0.4044  0.2708
 6871W        W23132   0.703   1.001   2.809  0.1670 -0.1897 -0.1099
 6872W        W23133   7.718   8.485  11.343  0.0066 -0.2489  0.1465
 6873W        W23134   7.452  13.152  14.701  0.0132  0.0557 -0.2144
 6874W        W23135  16.322  17.218   2.434 -0.0113 -0.4078 -0.3026
 6875W        W23136  16.203   5.065  12.092 -0.1674 -0.0163  0.1290
 6876W        W23137  18.015  14.966   4.682 -0.0651  0.1875 -0.0784
 6877W        W23138   8.322  12.002  14.577 -0.0823 -0.0920  0.3520
 6878W        W23139   0.587   5.080  13.430  0.2198 -0.1076 -0.1762
 6879W        W23140  12.981  10.047  14.309  0.1635  0.4125  0.1134
 6880W        W23141   1.384  13.415  13.395  0.1170  0.0325 -0.0125
 6881W        W23142  14.335  18.218  14.515 -0.0303 -0.2896 -0.3255
 6882W        W23143   4.875  11.924  12.187 -0.0630  0.1636  0.0032
 6883W        W23144  18.064   9.085   2.580  0.1635  0.0691 -0.2098
 6884W        W23145  18.739   7.358  12.406 -0.1486 -0.4167  0.0112
 6885W        W23146  16.451  12.114   1.190  0.4781  0.3385 -0.0736
 6886W        W23147  11.397  10.187  10.754 -0.0887 -0.2466  0.3114
 6887W        W23148   9.866  17.352  11.836  0.0759 -0.1911  0.0360
 6888W        W23149   3.888   5.850   3.399 -0.0369  0.1724 -0.2685
 6889W        W23150   9.590  12.319   4.746 -0.0023 -0.1379 -0.0425
 6890W        W23151  16.573  12.461   2.333 -0.3512  0.1269 -0.0404
 6891W        W23152   7.846   5.755  10.099 -0.2600  0.0977 -0.0419
 6892W        W23153  16.674  15.986  14.778 -0.2515  0.0240  0.1545
 6893W        W23154   9.023  16.602  12.111 -0.2290  0.2295 -0.2441
 6894W        W23155   9.887   6.167   3.324  0.0670 -0.2571 -0.3288
 6895W        W23156   3.088   9.246  12.472 -0.4838 -0.0737 -0.0579
 6896W        W23157  14.948  14.337   5.346 -0.2041  0.0895  0.1788
 6897W        W23158   0.481  17.536  10.510  0.2048 -0.1254  0.0333
 6898W        W23159  12.573  13.685   0.392  0.1408 -0.0816  0.0894
 6899W        W23160  17.909  12.982  10.213  0.3025  0.2193  0.1213
 6900W        W23161   8.757   3.269   2.998 -0.3071 -0.1540  0.0836
 6901W        W23162  15.920   9.657   4.434 -0.1955 -0.0486  0.0168
 6902W        W23163  18.518   6.968  13.725  0.0957  0.2938 -0.2314
 6903W        W23164  13.280  17.063   2.285 -0.3030  0.3440 -0.0594
 6904W        W23165   8.823  18.041   0.280 -0.0075  0.2635 -0.1747
 6905W        W23166   5.696  16.302  14.738  0.2074 -0.0933 -0.1974
 6906W        W23167   9.693  16.003  10.262  0.0133  0.1678 -0.0814
 6907W        W23168   1.560   4.961   4.090 -0.2651  0.3233 -0.0777
 6908W        W23169   2.573  16.609   5.832 -0.1154  0.2783  0.0480
 6909W        W23170   1.465  15.581  14.751 -0.0560 -0.2641  0.1062
 6910W        W23171   3.587  10.468   5.394  0.0528 -0.2267  0.1921
 6911W        W23172   3.056  17.350  14.184  0.3732 -0.3107 -0.3194
 6912W        W23173  13.814  12.428   1.869  0.0612  0.0278 -0.2901
 6913W        W23174  15.747   1.078   2.527  0.3078  0.0112  0.0642
 6914W        W23175  13.996  13.876   5.032 -0.0648  0.4356  0.1221
 6915W        W23176  14.459  11.160   0.031  0.1908 -0.2883  0.1547
 6916W        W23177   3.735   0.394   0.912  0.2243 -0.2262  0.0165
 6917W        W23178  16.278   0.137   1.682  0.0757 -0.0328  0.1465
 6918W        W23179   1.263   0.251   1.169  0.2525 -0.2410  0.1292
 6919W        W23180   5.305  18.092   9.963 -0.0263 -0.1111  0.0830
 6920W        W23181   0.378   7.213   1.155 -0.2196  0.3013  0.2301
 6921W        W23182   6.907   5.964  14.802  0.1041 -0.1481  0.1193
 6922W        W23183  11.458  19.304  12.573  0.1797  0.1068  0.0873
 6923W        W23184   1.876   4.336  14.264 -0.0340 -0.0605 -0.0532
 6924W        W23185   2.244  16.236   1.181  0.2255 -0.2048  0.2151
 6925W        W23186   0.580   1.302  13.502  0.0445 -0.0876 -0.1147
 6926W        W23187  18.248   8.068  12.137 -0.1700 -0.1278  0.3795
 6927W        W23188  14.233  12.160   0.001  0.0051 -0.0104 -0.0976
 6928W        W23189   5.226  13.123   5.720 -0.1213  0.2083  0.2162
 6929W        W23190   4.600  19.463   2.195 -0.1797 -0.1487  0.0503
 6930W        W23191   6.391  13.917   1.561  0.2570  0.1881 -0.1865
 6931W        W23192   9.670  18.671  11.699 -0.0139  0.0308  0.1607
 6932W        W23193  16.376  19.438   4.549  0.2248  0.0126 -0.0538
 6933W        W23194  15.244  14.299   2.504  0.0636 -0.1376 -0.2714
 6934W        W23195   0.970   3.828   2.630  0.4475 -0.1294 -0.0442
 6935W        W23196   5.294   4.888   3.199 -0.1344 -0.2543  0.2621
 6936W        W23197   7.950   3.363  11.502 -0.0599  0.1617 -0.0408
 6937W        W23198  18.432  12.951   3.513  0.2521  0.2230  0.1066
 6938W        W23199  12.161  19.333  12.694 -0.2598  0.0305 -0.3945
 6939W        W23200   0.703  14.025   9.665  0.4802  0.3787  0.3326
 6940W        W23201   7.022  10.609  12.593  0.0319  0.1374 -0.0107
 6941W        W23202   2.890  15.663  12.378 -0.1559  0.0905 -0.1380
 6942W        W23203   9.943   7.834   9.958 -0.1258  0.0853  0.4385
 6943W        W23204   6.840  16.112   3.743  0.3057  0.2144  0.2836
 6944W        W23205  14.529  17.984  14.120  0.0922 -0.1014  0.3714
 6945W        W23206  19.076   0.932   4.125  0.1301 -0.2517 -0.4548
 6946W        W23207   0.040   3.168   4.392 -0.3922 -0.0300 -0.1002
 6947W        W23208  19.144  14.421   1.813 -0.0698  0.3000 -0.3253
 6948W        W23209   9.529  12.878  12.927  0.3637 -0.3111 -0.0444
 6949W        W23210   2.230  10.773   0.915 -0.3382 -0.0236  0.0041
 6950W        W23211   6.335  10.849  10.236  0.0554 -0.3682 -0.1971
 6951W        W23212  18.753   8.154  12.164 -0.1495  0.2034  0.1075
 6952W        W23213   5.070  13.403  11.311  0.1924 -0.0736  0.1464
 6953W        W23214   2.945  18.098  11.549  0.3998  0.2978 -0.0204
 6954W        W23215   6.618   0.265  12.979 -0.1845  0.2638  0.0685
 6955W        W23216   5.156  14.329  12.052 -0.2277  0.1518 -0.0868
 6956W        W23217  14.284  18.003  12.890 -0.0839 -0.1605  0.0941
 6957W        W23218   7.584   6.331  10.584 -0.1052 -0.0818 -0.2297
 6958W        W23219   3.706  13.518   0.197  0.0384 -0.0647 -0.0887
 6959W        W23220   6.421  17.330  14.429 -0.4472 -0.0730  0.1683
 6960W        W23221  12.302  13.405  13.359 -0.0786  0.2684  0.1703
 6961W        W23222   6.460  17.259  12.091  0.4167 -0.2228 -0.0543
 6962W        W23223   1.873  13.909   2.026 -0.1350 -0.4826  0.0572
 6963W        W23224   3.268   0.582   2.612  0.3323  0.1837  0.0614
 6964W        W23225   4.855   1.775  12.794  0.1307 -0.2680 -0.1844
 6965W        W23226  13.149   8.398  13.256  0.0652  0.0514 -0.0352
 6966W        W23227  16.463   0.959   5.535 -0.4624 -0.3038  0.1114
 6967W        W23228   2.455  10.957   2.097 -0.1914 -0.1183  0.1993
 6968W        W23229  16.859   7.060   1.564 -0.2608 -0.0995  0.0339
 6969W        W23230  12.683  11.780   1.802  0.1186  0.0481  0.3176
 6970W        W23231   6.191   9.814   0.887  0.1966  0.2245 -0.2960
 6971W        W23232   8.063  12.912   3.035 -0.3472 -0.0254 -0.0607
 6972W        W23233   6.966   2.564   2.213 -0.0963  0.0377  0.2048
 6973W        W23234  15.807  13.020  14.071  0.3104 -0.2069 -0.0652
 6974W        W23235   6.904   9.536   4.094 -0.1440 -0.3372  0.2418
 6975W        W23236  11.596   1.714  11.937  0.1675 -0.1087  0.0854
 6976W        W23237  11.129   1.895  13.996 -0.4677  0.2765 -0.1157
 6977W        W23238   5.189  17.054  10.261 -0.0037 -0.0481  0.5840
 6978W        W23239   6.339  10.749   4.723  0.1158  0.2869 -0.0414
 6979W        W23240   6.417   0.867  13.682  0.0494  0.0581  0.1873
 6980W        W23241   7.624  14.193   0.857 -0.2579  0.2199  0.1002
 6981W        W23242  17.278  13.948   0.541  0.0650  0.1265 -0.2330
 6982W        W23243  15.984  15.071   5.008  0.2187  0.0561  0.0207
 6983W        W23244  17.021  17.951   2.911  0.3524 -0.1269 -0.1739
 6984W        W23245  14.271   5.386  10.957 -0.0513 -0.0432  0.0104
 6985W        W23246   5.596   4.557   2.996  0.0284 -0.2013 -0.2479
 6986W        W23247  13.711  13.081   1.019 -0.0945 -0.0384 -0.1623
 6987W        W23248   2.215   7.381  13.136 -0.1815  0.0366 -0.2279
 6988W        W23249   6.036  16.252   2.057  0.4247 -0.0078 -0.3359
 6989W        W23250   1.232  15.462  10.469  0.2366  0.2195 -0.1462
 6990W        W23251  15.583  13.308   0.127 -0.1418 -0.0482  0.0280
 6991W        W23252  15.100   1.057  11.019  0.0883  0.1036 -0.3162
 6992W        W23253  10.679  12.788  10.586  0.0577  0.0258 -0.0716
 6993W        W23254  10.225   4.376  12.162 -0.2326  0.2216 -0.0003
 6994W        W23255   5.978   5.600   4.548 -0.1296  0.2788 -0.0953
 6995W        W23256  15.378   0.109   0.275 -0.1207 -0.0940 -0.4113
 6996W        W23257   5.612  16.634   3.162 -0.1432  0.2446 -0.0026
 6997W        W23258   6.167  10.910  12.920  0.0537  0.0663  0.3355
 6998W        W23259   4.780   7.823  13.859  0.1084 -0.0113  0.2941
 6999W        W23260  16.972   0.720   5.563  0.2613 -0.4035 -0.1645
 7000W        W23261   1.457   7.627   3.473 -0.0692  0.0712 -0.0263
 7001W        W23262  15.550   0.956  11.721 -0.1659  0.2373 -0.0822
 7002W        W23263  17.713  15.601  13.483 -0.2212  0.0663 -0.0584
 7003W        W23264  14.718  14.624  12.742  0.0452 -0.0283 -0.1255
 7004W        W23265  12.359  13.976  10.992 -0.1840 -0.0250 -0.1616
 7005W        W23266  19.014  17.093   5.368 -0.0641 -0.1331 -0.1133
 7006W        W23267   1.531   6.289   0.247 -0.3294 -0.1501  0.3298
 7007W        W23268   8.945  16.112  12.781 -0.2949  0.1916  0.0343
 7008W        W23269   0.968  11.441   9.975 -0.3412  0.3556 -0.0330
 7009W        W23270  11.108   8.042  14.254 -0.3016  0.0133  0.5285
 7010W        W23271   0.997  16.371   1.103 -0.0684 -0.0349  0.2610
 7011W        W23272  18.685   3.729  12.118 -0.0731 -0.2780  0.2765
 7012W        W23273  13.428  14.887  11.634 -0.3150  0.0647 -0.3797
 7013W        W23274   0.639   4.155   3.724  0.1312 -0.0690 -0.2377
 7014W        W23275   3.934   1.245   3.056 -0.0757  0.2949  0.4491
 7015W        W23276  10.339   8.020  11.694  0.0796 -0.2215 -0.0210
 7016W        W23277   1.193  13.583  13.841 -0.3736 -0.0720 -0.1323
 7017W        W23278   4.061   1.499  11.742  0.2805 -0.2172 -0.1126
 7018W        W23279  12.675  10.399   2.131 -0.1291  0.2255 -0.0849
 7019W        W23280  14.009  13.298  13.276  0.2333 -0.3588 -0.0940
 7020W        W23281  16.303  13.732  14.545 -0.1030 -0.1194 -0.0898
 7021W        W23282  10.551   8.280   1.342  0.1870 -0.6957  0.0298
 7022W        W23283   2.823  11.702  13.503  0.3167  0.0411 -0.0730
 7023W        W23284  10.520   3.602   9.717  0.2360 -0.0928  0.0750
 7024W        W23285  11.472   0.101   2.518  0.0262  0.2017  0.4217
 7025W        W23286  16.425   2.166   4.985 -0.0069 -0.0643  0.0357
 7026W        W23287   3.243   8.771   1.394 -0.1207 -0.1901  0.0389
 7027W        W23288   0.540  19.153  12.697 -0.0272  0.0822  0.0337
 7028W        W23289   6.234   8.503  14.464 -0.1344  0.0498 -0.1868
 7029W        W23290  12.649   6.367  10.282 -0.0991 -0.3176 -0.6445
 7030W        W23291   4.883   2.229  11.511 -0.1475  0.0049  0.0159
 7031W        W23292  10.593  13.227  10.920  0.3144  0.0243  0.0279
 7032W        W23293   2.750   0.837   9.945 -0.0059  0.2489  0.4321
 7033W        W23294  12.455   5.948  10.286 -0.0088  0.2290  0.4067
 7034W        W23295  10.146   2.219   4.705 -0.1546  0.0005 -0.0968
 7035W        W23296  13.291   7.081  10.688 -0.0172 -0.1746  0.0739
 7036W        W23297   8.845   6.832   0.813  0.2651 -0.0869 -0.1299
 7037W        W23298  16.168  12.754  10.782 -0.3766  0.2257  0.1892
 7038W        W23299   5.646   0.301   1.953 -0.4797  0.0595 -0.1939
 7039W        W23300  18.424  15.827   1.897  0.0191  0.2047  0.0109
 7040W        W23301  18.410   3.963  14.722  0.1444  0.1005  0.1252
 7041W        W23302  10.980   3.231  14.533 -0.0997 -0.0033  0.0075
 7042W        W23303  12.675   4.184  12.705  0.0591  0.0650 -0.1344
 7043W        W23304   8.212   5.226  10.090  0.0866  0.3716 -0.1442
 7044W        W23305   8.503  14.243   1.388 -0.0342 -0.4032  0.0094
 7045W        W23306   0.182  12.578   4.600  0.2225 -0.2333  0.1396
 7046W        W23307   6.081   7.184  11.492  0.1188 -0.0170 -0.1055
 7047W        W23308  13.673   7.926   0.447  0.0980 -0.1605 -0.0251
 7048W        W23309   5.610  10.740   0.463 -0.0334  0.4999 -0.1750
 7049W        W23310   8.996   4.633   0.873 -0.1131  0.2769 -0.1634
 7050W        W23311  13.897   4.481  14.232  0.2061 -0.2702 -0.6367
 7051W        W23312  10.423  17.405  11.299  0.6272 -0.0475  0.2804
 7052W        W23313   5.740  10.729   2.024 -0.0784 -0.1564  0.4189
 7053W        W23314   3.763   6.439   4.123  0.0775  0.1375 -0.2499
 7054W        W23315   3.346   5.795  12.255 -0.0268 -0.4371  0.3153
 7055W        W23316  11.649   9.050  14.294  0.1109  0.0343 -0.1878
 7056W        W23317   9.797   2.122   1.751 -0.4888 -0.0307  0.1260
 7057W        W23318  11.086   3.662  10.422  0.3120 -0.2549 -0.0723
 7058W        W23319  14.368  15.070  14.224  0.0265 -0.0992 -0.1737
 7059W        W23320   6.657  13.414   4.365  0.3129  0.2793 -0.1762
 7060W        W23321   9.837   7.791   0.064 -0.3319  0.1562  0.1633
 7061W        W23322   6.727  12.547  14.335 -0.0103 -0.1964 -0.1298
 7062W        W23323  12.265   1.766  12.944  0.0224 -0.1604 -0.2968
 7063W        W23324  13.314  17.352  13.696  0.0973  0.2817 -0.1073
 7064W        W23325   4.069   3.449   1.067  0.0493 -0.1552 -0.2835
 7065W        W23326   5.540  17.251  10.655 -0.1256  0.3430 -0.2487
 7066W        W23327   8.423   4.345   1.511 -0.0604 -0.1906 -0.1850
 7067W        W23328   2.511   5.713  13.327  0.3054  0.1027 -0.2265
 7068W        W23329   3.581   3.232   1.021 -0.0851  0.2435  0.1350
 7069W        W23330   7.718  18.218  13.017  0.0017  0.1783 -0.1688
 7070W        W23331   5.405  14.632   1.232  0.1590  0.2714  0.0086
 7071W        W23332  15.586   6.685   1.914 -0.1571  0.0022 -0.0001
 7072W        W23333   6.385   4.978  10.490 -0.1168  0.0912 -0.4456
 7073W        W23334   9.932  15.217   0.925 -0.0805  0.2265 -0.2627
 7074W        W23335   2.573   3.848  14.437 -0.0882 -0.1613  0.3369
 7075W        W23336   3.828  12.559   0.611  0.2225 -0.4176 -0.0769
 7076W        W23337  14.917  17.741   2.014 -0.2914 -0.0262 -0.2068
 7077W        W23338  11.887   7.294   2.043 -0.2232 -0.1062  0.3148
 7078W        W23339  18.181   0.272   2.286  0.2935 -0.2425  0.2341
 7079W        W23340   6.713   2.729  13.924 -0.3918 -0.0842  0.0924
 7080W        W23341   5.200  12.272   4.532  0.1234 -0.0109  0.1533
 7081W        W23342   6.873  13.947   2.855  0.0222  0.1735  0.0076
 7082W        W23343  16.334  11.942   5.223 -0.4335 -0.1736 -0.2679
 7083W        W23344   9.671   0.529  11.247 -0.2609 -0.1770 -0.2239
 7084W        W23345   2.807  10.332   5.156 -0.0331 -0.2501  0.2085
 7085W        W23346   6.113  16.537  10.803 -0.0903 -0.2801  0.0126
 7086W        W23347  11.261  16.436  11.911 -0.2426 -0.2841 -0.4231
 7087W        W23348   1.109   3.777  14.576  0.0820  0.0176  0.0340
 7088W        W23349  13.748   2.076   4.236 -0.4067  0.2592 -0.0957
 7089W        W23350   7.839   4.059  11.789 -0.4225 -0.1755  0.3480
 7090W        W23351   9.778   0.211  12.225  0.4342  0.2391 -0.0785
 7091W        W23352   3.743  19.059   5.387 -0.0573  0.1185 -0.1724
 7092W        W23353   8.708  11.927  11.219 -0.0331  0.1682  0.0884
 7093W        W23354   0.619  14.662  10.714 -0.3300  0.0165  0.1493
 7094W        W23355  17.572   5.711  10.642  0.0163  0.1633  0.0272
 7095W        W23356  14.425  14.667  13.947  0.0592  0.2239  0.1477
 7096W        W23357  11.114  13.703  10.621  0.0797 -0.1948 -0.0162
 7097W        W23358  11.389   5.319   4.209  0.2052 -0.5024  0.1187
 7098W        W23359  12.072   7.886  12.400 -0.2521 -0.2938  0.0596
 7099W        W23360   8.896   7.165   9.566 -0.0798  0.0910 -0.0231
 7100W        W23361  14.647  17.162   2.459 -0.0326  0.1080  0.1397
 7101W        W23362   6.044   2.274  10.116 -0.0318  0.1016  0.0701
 7102W        W23363   8.875   6.311  12.904  0.3495  0.1213  0.0036
 7103W        W23364   9.973   1.013   1.707 -0.0939 -0.0333  0.0368
 7104W        W23365   9.695  17.792   4.615 -0.0179 -0.0932 -0.2782
 7105W        W23366  12.953   1.792  14.722  0.3249  0.0003 -0.1730
 7106W        W23367   7.843   8.224   0.322 -0.0178 -0.0260 -0.3413
 7107W        W23368   5.380   2.078  11.562 -0.0193  0.1434  0.0672
 7108W        W23369  14.487   3.887  13.528 -0.1297  0.1531 -0.0611
 7109W        W23370  13.140   5.198   4.713  0.1821  0.1681 -0.1944
 7110W        W23371  14.257  14.163  12.896 -0.2253 -0.0321  0.1025
 7111W        W23372   2.754  14.194   2.801 -0.0877 -0.0815 -0.1199
 7112W        W23373   2.320   2.346  10.266  0.0046 -0.2575 -0.1820
 7113W        W23374   9.880  12.123   2.706 -0.3577  0.3121  0.2947
 7114W        W23375   1.056   5.085   3.976  0.0600  0.1168  0.1177
 7115W        W23376  11.324  17.328   4.439  0.1429 -0.1791 -0.0204
 7116W        W23377  11.163  12.309  14.591  0.1329  0.0146  0.1285
 7117W        W23378  12.019   1.216   1.878  0.1621 -0.0767 -0.1422
 7118W        W23379   7.521   8.040  14.492 -0.3915  0.3960  0.1156
 7119W        W23380   8.274   6.705   9.706  0.0963  0.4307 -0.1025
 7120W        W23381  10.590  17.544  11.736  0.2744  0.0128 -0.0022
 7121W        W23382  11.034   9.111  11.446 -0.1941  0.0374 -0.2689
 7122W        W23383   9.473  16.382   3.502 -0.4135  0.3961  0.1152
 7123W        W23384   8.779   2.899   2.694 -0.0287  0.0224 -0.0762
 7124W        W23385   1.704   5.147   3.629  0.1410 -0.0293 -0.2908
 7125W        W23386  10.535  13.493   3.008 -0.2354  0.2112  0.0437
 7126W        W23387   2.781  17.152   2.984 -0.1591 -0.2261 -0.2000
 7127W        W23388   3.988   5.538   0.750  0.1535 -0.1197  0.0080
 7128W        W23389  16.035  14.364   1.494 -0.2666  0.1478 -0.1866
 7129W        W23390   4.139   1.373   2.177 -0.5743  0.0908 -0.3645
 7130W        W23391  17.529   3.220  14.185 -0.0269  0.3636 -0.1231
 7131W        W23392  14.136  17.038   1.957  0.1496  0.1287  0.1660
 7132W        W23393   7.636  13.536   1.286  0.0246  0.2411  0.0003
 7133W        W23394  13.618   0.824   4.487 -0.1500 -0.0578 -0.1737
 7134W        W23395   4.021  15.495   4.260 -0.2101 -0.0417  0.0298
 7135W        W23396  16.454   9.092   0.048  0.1082 -0.1484 -0.1196
 7136W        W23397   6.085   5.410   0.887  0.0320 -0.0642 -0.2136
 7137W        W23398   1.047   8.671  12.300  0.0666  0.2729  0.0920
 7138W        W23399  18.471   7.444   1.177 -0.2303 -0.0330 -0.2199
 7139W        W23400  16.243   2.128  13.703 -0.2058 -0.1336 -0.1443
 7140W        W23401  10.098  18.223  12.965 -0.0000  0.0824  0.1019
 7141W        W23402   2.944  16.919  14.441  0.2073 -0.2653 -0.2577
 7142W        W23403   4.687   5.051   3.802  0.2704 -0.0346 -0.1365
 7143W        W23404   8.029   9.474  10.008  0.0465 -0.1680  0.3079
 7144W        W23405   9.644   0.318  13.307 -0.1500  0.1297  0.0785
 7145W        W23406   4.852   1.980   2.118 -0.1735  0.0782 -0.0233
 7146W        W23407  11.947   0.187   4.854 -0.0326  0.0412  0.3952
 7147W        W23408   0.716   8.637   0.832  0.0870 -0.1897  0.3201
 7148W        W23409  14.508   7.043   2.768  0.1071  0.1940  0.0296
 7149W        W23410  15.406   6.955   0.593  0.0208 -0.2312 -0.0894
 7150W        W23411   7.724  14.911   4.245 -0.0151  0.0726  0.0547
 7151W        W23412  15.433   9.431  11.022 -0.5238  0.2770  0.2868
 7152W        W23413   0.530   6.467  14.061  0.1524 -0.1098 -0.0101
 7153W        W23414  15.646   9.186   4.955 -0.0446 -0.1391  0.2275
 7154W        W23415  15.604   4.499   4.962  0.1975  0.1558  0.0160
 7155W        W23416   8.695   5.792   2.471  0.1341 -0.1106  0.0392
 7156W        W23417   3.464  11.328  12.998  0.0572  0.1393  0.2865
 7157W        W23418   4.419   5.323   2.552  0.2750 -0.0436 -0.3381
 7158W        W23419   9.480   8.945  13.657  0.2545 -0.5653  0.1421
 7159W        W23420  11.928  13.315   5.341 -0.3612  0.1455 -0.4858
 7160W        W23421   5.783  18.208   2.324  0.2115  0.0953  0.0242
 7161W        W23422   2.802   4.353   5.257 -0.0973  0.2565 -0.4283
 7162W        W23423   3.125  15.531   4.455  0.1027 -0.0974  0.0879
 7163W        W23424   1.096   3.291   4.455 -0.3553  0.2223  0.2228
 7164W        W23425  15.945  17.591  13.888  0.2211 -0.0044 -0.1272
 7165W        W23426   5.606  18.159   3.562  0.0760 -0.2045 -0.1911
 7166W        W23427   6.698   6.321   0.304 -0.4321 -0.4201 -0.2960
 7167W        W23428  16.189  16.689  13.720 -0.0332 -0.1613  0.1581
 7168W        W23429  15.210   1.279  12.005  0.0683 -0.1514  0.3849
 7169W        W23430   3.741  17.061  13.619 -0.0296 -0.0217 -0.0063
 7170W        W23431  13.552   2.553  13.081  0.3135 -0.1027 -0.0631
 7171W        W23432  15.721   6.883  12.774  0.2660 -0.0532 -0.2199
 7172W        W23433  11.726   5.937  12.901  0.1824  0.1190  0.0052
 7173W        W23434  14.477   1.009   1.809 -0.1748 -0.1216  0.1753
 7174W        W23435   0.375   4.350   5.109  0.2011 -0.0211  0.0195
 7175W        W23436  10.531   3.100   1.141  0.1546 -0.0344  0.3260
 7176W        W23437   6.260   7.583  12.297  0.2263  0.1762 -0.1114
 7177W        W23438   5.652  14.507   4.911  0.1267 -0.1386 -0.3472
 7178W        W23439   2.304   3.527  14.149 -0.1726  0.0342  0.1272
 7179W        W23440  17.035  10.262   5.041 -0.3040 -0.0022  0.2681
 7180W        W23441  17.463   3.677  11.186 -0.1896  0.0473 -0.0877
 7181W        W23442  11.533   9.801  12.993 -0.1109 -0.3454  0.2772
 7182W        W23443  11.161   2.121   1.065  0.2403  0.1374 -0.0023
 7183W        W23444  15.559  18.801  11.076  0.1930  0.3918  0.1452
 7184W        W23445  14.049   5.524   0.895 -0.0889  0.2326  0.0894
 7185W        W23446   0.494  13.516  11.177  0.0941  0.3537 -0.2923
 7186W        W23447  17.303  17.354   4.764 -0.0234  0.0135  0.0403
 7187W        W23448   8.058   1.348   1.262 -0.0170  0.0498  0.2418
 7188W        W23449  17.605   7.691  14.684 -0.3943  0.3535 -0.0047
 7189W        W23450  14.787   1.034  13.723  0.2019  0.1748  0.3650
 7190W        W23451   3.166   8.657   4.720 -0.1409 -0.3833 -0.0717
 7191W        W23452   0.198  16.130   3.286 -0.0241 -0.1129 -0.0267
 7192W        W23453   2.323  15.359   0.537  0.1087  0.2051  0.0628
 7193W        W23454   9.395   1.475   4.251  0.0483  0.0972 -0.1625
 7194W        W23455  10.353   6.768  13.397 -0.3284 -0.2203  0.4034
 7195W        W23456  12.238   8.490  11.748 -0.3531  0.1409 -0.4962
 7196W        W23457   6.306  17.728   9.008 -0.2376 -0.3913  0.0251
 7197W        W23458   2.491  12.720  10.757  0.0898 -0.0127 -0.2491
 7198W        W23459  11.422   5.140  13.239 -0.0620  0.2037 -0.2835
 7199W        W23460  15.495  12.549   5.177  0.1872  0.1592 -0.0325
 7200W        W23461  17.953  15.260   1.928  0.2687 -0.1498  0.0569
 7201W        W23462   2.272   6.358   3.375  0.0957 -0.0600 -0.0254
 7202W        W23463  19.252  15.868   2.520  0.0024 -0.0630 -0.1624
 7203W        W23464   9.348  13.777   2.875  0.1053 -0.0671  0.3157
 7204W        W23465  12.702  17.016   4.687 -0.2185  0.1323 -0.1449
 7205W        W23466   4.120   3.963  10.171  0.0535  0.0149  0.0943
 7206W        W23467   7.665  18.998  10.531 -0.2479 -0.1242 -0.1967
 7207W        W23468   2.357  10.296   1.269  0.2301 -0.1261 -0.0324
 7208W        W23469   1.309  17.289   2.201 -0.4738 -0.1206 -0.0210
 7209W        W23470  11.546  13.984  13.215 -0.1458 -0.1785 -0.2132
 7210W        W23471   5.057  18.919  10.271  0.2264 -0.0507  0.5208
 7211W        W23472  14.882   7.369  13.946 -0.0955  0.1349 -0.1924
 7212W        W23473   2.853   6.736   0.448  0.2132 -0.0221 -0.1060
 7213W        W23474   8.024   9.418   8.941 -0.0735  0.1567  0.0271
 7214W        W23475  16.970   8.936   0.764  0.0887  0.0092  0.0720
 7215W        W23476   5.962  14.915  11.570 -0.0959  0.3963  0.0617
 7216W        W23477  19.126  14.964  12.947 -0.0827  0.0035 -0.0053
 7217W        W23478   3.802  15.200  14.586 -0.0254  0.2656  0.1480
 7218W        W23479  12.156  17.741   3.481 -0.0720 -0.3026 -0.0425
 7219W        W23480   7.338   7.054  13.427  0.3425  0.2600 -0.0165
 7220W        W23481   5.988  15.150  12.445 -0.0103 -0.1756 -0.0202
 7221W        W23482   8.046   4.133  13.825  0.0864  0.1172  0.2659
 7222W        W23483  13.601   0.535   4.872  0.0325 -0.3715  0.1246
 7223W        W23484  19.360  16.140   5.209 -0.0599 -0.2497  0.0699
 7224W        W23485   2.469  18.847   0.219 -0.1036  0.2012 -0.0103
 7225W        W23486   3.926   5.940  13.010 -0.1131 -0.2022  0.2187
 7226W        W23487  15.880  17.402  10.771 -0.1583 -0.2238 -0.0279
 7227W        W23488  15.172   5.732   0.005 -0.2019 -0.0524 -0.0879
 7228W        W23489   3.477   7.654  12.453 -0.1180 -0.1292  0.0972
 7229W        W23490  18.814  13.698   0.513  0.0655 -0.4003  0.2814
 7230W        W23491   2.674  10.287  13.232 -0.0528  0.0753 -0.1105
 7231W        W23492  19.376  17.394  12.411  0.1177  0.1322  0.0248
 7232W        W23493   2.411   3.472   1.533  0.1666 -0.0539  0.0485
 7233W        W23494  16.802   2.891   5.142  0.0718  0.1507 -0.1901
 7234W        W23495   7.932   3.981   2.324  0.2246  0.1427 -0.0417
 7235W        W23496   7.023  14.673  13.464 -0.3712 -0.1254  0.1492
 7236W        W23497  17.119   5.535  12.162  0.0498  0.3404  0.0822
 7237W        W23498  15.626   8.023   4.103  0.4366 -0.1349 -0.1233
 7238W        W23499   2.503   6.177  10.310 -0.1865 -0.2134 -0.2975
 7239W        W23500  16.848  18.384   1.896 -0.2303 -0.3991  0.1227
 7240W        W23501  17.482  18.467  14.329 -0.2516 -0.0013  0.0677
 7241W        W23502  10.064   8.139  13.020  0.0929 -0.1829 -0.0460
 7242W        W23503   6.584  18.493  13.389 -0.1181  0.1874  0.0667
 7243W        W23504   4.453   8.393   4.318 -0.0851  0.0732  0.3369
 7244W        W23505  16.270   7.088  11.551 -0.3345 -0.0749  0.0826
 7245W        W23506   9.146  17.241   3.986  0.3892  0.4287 -0.1852
 7246W        W23507   5.286  11.827  10.584 -0.3076  0.2396  0.1247
 7247W        W23508  10.454   4.633   0.770 -0.0436  0.0562  0.2817
 7248W        W23509  12.983  10.371   0.828  0.2917  0.2229  0.1568
 7249W        W23510  14.215  14.583   2.020 -0.1554 -0.0025  0.1623
 7250W        W23511  18.846  12.420  11.320 -0.0192 -0.0908 -0.0645
 7251W        W23512  11.654  11.956  13.088 -0.5313 -0.0524 -0.1386
 7252W        W23513  13.246   9.681  10.514 -0.5478 -0.0428  0.0501
 7253W        W23514   7.659  19.436  13.710  0.0341 -0.1231 -0.2044
 7254W        W23515  10.278  18.245  13.739  0.3152  0.0571  0.2204
 7255W        W23516  10.200   8.854   3.882 -0.2292 -0.0476  0.1370
 7256W        W23517   6.772  18.794  11.532 -0.1611  0.1611 -0.0565
 7257W        W23518  18.886   4.000  12.996  0.0583 -0.1014  0.0178
 7258W        W23519   5.295   3.987   1.747 -0.0082  0.1547 -0.0422
 7259W        W23520   8.100   3.364   0.670 -0.2801 -0.0848 -0.2365
 7260W        W23521   8.232  18.348  10.950 -0.0259  0.0146  0.0971
 7261W        W23522   6.012   1.138   1.641 -0.0384  0.2049 -0.0712
 7262W        W23523   9.092  15.590   0.211  0.2369 -0.3166  0.1787
 7263W        W23524  16.837  17.208   0.803 -0.0203  0.0260  0.0984
 7264W        W23525  16.303   4.932   4.037  0.1204 -0.0683 -0.0624
 7265W        W23526   2.361   3.162   1.981  0.1146 -0.2252  0.1405
 7266W        W23527   1.153  12.615  10.872  0.1831 -0.2949 -0.0043
 7267W        W23528   4.106   5.761   9.803  0.0518 -0.2259  0.2093
 7268W        W23529  14.257  16.964  13.848  0.1641  0.0898  0.0349
 7269W        W23530  13.693   9.598  11.533 -0.1494  0.2999  0.3815
 7270W        W23531  11.054   5.692   3.143  0.4136 -0.1997  0.1095
 7271W        W23532  11.062   8.257   0.633  0.1491  0.2980 -0.1322
 7272W        W23533  17.096   8.715  11.255 -0.0672 -0.1708 -0.2779
 7273W        W23534   7.812  15.734   1.064 -0.3392  0.0801  0.1290
 7274W        W23535   6.786   7.573   2.953  0.0691  0.0588 -0.1232
 7275W        W23536   4.834  14.339  10.576  0.0891 -0.2785 -0.3690
 7276W        W23537   7.038   3.460   0.730 -0.1323 -0.0884  0.0824
 7277W        W23538  11.274   9.479   0.051  0.4254  0.0102  0.0307
 7278W        W23539  16.801   7.288   0.209 -0.1038 -0.2685 -0.1979
 7279W        W23540   8.328   6.794  11.743  0.1147  0.0812 -0.0372
 7280W        W23541   9.013  18.914   0.522 -0.3833 -0.2180  0.4094
 7281W        W23542   4.297   0.578  13.743  0.0551 -0.0536 -0.3521
 7282W        W23543  16.647  14.103  14.564  0.2167 -0.0020 -0.0881
 7283W        W23544  14.481   2.691   4.455 -0.0655 -0.1113  0.0198
 7284W        W23545  10.926  15.228   0.990 -0.1032  0.0059 -0.1876
 7285W        W23546  19.156  15.813   4.462 -0.1014 -0.0878 -0.3334
 7286W        W23547   8.991  10.874  11.281  0.2214 -0.1494 -0.0175
 7287W        W23548   1.109   8.826   0.606 -0.1558 -0.2462 -0.2811
 7288W        W23549  15.925   8.391   3.910 -0.2115 -0.0091 -0.1077
 7289W        W23550   3.817   9.508   2.103 -0.3013 -0.1486  0.0817
 7290W        W23551  15.436   5.657   3.738  0.0183 -0.0470  0.2909
 7291W        W23552   7.016   5.900   0.461  0.2238 -0.1859 -0.1514
 7292W        W23553   0.908   7.378   4.878 -0.0372  0.0973  0.1954
 7293W        W23554  11.966   9.922  12.747  0.2051 -0.0719 -0.0012
 7294W        W23555   3.898   0.387  13.494 -0.1629 -0.0557  0.1078
 7295W        W23556  16.408  13.900   0.223 -0.0737 -0.4392 -0.0262
 7296W        W23557   6.286   4.189  13.714  0.1264  0.1553 -0.0517
 7297W        W23558  13.374  15.363   3.772  0.3218  0.0385 -0.2160
 7298W        W23559  18.381  10.441  10.173  0.1154  0.2737 -0.0137
 7299W        W23560   6.611   0.879   0.180  0.0042 -0.1331  0.0333
 7300W        W23561   0.617   3.004  11.673 -0.2289  0.2149 -0.2724
 7301W        W23562  11.093   4.766  11.820  0.2884  0.0168 -0.0343
 7302W        W23563   6.315  13.926  11.892  0.1450  0.1247  0.1983
 7303W        W23564   4.818   3.128  14.196 -0.0198 -0.0334 -0.2453
 7304W        W23565   1.741   6.625   2.552  0.5242 -0.1627 -0.1469
 7305W        W23566   5.633  17.171   5.574  0.2880  0.0280  0.0995
 7306W        W23567   0.933   4.132  11.015 -0.1320  0.2142 -0.2960
 7307W        W23568   8.350   4.964  10.892  0.0453  0.3235  0.0811
 7308W        W23569   2.380   5.404  11.589  0.1854 -0.3862 -0.0086
 7309W        W23570   3.529  13.166   4.706 -0.0722  0.1471  0.1220
 7310W        W23571  16.568   3.053  11.691 -0.2758 -0.0144 -0.1340
 7311W        W23572  15.743   1.646   4.546 -0.0630 -0.1406  0.0696
 7312W        W23573   2.506   7.925  13.172 -0.2463 -0.1973  0.5290
 7313W        W23574   1.795  10.402   3.817  0.0222  0.2176  0.4984
 7314W        W23575   4.001   4.653   2.752  0.0882  0.2351  0.2384
 7315W        W23576  17.068   9.706   1.900  0.2879 -0.0877 -0.0629
 7316W        W23577  14.970   5.868   1.141 -0.0783  0.0366  0.0652
 7317W        W23578  15.150  11.161  13.555  0.3594 -0.3096 -0.0930
 7318W        W23579   4.793  18.623  14.479  0.1519 -0.1034  0.1467
 7319W        W23580   0.591  15.524   2.499  0.2952 -0.0476  0.2412
 7320W        W23581  18.987   3.995   2.724 -0.0487  0.1065 -0.2626
 7321W        W23582   3.004   5.584   9.987  0.1280  0.4690  0.0751
 7322W        W23583  14.775  10.401   3.006 -0.2551  0.3555  0.0192
 7323W        W23584  10.925   1.594  10.209 -0.0685 -0.0252  0.2104
 7324W        W23585   9.852   1.158  14.232  0.4006 -0.0942  0.1326
 7325W        W23586  13.899  11.902  12.655 -0.0626  0.1221 -0.1985
 7326W        W23587  11.445   3.097  14.619 -0.0999  0.1983 -0.4496
 7327W        W23588  11.999  12.648  14.292  0.1304 -0.2708  0.0506
 7328W        W23589   5.556  14.413   0.792 -0.2385  0.0380  0.2349
 7329W        W23590  18.101  13.019   1.249 -0.1914  0.2255  0.2980
 7330W        W23591   4.679   1.838   3.334  0.0208  0.0823 -0.1587
 7331W        W23592   9.812  12.271  10.366  0.2056  0.1276  0.1711
 7332W        W23593   1.707  12.804   1.831  0.0752  0.0148  0.6489
 7333W        W23594   3.972  13.399   3.225 -0.0769 -0.3931 -0.1078
 7334W        W23595  12.600   6.150   2.091 -0.0010 -0.0391  0.0985
 7335W        W23596   0.707  14.224   0.479 -0.3255  0.0639  0.3513
 7336W        W23597   4.123   6.639  10.380  0.3060 -0.2137 -0.2088
 7337W        W23598   6.352   5.941  13.911  0.3168  0.2927  0.2114
 7338W        W23599   3.506   6.348   0.292 -0.0678 -0.0761  0.0381
 7339W        W23600   3.429  19.189   1.040  0.2727 -0.1939 -0.1447
 7340W        W23601  15.334  13.496  10.832 -0.0903 -0.0211 -0.2204
 7341W        W23602   1.745   3.929   9.560 -0.1599 -0.1041 -0.3312
 7342W        W23603   7.598   0.313   4.194  0.1134  0.2566  0.2346
 7343W        W23604  10.378   7.925   1.797 -0.1324  0.1885  0.1776
 7344W        W23605  10.302   8.957  12.543  0.4088  0.0413 -0.4928
 7345W        W23606  13.911   0.655   3.599  0.0451  0.0291 -0.1708
 7346W        W23607  10.594  11.457  14.270 -0.0065  0.3571 -0.0869
 7347W        W23608   7.823  13.393  12.993 -0.2936 -0.0492 -0.0268
 7348W        W23609   8.654  10.850   3.902  0.3746  0.0710  0.1319
 7349W        W23610   2.197   8.144  14.108 -0.3273  0.1020 -0.0161
 7350W        W23611  15.733  12.847   2.790 -0.0776  0.2405  0.2800
 7351W        W23612   5.136  14.066  13.483 -0.0595  0.3053 -0.6095
 7352W        W23613   0.710   3.317   1.979 -0.3462  0.0024 -0.2077
 7353W        W23614   9.148   2.191   4.866 -0.1451 -0.4173 -0.0046
 7354W        W23615  11.684   5.839  13.914 -0.2347  0.1153 -0.1647
 7355W        W23616   3.103   6.025   1.980 -0.0879 -0.1246  0.3943
 7356W        W23617  15.437  18.012   2.033 -0.0494  0.2802 -0.3650
 7357W        W23618  11.429   7.121  12.186  0.0564 -0.1273  0.0901
 7358W        W23619  18.801  14.564   3.866  0.3623  0.0824  0.3226
 7359W        W23620  19.297  12.508   0.266 -0.3558  0.1638  0.0157
 7360W        W23621   7.069  16.062  14.654 -0.2003  0.0147  0.0166
 7361W        W23622  19.453   5.199  12.979 -0.1831  0.2531 -0.2296
 7362W        W23623  11.962   7.520   3.704  0.3927 -0.0989 -0.3604
 7363W        W23624  16.675   6.807  11.845  0.0454 -0.3478  0.0186
 7364W        W23625   5.579   6.608   1.760  0.0533  0.0277 -0.2192
 7365W        W23626   9.876   6.941  11.744 -0.1149 -0.1751  0.0527
 7366W        W23627  11.012   2.602  12.159 -0.0766  0.1456  0.1261
 7367W        W23628   4.755   9.857   2.377 -0.1718  0.0799 -0.2456
 7368W        W23629  18.030  17.459  10.395  0.3050  0.0886  0.0391
 7369W        W23630  18.994  17.928   3.331 -0.1598 -0.1658  0.1341
 7370W        W23631  13.753   7.078   3.461 -0.2046  0.1956 -0.0051
 7371W        W23632   3.186   7.115  14.790  0.0382 -0.0762 -0.1177
 7372W        W23633   1.789  18.116  13.681 -0.1879 -0.0311 -0.2135
 7373W        W23634  12.262  18.277   1.184 -0.0110  0.1844  0.0376
 7374W        W23635   1.511  10.083  12.106  0.2581  0.4145 -0.3148
 7375W        W23636   9.286   5.108  10.753  0.0814 -0.2382 -0.1260
 7376W        W23637  12.173  11.885   1.901 -0.1711 -0.5145  0.2503
 7377W        W23638   3.949   4.250   3.014 -0.0362 -0.4343 -0.0182
 7378W        W23639   6.776   6.774  10.843  0.1060 -0.0449  0.1408
 7379W        W23640  16.155   2.703  13.085 -0.1703 -0.2564 -0.1349
 7380W        W23641  16.708   9.140  12.927 -0.1819 -0.0015 -0.1148
 7381W        W23642  15.828   7.424  12.265  0.0809  0.1289 -0.0839
 7382W        W23643   1.363   3.131  14.686 -0.2271 -0.0021 -0.2757
 7383W        W23644  18.092   4.205  12.711 -0.0159  0.1190  0.2735
 7384W        W23645  16.807  14.940  10.292  0.2683 -0.2158  0.2404
 7385W        W23646   5.811   3.131   9.524 -0.1773 -0.0137  0.1027
 7386W        W23647   9.672  17.013   4.707 -0.1372 -0.0393 -0.0696
 7387W        W23648   7.543   9.609  10.823  0.6122  0.1262 -0.1698
 7388W        W23649  12.009   7.513  10.212 -0.1390  0.2155  0.4104
 7389W        W23650  17.040   3.640   0.046 -0.1021 -0.1358 -0.2222
 7390W        W23651   7.854  17.071   2.858  0.3801  0.2439  0.0079
 7391W        W23652   3.990   2.817  10.066  0.0548 -0.1537 -0.1835
 7392W        W23653  17.498   7.878  13.110  0.2106 -0.1876  0.2167
 7393W        W23654  19.411  15.469   0.437  0.1498  0.1121  0.0406
 7394W        W23655  13.364   4.274   2.083  0.1061 -0.1457  0.1648
 7395W        W23656  18.290   6.006   0.707 -0.1339  0.1049  0.2583
 7396W        W23657   9.830   4.148   5.441  0.3158  0.1023 -0.3354
 7397W        W23658  14.849   4.613  10.489 -0.1931 -0.2580 -0.4590
 7398W        W23659   3.134  16.032   0.732 -0.0181  0.0947  0.1222
 7399W        W23660  17.682   3.011   1.302 -0.2170  0.0316  0.1480
 7400W        W23661  11.089  16.330  14.675 -0.0235 -0.1837 -0.1482
 7401W        W23662  14.015  11.752  12.183 -0.1900  0.0226  0.2122
 7402W        W23663  19.369   3.861  11.006  0.0629 -0.0632  0.3464
 7403W        W23664  18.199   5.941  11.458 -0.0020  0.2411  0.1424
 7404W        W23665  17.824  11.925  12.855 -0.0469 -0.2304  0.1758
 7405W        W23666  11.173   3.514   2.623  0.2119 -0.3692 -0.2196
 7406W        W23667  12.249   6.500   0.915  0.0790  0.1701  0.0132
 7407W        W23668   3.929  16.155  13.682 -0.4485 -0.1171 -0.0662
 7408W        W23669   2.411   3.864   0.168 -0.2025  0.0913  0.0684
 7409W        W23670   3.078  12.981   4.514 -0.1897 -0.1426 -0.1548
 7410W        W23671   1.819   7.649  13.435 -0.2714 -0.4197 -0.1861
 7411W        W23672   8.528  14.973  11.801 -0.2723  0.3879  0.0163
 7412W        W23673   5.680   9.990   3.177 -0.3257 -0.0073 -0.0390
 7413W        W23674  17.804  14.534   1.196 -0.0135 -0.0022  0.0430
 7414W        W23675   5.348   7.633  12.335  0.0507  0.1566 -0.0076
 7415W        W23676   6.252   8.187  13.417 -0.3791 -0.0538 -0.1636
 7416W        W23677   2.641  18.975   1.380 -0.0448 -0.0593 -0.2965
 7417W        W23678   7.550   3.665   2.128 -0.0866  0.0873 -0.4639
 7418W        W23679  10.335   8.588   8.886 -0.2970 -0.4584  0.2390
 7419W        W23680  12.815   1.825   2.134  0.0772  0.2038  0.2341
 7420W        W23681   6.043   0.658   1.815 -0.1576 -0.1986 -0.3712
 7421W        W23682   6.444   0.952  13.174 -0.0543 -0.2883 -0.0953
 7422W        W23683   6.263   8.584   4.894 -0.1440 -0.1523 -0.0765
 7423W        W23684  13.609  19.213   3.446 -0.0370  0.2395 -0.0977
 7424W        W23685   7.623  16.829  11.001  0.1192  0.3817 -0.0563
 7425W        W23686  17.885   1.190   2.232  0.2117 -0.0243  0.1410
 7426W        W23687  12.990   8.042   4.962  0.1628  0.0385  0.1525
 7427W        W23688  16.001  10.043   4.142  0.3177 -0.2529  0.0704
 7428W        W23689  19.129   8.824  10.929  0.3903 -0.0333  0.1045
 7429W        W23690   8.392   2.435   4.165  0.1594 -0.1380  0.2060
 7430W        W23691  13.043   2.095   2.698 -0.0655 -0.0471  0.5036
 7431W        W23692   8.803   3.636  11.768 -0.1057  0.0367  0.2727
 7432W        W23693   9.715   3.570  11.138  0.1755 -0.0381 -0.2416
 7433W        W23694  16.177  12.115   2.473 -0.1306  0.1100  0.4798
 7434W        W23695   4.749   6.580  13.154 -0.0501 -0.2470  0.0062
 7435W        W23696  14.329  15.085   2.895 -0.0938 -0.1330  0.0658
 7436W        W23697   1.609  18.286  11.879  0.1267  0.0878 -0.3741
 7437W        W23698   1.974  13.035   1.518  0.2057 -0.0021  0.1681
 7438W        W23699  18.656  11.631   4.022  0.0455  0.2291  0.1530
 7439W        W23700   8.070   6.110  10.554  0.0378  0.0477 -0.0732
 7440W        W23701   5.821   3.787   1.532 -0.1131  0.3481  0.0972
 7441W        W23702   1.334   1.493  11.865  0.2422  0.0003 -0.0951
 7442W        W23703   7.452  14.687   0.754 -0.0143  0.2918  0.0900
 7443W        W23704  15.686  17.446   3.123 -0.2428 -0.0505 -0.0709
 7444W        W23705  18.283  14.273  12.260 -0.0414 -0.0123  0.2354
 7445W        W23706   9.797   0.244   5.027 -0.0828 -0.0134  0.0649
 7446W        W23707   4.195  19.350   1.387  0.1349  0.0959 -0.1518
 7447W        W23708  14.380   5.496   1.624  0.2844  0.1239 -0.0079
 7448W        W23709  18.171   7.827  10.782 -0.2976 -0.2042 -0.0645
 7449W        W23710  10.129   8.075   0.976 -0.2023 -0.1977 -0.2132
 7450W        W23711  10.863  11.031  11.840 -0.0173 -0.0835 -0.2297
 7451W        W23712   5.335  14.391  12.481 -0.2413 -0.0515 -0.1640
 7452W        W23713  10.334  19.402   6.010 -0.0887  0.1224  0.1637
 7453W        W23714  12.655  15.631   4.397 -0.0249 -0.0812 -0.2386
 7454W        W23715  11.635   0.789   9.615  0.0059  0.1037 -0.3045
 7455W        W23716   2.478  11.209  13.006 -0.1041 -0.0713 -0.1756
 7456W        W23717  11.293  14.047   1.817  0.0753  0.0594 -0.1900
 7457W        W23718   5.095   2.955  12.132  0.0989 -0.0369  0.0679
 7458W        W23719  10.342  12.329   3.085  0.0132  0.1059  0.3415
 7459W        W23720   1.039   3.849  10.495 -0.2576  0.0761 -0.0961
 7460W        W23721  11.408  15.556   0.824  0.1207  0.1550 -0.3029
 7461W        W23722  15.263   0.179  12.436 -0.1141  0.2393  0.3999
 7462W        W23723   8.445  19.161   4.037 -0.0357  0.1893 -0.2028
 7463W        W23724  16.932  11.788  14.790  0.0265  0.4084 -0.0464
 7464W        W23725  16.799  14.458   3.965 -0.1004 -0.3420  0.0225
 7465W        W23726   6.656  18.237  13.891  0.1191  0.1575 -0.0345
 7466W        W23727  11.743   1.137  11.513 -0.0557 -0.0906  0.0478
 7467W        W23728   5.027   7.653   1.351  0.2050  0.1904 -0.0562
 7468W        W23729  16.329  13.766   4.307 -0.3014 -0.4039  0.0084
 7469W        W23730   2.179   3.465  14.685 -0.0562 -0.0683  0.2573
 7470W        W23731   9.929   3.579  10.607  0.0636  0.1192  0.1080
 7471W        W23732  12.915  18.057   4.090  0.3195 -0.3169 -0.1972
 7472W        W23733   0.847  14.518   4.574 -0.0157  0.0573  0.1553
 7473W        W23734  12.335   3.003   0.900 -0.3205  0.0414  0.0593
 7474W        W23735  14.580  10.671   0.228  0.1083  0.0318  0.2364
 7475W        W23736   9.759   2.344   0.675 -0.0754  0.1382  0.0066
 7476W        W23737  17.608  12.992  10.646 -0.1579  0.3851  0.1843
 7477W        W23738  14.455  13.668   1.518 -0.4207 -0.1288  0.0305
 7478W        W23739  11.539  12.768   3.451  0.1942 -0.1356 -0.1532
 7479W        W23740   0.590   1.421   0.565  0.0916 -0.1006  0.3072
 7480W        W23741  18.207   8.966   2.083  0.0557 -0.1816 -0.0482
 7481W        W23742  16.114   1.871  12.679 -0.2461  0.1091 -0.1906
 7482W        W23743   8.389   3.635   1.792 -0.0518  0.1920 -0.0486
 7483W        W23744   4.519  12.850   4.227 -0.4977  0.1998 -0.2197
 7484W        W23745   4.836  16.602   5.421 -0.4140  0.1406 -0.1656
 7485W        W23746   5.130  13.898   2.497 -0.0776  0.3418 -0.4043
 7486W        W23747   9.395  14.189  13.057  0.2089 -0.1288  0.1426
 7487W        W23748  16.394   8.148  14.559  0.2279 -0.1500 -0.0617
 7488W        W23749   0.335  19.349  10.968  0.0919 -0.2552 -0.2269
 7489W        W23750   6.180   3.229  11.339 -0.0254  0.1239 -0.0134
 7490W        W23751  14.847  18.182  14.589  0.0736 -0.0350 -0.4196
 7491W        W23752  13.704  14.272   3.305  0.2120  0.1011 -0.0359
 7492W        W23753   0.412  16.055  10.780 -0.0093  0.0362 -0.4838
 7493W        W23754   6.200  19.280  11.294  0.2687 -0.2176  0.1889
 7494W        W23755  16.408  12.084  11.366 -0.3058  0.1562  0.0097
 7495W        W23756   0.639  12.210  11.520  0.1105 -0.2491  0.1181
 7496W        W23757   2.250   5.016   3.736 -0.1773  0.2172  0.2123
 7497W        W23758  13.167  13.787   1.514 -0.1226  0.1966  0.1083
 7498W        W23759   5.452  10.660   0.959  0.1953 -0.1252 -0.0736
 7499W        W23760  13.968   9.167  13.543  0.1350 -0.0149  0.1212
 7500W        W23761  11.084   5.345   2.734  0.1108  0.0184 -0.2181
 7501W        W23762  11.053  17.285  14.143  0.0417  0.0925 -0.0785
 7502W        W23763   9.453  17.004  11.628  0.0026  0.0753  0.3579
 7503W        W23764   6.406  16.313  11.639  0.1575 -0.0616  0.2530
 7504W        W23765  14.889   5.906  12.705  0.1063 -0.2138 -0.1846
 7505W        W23766  18.163  18.172   1.210 -0.1595 -0.1465 -0.0063
 7506W        W23767  10.648  15.574   4.696  0.3082  0.2177  0.0707
 7507W        W23768   7.234  15.410  10.422  0.2662  0.1243  0.0849
 7508W        W23769   2.802  10.786   2.464 -0.0791 -0.2860  0.0079
 7509W        W23770   0.238  14.691  14.556 -0.3843  0.0042  0.0794
 7510W        W23771  10.739  10.389  14.234 -0.1487 -0.1529  0.0451
 7511W        W23772   9.414  15.164  12.740  0.0079  0.1258 -0.2490
 7512W        W23773  14.254  12.169   5.047  0.1790  0.1250  0.0454
 7513W        W23774   2.514   6.218   1.190  0.1855 -0.0343 -0.1521
 7514W        W23775   3.085  12.233   0.699  0.0942  0.0296  0.1134
 7515W        W23776  17.200   7.875  13.480  0.3384  0.4129 -0.1206
 7516W        W23777  18.171  17.217  11.715 -0.1158  0.0094 -0.2464
 7517W        W23778  18.097  18.517   4.138  0.1728  0.1205 -0.3000
 7518W        W23779  17.415  15.171  11.205 -0.2254 -0.2529 -0.0592
 7519W        W23780   7.878  12.737  13.440  0.5753  0.0434  0.0146
 7520W        W23781   0.979  14.700   3.950 -0.2418 -0.0270 -0.0802
 7521W        W23782  17.365  13.512  13.682 -0.0030 -0.1615 -0.2018
 7522W        W23783   3.549   7.156   1.093 -0.0670  0.0354 -0.0416
 7523W        W23784   1.794  11.155   5.075 -0.1097  0.1562 -0.3638
 7524W        W23785   1.970  12.748   2.770  0.0184 -0.2330 -0.1661
 7525W        W23786   8.235   6.831   1.367  0.3419  0.1977  0.1458
 7526W        W23787  10.531  11.840   4.033  0.0193 -0.1770 -0.0125
 7527W        W23788  11.890  17.528  12.606 -0.4324 -0.0083 -0.1431
 7528W        W23789   7.281   6.016   8.559 -0.0342 -0.2594  0.1411
 7529W        W23790  12.496  12.912  10.960  0.3844  0.1490 -0.0357
 7530W        W23791  15.547  15.676   1.886 -0.1865  0.1942 -0.1572
 7531W        W23792   8.387  18.049   1.297  0.2420  0.1333 -0.2048
 7532W        W23793   0.429   9.822   3.297 -0.0232  0.1887  0.3642
 7533W        W23794  16.352  15.833   2.894  0.1016 -0.2462  0.4550
 7534W        W23795  12.544  15.965   3.747 -0.0293 -0.2016  0.1697
 7535W        W23796  16.749   9.574   3.711  0.2896 -0.1714 -0.1723
 7536W        W23797  18.044   6.730   4.691 -0.2513  0.0564  0.0389
 7537W        W23798  10.641   1.334  14.140  0.1767  0.2914  0.0049
 7538W        W23799   7.726   5.543   0.052  0.0632 -0.2699 -0.1303
 7539W        W23800   2.641   3.345   3.276 -0.2373  0.1015 -0.0770
 7540W        W23801  13.250  18.255   2.245  0.0701  0.2749 -0.1410
 7541W        W23802   9.966  12.458   1.938 -0.0486  0.1100  0.1159
 7542W        W23803  15.856  10.833   2.373  0.0693  0.1264  0.0446
 7543W        W23804   7.285  19.248   2.611 -0.1374  0.1701 -0.0563
 7544W        W23805  19.282   8.007  10.950  0.3360 -0.1112 -0.1613
 7545W        W23806  12.822   1.240  14.674 -0.0189 -0.1893  0.1463
 7546W        W23807  16.599   3.394   1.540  0.3003 -0.2059 -0.1025
 7547W        W23808   5.794  12.143   1.582 -0.1708 -0.1414  0.4250
 7548W        W23809   1.704  12.589   4.772  0.3934  0.3095  0.0171
 7549W        W23810   0.930  12.511  12.624 -0.2589  0.1222 -0.1223
 7550W        W23811   9.009   4.148   0.779 -0.1690 -0.2654 -0.1118
 7551W        W23812  12.670  14.610  12.126 -0.0052  0.1931 -0.0943
 7552W        W23813   8.995   2.650  10.293 -0.2052  0.1132 -0.0767
 7553W        W23814  15.753   0.379   4.976  0.2266  0.0348 -0.0013
 7554W        W23815  16.281   2.638   2.774  0.5143  0.0102  0.1832
 7555W        W23816  15.297  18.343   0.793 -0.1335 -0.1568  0.0196
 7556W        W23817   2.864   3.701   1.596 -0.1949  0.0348  0.1169
 7557W        W23818  18.770   0.882   2.739 -0.3600 -0.0635  0.1905
 7558W        W23819   6.470  18.627   0.594 -0.1359  0.2189  0.1901
 7559W        W23820   6.102  13.468  11.361  0.0398  0.4140  0.0637
 7560W        W23821  17.933  14.280   3.339  0.0015  0.0976 -0.1089
 7561W        W23822  15.192  16.726  11.889 -0.2084 -0.4020 -0.0663
 7562W        W23823   6.836  19.378   2.919 -0.0639  0.0291 -0.2720
 7563W        W23824  12.240   7.781  13.210  0.1576 -0.1685  0.0484
 7564W        W23825   9.889   4.374  11.566 -0.1439 -0.0230  0.2843
 7565W        W23826   5.645  18.122   5.118 -0.3315 -0.0543 -0.0145
 7566W        W23827   9.779  17.017  14.132  0.3134 -0.3387 -0.1435
 7567W        W23828  17.745   9.439   2.601 -0.2384  0.0215 -0.1408
 7568W        W23829   2.907   1.623   0.539  0.2247  0.2447 -0.0488
 7569W        W23830   5.333  15.251   0.204  0.1497  0.0903 -0.2186
 7570W        W23831  14.631   3.551  12.191 -0.0416  0.2175  0.2362
 7571W        W23832   8.152   9.592  10.497 -0.0656  0.1754  0.2322
 7572W        W23833  12.106   4.909  12.034 -0.0775  0.1850 -0.0162
 7573W        W23834   4.458  19.113  11.564 -0.1037  0.2009  0.1437
 7574W        W23835   2.907  19.036   2.309  0.1369  0.0080 -0.0498
 7575W        W23836   3.825   7.376   0.603 -0.1738 -0.1353 -0.5495
 7576W        W23837   2.326  17.790  10.664 -0.0078  0.0370 -0.1346
 7577W        W23838  14.393   1.912   1.066  0.2879  0.0282 -0.1043
 7578W        W23839   6.548  11.041   4.307  0.0264  0.1027  0.3345
 7579W        W23840  13.639   0.569   4.061 -0.0641  0.0561  0.1334
 7580W        W23841  16.197  13.561   1.352 -0.0526 -0.2894  0.1469
 7581W        W23842  18.428  15.548   3.835  0.0497 -0.0530  0.0197
 7582W        W23843   9.643  13.379  12.817  0.0012  0.1056  0.4467
 7583W        W23844   5.300   9.215  11.033  0.0280  0.0120 -0.5106
 7584W        W23845   6.002   9.706  12.297 -0.1684  0.1105  0.0061
 7585W        W23846  19.165  12.084  11.137 -0.0049 -0.1443  0.1215
 7586W        W23847  14.581  11.073   9.578 -0.1867  0.1732  0.2869
 7587W        W23848   3.054   4.538   2.158 -0.2739  0.4172  0.0438
 7588W        W23849  11.971   1.004   2.660  0.2780 -0.0048 -0.0720
 7589W        W23850   5.522   5.859  13.927  0.2357 -0.3288  0.2407
 7590W        W23851  18.172   8.044  12.891  0.0223  0.0332 -0.1185
 7591W        W23852   3.901   4.410  11.323  0.3100  0.0814 -0.0947
 7592W        W23853   8.358  14.620  11.323  0.2358  0.1127  0.0902
 7593W        W23854   8.230   4.357  10.005  0.3215  0.0106  0.1380
 7594W        W23855  19.037   3.569   1.753 -0.0873 -0.2166  0.0080
 7595W        W23856   8.966  10.532   1.534 -0.0783 -0.1099  0.2082
 7596W        W23857  18.557   1.731  12.657 -0.6573  0.3674  0.2595
 7597W        W23858  17.396   9.960  13.945 -0.1141 -0.0441 -0.0966
 7598W        W23859  11.870   7.656   1.530  0.0094  0.1367 -0.1268
 7599W        W23860  11.021   7.881  12.148  0.0251 -0.1905 -0.1009
 7600W        W23861  10.690   6.717  11.747 -0.0333 -0.0359  0.0915
 7601W        W23862   8.877  19.268  11.423  0.0805 -0.0235 -0.1612
 7602W        W23863   3.276  15.796   9.461 -0.0662 -0.1816 -0.1164
 7603W        W23864  13.914  13.382   5.241  0.1004  0.1399  0.0026
 7604W        W23865  17.639  12.540  12.022 -0.2400 -0.1628  0.0573
 7605W        W23866   6.545  10.051   2.047 -0.0341 -0.0447  0.0335
 7606W        W23867  10.584  13.110  14.121  0.1559  0.0691  0.1249
 7607W        W23868   6.400  15.411   4.047  0.0160  0.2796  0.0730
 7608W        W23869  12.053   9.616   2.485 -0.2794  0.0106 -0.0237
 7609W        W23870  13.385   5.143  10.787 -0.2522  0.0548  0.0208
 7610W        W23871  16.666   9.111   3.501  0.0035  0.0641 -0.0020
 7611W        W23872  19.233  14.487  11.281  0.1233 -0.2678 -0.0661
 7612W        W23873   0.586   6.420   1.949  0.2781  0.2444 -0.4305
 7613W        W23874   0.330  11.638   1.265 -0.5555 -0.1039  0.1766
 7614W        W23875   2.023  10.123  13.020 -0.2442 -0.0309 -0.1668
 7615W        W23876   3.345  13.895   2.364 -0.0383  0.3388 -0.0901
 7616W        W23877  17.186   9.044  11.688  0.1577 -0.0692  0.2124
 7617W        W23878  12.456   3.909   4.644 -0.0999 -0.0309 -0.0781
 7618W        W23879   7.517  17.775   0.906 -0.1423  0.0238 -0.0094
 7619W        W23880   7.938   6.407   2.484  0.1397  0.1350 -0.3300
 7620W        W23881  14.360  12.799  12.037 -0.0244 -0.0765  0.0614
 7621W        W23882  13.406   6.756  10.228 -0.0589 -0.3632 -0.1272
 7622W        W23883  10.014  14.589   4.989 -0.0143 -0.1847  0.2814
 7623W        W23884   8.896  13.793   0.103  0.1007 -0.4347 -0.1276
 7624W        W23885   0.659  14.263   2.698 -0.1298 -0.1879 -0.0779
 7625W        W23886  18.368  16.742   3.560 -0.2925  0.2191  0.0799
 7626W        W23887   2.503  10.394   4.786 -0.0195 -0.1468 -0.0068
 7627W        W23888   2.959   3.916   5.353 -0.1504 -0.0200  0.0744
 7628W        W23889   0.773   7.336   3.166 -0.0022 -0.3101 -0.1211
 7629W        W23890  17.888   4.938   1.225 -0.0687  0.0689  0.2926
 7630W        W23891  15.533   5.344   0.010  0.1628 -0.3704 -0.0301
 7631W        W23892   1.376  11.522   1.238 -0.0736 -0.1304 -0.0573
 7632W        W23893   4.738   7.976  12.156  0.2956  0.0719  0.3833
 7633W        W23894  11.162  12.709  11.426 -0.2205  0.0358 -0.2799
 7634W        W23895   7.688  14.844   3.688  0.0595 -0.1063  0.2097
 7635W        W23896  15.319  17.205  11.653 -0.0335  0.1403  0.1313
 7636W        W23897   3.023   2.484   9.790 -0.3046  0.0283 -0.2601
 7637W        W23898  14.013   8.998  14.099  0.0574 -0.1196 -0.0379
 7638W        W23899   9.926  10.046   2.565  0.3438 -0.0687  0.0645
 7639W        W23900   2.519   7.405   2.016 -0.2703  0.3176  0.0314
 7640W        W23901   4.716   8.747   2.884 -0.0991  0.1587  0.2025
 7641W        W23902   9.439  16.540   0.832 -0.0101  0.2930 -0.1013
 7642W        W23903  11.882  11.856   5.750  0.2462  0.4698  0.0634
 7643W        W23904  11.793  10.635  13.110  0.0678 -0.0315  0.2092
 7644W        W23905   2.506   2.134   2.617 -0.2903 -0.0734  0.4474
 7645W        W23906   0.352  14.368  11.058 -0.1100 -0.2614  0.1013
 7646W        W23907   4.489   5.862  11.877  0.1140 -0.2155  0.0661
 7647W        W23908  11.007   2.655  13.176 -0.0307 -0.0227 -0.3488
 7648W        W23909   0.406  14.825   4.821 -0.1415  0.0371  0.0135
 7649W        W23910  13.432  12.561   2.447  0.1087 -0.0384 -0.2803
 7650W        W23911  18.242   6.524   2.233 -0.0490 -0.2230  0.0624
 7651W        W23912   6.151   3.017   0.925 -0.0552  0.1725  0.1236
 7652W        W23913  15.605  18.395   6.180  0.0835  0.1251 -0.0258
 7653W        W23914  12.067  11.967  13.595 -0.1633  0.0738  0.0708
 7654W        W23915   6.946  10.215   3.158 -0.0071  0.0502 -0.2066
 7655W        W23916   1.404   9.125  13.150 -0.1247  0.1784 -0.0007
 7656W        W23917   3.244  12.674   4.087 -0.0262 -0.2141  0.0601
 7657W        W23918   0.343  11.266  10.160  0.3571  0.3833  0.0142
 7658W        W23919   2.715   6.042   1.640 -0.1547 -0.1765 -0.3096
 7659W        W23920  18.196   2.784  13.445 -0.1817  0.2472 -0.1505
 7660W        W23921  18.544   2.038  14.042  0.1321  0.0334  0.1904
 7661W        W23922  12.526  18.237   5.620  0.1798  0.1957  0.1037
 7662W        W23923   9.561  15.834   1.899 -0.3760  0.2393  0.1133
 7663W        W23924  14.328  18.742   4.224 -0.3313 -0.1477  0.3066
 7664W        W23925   6.194   5.666  12.407  0.3047  0.2022  0.1076
 7665W        W23926   5.792   2.572   9.393  0.4725 -0.0928  0.2304
 7666W        W23927  15.786   5.203   2.641 -0.2906 -0.1568 -0.0811
 7667W        W23928   8.726  12.412  14.303  0.1630  0.0661  0.0562
 7668W        W23929  11.102   7.485   1.852  0.2966  0.2462 -0.2261
 7669W        W23930  10.870  10.357   0.581 -0.0383 -0.4073  0.0523
 7670W        W23931   4.513  14.546   1.581 -0.1574 -0.2525  0.0705
 7671W        W23932  17.357  11.212   4.578 -0.3014 -0.1449 -0.3414
 7672W        W23933  10.319   9.911  12.579  0.1133 -0.2400  0.1190
 7673W        W23934   3.971  14.004  12.781 -0.2580 -0.0136 -0.1569
 7674W        W23935   1.127  14.285   4.220  0.0303 -0.1290 -0.0635
 7675W        W23936  12.360  13.030   5.520 -0.0086 -0.0656  0.0965
 7676W        W23937  13.221   6.894  11.143 -0.5471 -0.2805 -0.0762
 7677W        W23938   7.957  13.275  13.503  0.4223 -0.4755  0.1933
 7678W        W23939  18.934   0.188  12.182 -0.1926 -0.2630 -0.0816
 7679W        W23940   5.837   4.615   3.444  0.3431 -0.0233 -0.0144
 7680W        W23941   4.693   2.041  14.426  0.3429  0.0067 -0.0974
 7681W        W23942   4.506   0.156  14.055 -0.3376  0.1246 -0.2771
 7682W        W23943   6.229  15.433   4.867 -0.1060  0.0226  0.0189
 7683W        W23944  19.168   3.006   0.677 -0.0910 -0.2822 -0.3171
 7684W        W23945  13.367  15.153   1.787  0.5080 -0.1727  0.0675
 7685W        W23946  13.651  11.121  14.491 -0.1273  0.4203 -0.0166
 7686W        W23947  18.585   4.964   4.112 -0.0045 -0.0976  0.3303
 7687W        W23948  13.986   9.050  10.854 -0.0348 -0.0535  0.2525
 7688W        W23949   9.260  11.036   3.502  0.3956 -0.0905 -0.2193
 7689W        W23950   4.669   0.603   0.369 -0.0587 -0.0614  0.1646
 7690W        W23951  10.759   9.365  13.133 -0.1779  0.1223 -0.1469
 7691W        W23952  12.147  14.350   0.382  0.0107 -0.0973  0.1777
 7692W        W23953   6.444   3.751  13.847 -0.1124  0.2247  0.2183
 7693W        W23954  15.858   2.976   0.564 -0.1758 -0.1709  0.3536
 7694W        W23955   8.502  13.656  11.064 -0.1068 -0.3280  0.1171
 7695W        W23956   9.703  17.219  14.593 -0.0899 -0.2134  0.2382
 7696W        W23957   5.178   9.888   1.776  0.1375 -0.2532  0.1451
 7697W        W23958  14.865   2.701  10.365 -0.0590  0.0013  0.1759
 7698W        W23959  16.735   6.450   0.462 -0.0701 -0.1440  0.6428
 7699W        W23960   3.376   5.357  10.408 -0.0660  0.2932 -0.0657
 7700W        W23961   1.943   4.555  13.845  0.4397  0.2077 -0.0862
 7701W        W23962   1.944   2.812  10.969 -0.1777 -0.1259  0.5107
 7702W        W23963  14.698   9.844  10.396  0.0815 -0.0843  0.0046
 7703W        W23964  14.182   0.661   2.059 -0.1698  0.0245  0.1956
 7704W        W23965   6.196  17.518  10.244  0.1062 -0.2674 -0.2423
 7705W        W23966  11.104  11.675   0.104 -0.1030 -0.3415  0.0361
 7706W        W23967   1.210   5.067  11.485  0.0802 -0.4528 -0.1133
 7707W        W23968  12.311   5.176   2.478  0.1566 -0.2452  0.1515
 7708W        W23969   5.641   2.469   2.064  0.1902 -0.3026 -0.2293
 7709W        W23970   6.073  10.310   3.412 -0.0226 -0.0057  0.1937
 7710W        W23971   7.713  10.191   4.258  0.0985  0.0339 -0.0778
 7711W        W23972   6.704  12.625  11.191  0.0286 -0.0514  0.3164
 7712W        W23973   5.538   7.173  12.237 -0.0883 -0.1125 -0.1297
 7713W        W23974  13.361  17.080  12.073 -0.0993 -0.0389  0.2391
 7714W        W23975   1.850   5.961   2.247 -0.3185  0.0074 -0.0352
 7715W        W23976  17.050   4.207   4.032 -0.1500 -0.0974  0.0466
 7716W        W23977   7.860  12.539   2.472  0.0388  0.1637  0.3950
 7717W        W23978  16.100   4.373  13.245 -0.3994 -0.0044  0.1411
 7718W        W23979   7.020   1.057   0.454 -0.2251 -0.1265  0.1393
 7719W        W23980   3.774  10.331   3.627  0.1000  0.0332 -0.1527
 7720W        W23981  10.625  18.639  14.494  0.0423  0.1226  0.0970
 7721W        W23982  18.746   3.842   4.226  0.2161 -0.0028 -0.0624
 7722W        W23983  11.076  17.082   4.051 -0.2948  0.1213 -0.1234
 7723W        W23984  12.635  14.789  10.999  0.1638  0.0548 -0.0384
 7724W        W23985   7.603  10.218   1.191 -0.2453  0.1452 -0.0091
 7725W        W23986  19.088  12.920   4.173  0.0755 -0.0213  0.0501
 7726W        W23987   6.329   8.743   0.969 -0.2035  0.1266  0.2057
 7727W        W23988   1.599   1.156  12.266  0.0025  0.0932 -0.0009
 7728W        W23989  11.563  12.462  13.065  0.1870  0.0741  0.1201
 7729W        W23990   3.853   3.612   2.342 -0.0681 -0.0920 -0.3123
 7730W        W23991   9.241   6.027  12.112  0.0900  0.3769  0.2017
 7731W        W23992  13.933   0.300  14.784  0.1821 -0.1552 -0.1128
 7732W        W23993  16.448  18.621   5.011  0.1143  0.0325  0.3241
 7733W        W23994  15.653  15.673  12.984  0.5615 -0.2273 -0.1644
 7734W        W23995   7.545   9.181   0.261 -0.0543 -0.2500  0.2015
 7735W        W23996  17.201  10.260   0.596 -0.2082  0.0557  0.2620
 7736W        W23997  15.064  13.353   5.059  0.2746 -0.0805  0.1943
 7737W        W23998  15.100   9.150   2.377 -0.0223  0.0734  0.0330
 7738W        W23999   1.566  16.359   1.355 -0.2574 -0.2336  0.0030
 7739W        W24000   7.457   7.896   0.214  0.0181 -0.2482  0.1296
 7740W        W24001   0.264  13.749   9.612  0.0588 -0.0307 -0.0119
 7741W        W24002   0.190  14.057   4.153 -0.0605  0.0450  0.2836
 7742W        W24003   9.395   6.132  11.516  0.1044 -0.1211 -0.2763
 7743W        W24004   7.133   5.136  13.196  0.4860 -0.0836 -0.0134
 7744W        W24005  19.015  11.559  11.261 -0.2985  0.1562 -0.1711
 7745W        W24006   2.025  11.971   0.018  0.1587 -0.4566  0.0195
 7746W        W24007  19.074  15.501  13.683 -0.0645  0.2862 -0.0371
 7747W        W24008   8.787  17.723   1.307 -0.1134  0.1505  0.0383
 7748W        W24009   0.961  16.839   3.563  0.1004 -0.0879 -0.3498
 7749W        W24010  10.504   0.758  12.789  0.0094  0.0006 -0.0997
 7750W        W24011  17.437   5.833   4.899  0.2514  0.2307  0.0198
 7751W        W24012  18.006  14.675  13.633 -0.0476  0.0236 -0.1162
 7752W        W24013   5.221   3.752  13.654 -0.2621 -0.1412 -0.0052
 7753W        W24014   4.990  12.664   3.404 -0.1646  0.0221  0.3125
 7754W        W24015  14.078   1.351   2.544 -0.1378  0.2174 -0.0579
 7755W        W24016   7.874  15.309  10.506 -0.0390  0.2916 -0.1128
 7756W        W24017  11.252   1.165   4.262  0.0513  0.3073 -0.1859
 7757W        W24018  14.537  15.751   2.273  0.1454 -0.0852 -0.3044
 7758W        W24019  13.791  12.779  13.613 -0.0079  0.1002  0.0726
 7759W        W24020  14.349  16.626  12.318 -0.0592 -0.0725 -0.3431
 7760W        W24021   1.967  13.673   0.873  0.0368  0.0405  0.1538
 7761W        W24022  10.458  18.645   4.326  0.3027 -0.2119  0.1577
 7762W        W24023  13.341   8.387   0.630 -0.1707 -0.0951 -0.1764
 7763W        W24024   9.831  19.146   3.809  0.0130 -0.1648  0.0798
 7764W        W24025   0.497   7.005  14.023  0.1305  0.1313  0.0464
 7765W        W24026   0.855   6.606   1.558  0.2536 -0.0148 -0.1117
 7766W        W24027  14.196  12.855   4.168  0.1816  0.1578 -0.3552
 7767W        W24028   1.354   4.093  11.787  0.1286  0.1115 -0.0679
 7768W        W24029  15.596  14.128   1.648  0.1886 -0.1188 -0.2470
 7769W        W24030   3.771   8.652   0.462 -0.1588 -0.2533 -0.0566
 7770W        W24031  14.729  17.553   1.507  0.4077 -0.1412 -0.0595
 7771W        W24032  13.340  14.875  10.575 -0.0293 -0.1833 -0.0792
 7772W        W24033  12.192   2.824   5.327  0.2024 -0.0675 -0.0924
 7773W        W24034  16.391   2.099  11.336 -0.2483  0.1068  0.3182
 7774W        W24035   5.642  14.918   9.849  0.0497 -0.2628  0.1832
 7775W        W24036  19.004   2.771   0.252  0.3648 -0.1085  0.0189
 7776W        W24037   2.420   9.656  14.486  0.0751  0.2811 -0.2084
 7777W        W24038   8.362   7.699   9.805 -0.1589  0.1598  0.0577
 7778W        W24039  14.394   9.880  14.338  0.0781 -0.0956 -0.1908
 7779W        W24040  12.360   8.476   2.270  0.4057  0.2359  0.1259
 7780W        W24041  17.833   9.450   1.232 -0.1068  0.0811 -0.2821
 7781W        W24042  15.699   2.445  13.161  0.1366 -0.1595 -0.2331
 7782W        W24043  18.897  16.036  14.442  0.2232  0.0114 -0.1499
 7783W        W24044   4.717  16.122  13.236  0.4779  0.1156  0.0519
 7784W        W24045  18.015   4.213   5.530  0.0576 -0.2014 -0.2189
 7785W        W24046  11.040  13.748   5.308 -0.2795 -0.0107  0.2264
 7786W        W24047  13.310  11.886   2.640  0.0389  0.1781 -0.0216
 7787W        W24048   6.899   1.504   1.920 -0.3368 -0.1235 -0.3364
 7788W        W24049  15.967   9.926  12.160 -0.2688 -0.1704 -0.0443
 7789W        W24050   1.611   7.002   4.165  0.1273 -0.0637  0.0271
 7790W        W24051   4.336   3.892   1.759  0.0566  0.0925  0.3757
 7791W        W24052   7.348   3.678  13.314  0.1407  0.1626  0.0501
 7792W        W24053   8.286   7.984   2.100 -0.0161  0.0020 -0.1928
 7793W        W24054   9.226   3.949  11.916 -0.0870 -0.0532  0.0545
 7794W        W24055   6.016   9.671  10.938  0.2777 -0.0088  0.1708
 7795W        W24056  10.027   2.093  12.608  0.1929 -0.0423  0.3423
 7796W        W24057  19.230   1.077   2.757 -0.0798 -0.1371  0.0173
 7797W        W24058   9.240   4.418  11.750 -0.0886  0.1147 -0.1838
 7798W        W24059   5.667  12.652  11.618 -0.2339  0.2178  0.1872
 7799W        W24060  11.979   5.079   0.493 -0.2062  0.0806  0.0418
 7800W        W24061   0.373  13.908  13.170  0.4429 -0.0683  0.2809
 7801W        W24062  18.328   7.871   4.221  0.0904  0.5023  0.1233
 7802W        W24063   8.626   5.335   0.431 -0.0020 -0.2383 -0.0261
 7803W        W24064  18.243  10.196  11.878 -0.0024 -0.1377 -0.0081
 7804W        W24065   0.756  16.391  11.423  0.1106  0.0118 -0.1103
 7805W        W24066   2.216  17.420  10.045  0.0197 -0.1092 -0.0241
 7806W        W24067   0.573  13.599   0.124  0.0019  0.0309  0.4376
 7807W        W24068  17.865   3.132  11.352  0.0178 -0.3610 -0.2607
 7808W        W24069  18.222  10.398   3.818 -0.0419  0.1062  0.0090
 7809W        W24070  12.481   3.367   2.101  0.4014 -0.0933 -0.1838
 7810W        W24071  10.060   1.063  10.439  0.0643  0.1618 -0.1112
 7811W        W24072   0.092   8.191   0.842  0.1676 -0.0280 -0.0736
 7812W        W24073   1.055  11.693   1.578  0.0818 -0.2809 -0.2723
 7813W        W24074  16.999   3.365  12.114  0.1280  0.2231 -0.0810
 7814W        W24075  19.300   6.504  14.677  0.4414  0.3212  0.1583
 7815W        W24076   8.274  12.285  11.152  0.0666  0.0267 -0.1754
 7816W        W24077   0.154  18.229  10.315 -0.2648  0.3244  0.2901
 7817W        W24078  11.826  19.170   2.702  0.1176  0.3629 -0.1587
 7818W        W24079   5.608   4.502   9.735 -0.1571  0.3646  0.0204
 7819W        W24080  14.666  19.428   6.125  0.1046 -0.1865 -0.0057
 7820W        W24081   9.850   7.019  11.004  0.1763 -0.2854 -0.1933
 7821W        W24082   5.476   7.207  10.613 -0.1381 -0.3344  0.2781
 7822W        W24083  12.856  10.597   4.566 -0.0894  0.1271  0.1593
 7823W        W24084   9.206  15.233   0.622 -0.0108  0.1339 -0.3074
 7824W        W24085   1.044   2.859  11.391  0.2955  0.0916 -0.1246
 7825W        W24086   5.990  13.036  10.364 -0.2483 -0.0367 -0.3169
 7826W        W24087  18.785  14.265  14.099 -0.0130  0.0444 -0.0069
 7827W        W24088   9.388   9.997  10.295  0.0585 -0.0869  0.1145
 7828W        W24089  13.368  10.122  14.674  0.1746 -0.0222  0.0824
 7829W        W24090  16.998   6.198  10.139  0.0592  0.1698 -0.2488
 7830W        W24091  18.371   7.756  11.257 -0.2165 -0.2833  0.1152
 7831W        W24092  14.210  10.799  11.178  0.5097  0.1950  0.3747
 7832W        W24093   8.061  11.861  13.063 -0.0069 -0.4833  0.0376
 7833W        W24094   8.856   6.989  11.239  0.3532 -0.1971  0.0436
 7834W        W24095   8.709   9.158   2.667 -0.1127 -0.1013 -0.5482
 7835W        W24096   5.972   4.955  13.206 -0.0821  0.0015 -0.3171
 7836W        W24097   4.828  19.475   1.312 -0.4333 -0.2699 -0.0333
 7837W        W24098   2.982   3.160   3.635 -0.0244  0.2471  0.1310
 7838W        W24099  17.855   2.122   3.620  0.0405  0.1311  0.0867
 7839W        W24100   4.796   5.098   9.611 -0.0546  0.1310  0.0816
 7840W        W24101  11.401   9.505   3.139  0.2253  0.1335  0.1140
 7841W        W24102  15.852   5.145   1.279 -0.3421 -0.0412  0.2244
 7842W        W24103   6.737   5.420   2.771 -0.0488  0.0710 -0.1136
 7843W        W24104  18.399   8.361  13.272 -0.1027  0.1955 -0.0063
 7844W        W24105  12.762  16.651  13.192  0.1411  0.0031 -0.0454
 7845W        W24106   9.298   7.742  12.747 -0.1304 -0.0662 -0.1222
 7846W        W24107   1.992   2.895   3.921  0.2000 -0.3195 -0.0547
 7847W        W24108  11.241   4.592  11.298  0.1514 -0.1387  0.3678
 7848W        W24109  10.082  10.862  12.516  0.1771 -0.1005 -0.2547
 7849W        W24110   2.938  15.437  14.641 -0.1117  0.1987  0.0190
 7850W        W24111  10.021   7.389  10.115 -0.2186 -0.0053  0.0223
 7851W        W24112   1.480   9.463  12.761 -0.2358  0.1843 -0.1339
 7852W        W24113  17.013  16.447   2.646 -0.2417  0.0177  0.0180
 7853W        W24114  17.750   7.760   2.223 -0.2002 -0.4146  0.1192
 7854W        W24115   0.171   1.004  12.616  0.2482 -0.4384 -0.0284
 7855W        W24116   7.340   1.049  12.642 -0.0476 -0.3166  0.1539
 7856W        W24117   6.050   7.263   1.734  0.1332 -0.2832 -0.2386
 7857W        W24118   0.249   3.683   0.695 -0.0278  0.3983 -0.1664
 7858W        W24119  12.761   4.959   3.664 -0.0097  0.0119  0.0814
 7859W        W24120  12.617   7.828   4.291 -0.3693 -0.2165  0.0872
 7860W        W24121  12.645   3.207  12.895 -0.1695  0.2089  0.1817
 7861W        W24122  17.853  11.973  10.698 -0.2979  0.5362 -0.0246
 7862W        W24123   3.313  11.491   1.598  0.2579 -0.2595  0.1320
 7863W        W24124  12.627  10.414  11.375 -0.1090 -0.0062  0.0063
 7864W        W24125   7.122  14.077  14.809 -0.3031 -0.2020  0.3007
 7865W        W24126  14.282  19.147  10.604  0.0654 -0.1695 -0.0632
 7866W        W24127   2.690   3.687  12.121 -0.2910 -0.1128 -0.2872
 7867W        W24128   2.647   1.132  10.995  0.1636 -0.0269  0.3123
 7868W        W24129   0.079   5.469   0.796 -0.0460 -0.0478 -0.1844
 7869W        W24130   4.099   3.969   2.614 -0.2720 -0.0850  0.1123
 7870W        W24131   1.038   1.587  10.897 -0.1094 -0.3786 -0.0105
 7871W        W24132   4.605   3.190   2.204 -0.0209  0.1288 -0.1002
 7872W        W24133   3.633  12.928  14.341 -0.1075 -0.1480 -0.1173
 7873W        W24134   3.074  15.485  12.833 -0.1100  0.1549 -0.3969
 7874W        W24135   1.367  14.048  13.440  0.0241  0.2931 -0.2321
 7875W        W24136   2.336   8.610   4.246 -0.2109 -0.0848  0.0720
 7876W        W24137  15.182  12.158   4.256  0.2566  0.2012  0.1079
 7877W        W24138  12.860  11.154  12.089  0.0459 -0.1455  0.0799
 7878W        W24139  11.337  11.958  13.935 -0.3423 -0.3124  0.3417
 7879W        W24140  11.356   8.679   0.956  0.0879  0.2042  0.3056
 7880W        W24141  15.092  16.660   0.911 -0.2238 -0.1179 -0.0933
 7881W        W24142  12.904  13.085  11.291 -0.0029  0.3817  0.2618
 7882W        W24143   9.783   0.788   1.185 -0.0411 -0.0148  0.0742
 7883W        W24144   4.576  16.334  11.285 -0.0830 -0.0943 -0.4375
 7884W        W24145  10.323   5.869  12.884 -0.0166  0.4024 -0.0718
 7885W        W24146  12.581  18.606   9.929 -0.0799  0.3860  0.0867
 7886W        W24147  11.181  16.965  11.369  0.4107 -0.0087 -0.0695
 7887W        W24148   3.367  14.604  12.058 -0.2188 -0.1792  0.2470
 7888W        W24149   3.716   5.493   2.953 -0.2673 -0.0630  0.0335
 7889W        W24150   1.627   3.814   3.223  0.0272  0.2882  0.1010
 7890W        W24151  10.329   4.667  10.530 -0.2747  0.1325 -0.0839
 7891W        W24152   5.244  17.053  11.729  0.1890  0.2072  0.1659
 7892W        W24153  11.338  17.777   0.965  0.0548 -0.2783 -0.1003
 7893W        W24154  16.712  15.435  10.852  0.0683 -0.1959  0.3411
 7894W        W24155  15.895   8.160  14.615  0.0095  0.1189 -0.0622
 7895W        W24156   5.577  16.117   0.974 -0.1619  0.1039  0.1932
 7896W        W24157   0.704   9.045  10.643 -0.2159 -0.1667  0.2579
 7897W        W24158   3.495  11.949   0.324 -0.1015 -0.1619 -0.3147
 7898W        W24159   9.232   8.948  10.480 -0.0592 -0.1899  0.0011
 7899W        W24160   0.673   4.900  12.602 -0.1881 -0.0552 -0.0665
 7900W        W24161   9.432   0.029   1.033  0.1235  0.2837  0.0095
 7901W        W24162  12.113   3.553   2.939 -0.2979  0.1006 -0.0556
 7902W        W24163  10.945   9.360   1.896  0.0055 -0.3654 -0.1789
 7903W        W24164  17.721  15.694   0.957 -0.1941  0.3801 -0.0943
 7904W        W24165   6.188  18.141  10.130 -0.0886 -0.0968 -0.4304
 7905W        W24166   7.774  18.110   4.109 -0.2973  0.1634  0.1742
 7906W        W24167   0.994   5.301   0.859 -0.3079  0.1558 -0.1651
 7907W        W24168   5.317   3.409   1.790  0.0050 -0.0516  0.3149
 7908W        W24169  17.343  11.166   3.522  0.0247  0.0272  0.2536
 7909W        W24170   7.229  10.508   1.347 -0.0120  0.0451  0.0545
 7910W        W24171   7.522  12.386   1.833 -0.1331 -0.3049  0.3285
 7911W        W24172   0.957  13.289  13.454  0.1918 -0.0700 -0.4215
 7912W        W24173   6.605   0.753   4.878  0.3062 -0.0911  0.1096
 7913W        W24174  12.769   0.968  13.437  0.2829 -0.0313  0.2835
 7914W        W24175   6.419  15.481  12.826 -0.0410  0.0363 -0.0212
 7915W        W24176  14.302   1.041   0.329  0.0172 -0.2076  0.5083
 7916W        W24177   2.849   0.854   2.533  0.0880  0.2393 -0.0793
 7917W        W24178  16.626   2.790   0.361 -0.1969 -0.0030  0.1506
 7918W        W24179  15.045  16.867   1.409  0.2082 -0.0849 -0.0750
 7919W        W24180  16.807  10.165  13.984  0.3127 -0.1046 -0.2384
 7920W        W24181   5.212  10.826  10.919  0.0119 -0.2238 -0.0090
 7921W        W24182   8.825   6.887  11.702 -0.3614 -0.0304 -0.1807
 7922W        W24183   8.052   7.503  10.187 -0.0270 -0.0676 -0.1350
 7923W        W24184  12.979  12.494   1.454  0.0775 -0.0801 -0.1042
 7924W        W24185   8.550  13.244   2.420  0.0137 -0.1703 -0.1484
 7925W        W24186  17.367  10.881   2.570  0.3689  0.0907 -0.4120
 7926W        W24187  18.291  10.976   2.337 -0.1946  0.1842  0.1978
 7927W        W24188  12.726   1.355   1.263 -0.2955  0.0525  0.1726
 7928W        W24189   9.472  13.236   0.714  0.3469  0.0373 -0.2017
 7929W        W24190   8.086  13.508   4.662 -0.4234  0.1111 -0.0846
 7930W        W24191  17.452  13.454  10.985 -0.1363  0.0670 -0.2521
 7931W        W24192  10.844   0.361   3.971 -0.1618 -0.0713  0.2565
 7932W        W24193  12.652   4.044   9.693 -0.1292 -0.2195 -0.2832
 7933W        W24194  10.598   8.529  14.155 -0.2184 -0.1108 -0.0785
 7934W        W24195  11.659   7.910  12.792 -0.0079 -0.0077  0.2123
 7935W        W24196  10.339   6.614   2.828 -0.1451 -0.0648  0.3382
 7936W        W24197   6.276   6.863  14.545 -0.2179 -0.1175 -0.1155
 7937W        W24198  10.888   0.044   3.249 -0.0216  0.0373  0.1402
 7938W        W24199   9.238  18.360   3.089  0.1800  0.0091  0.0540
 7939W        W24200   9.344   5.563  12.858 -0.2063 -0.3513 -0.2074
 7940W        W24201   1.651  12.157   5.008 -0.0519  0.2016 -0.0241
 7941W        W24202  19.406  18.316  13.374 -0.1958 -0.1242  0.0094
 7942W        W24203   4.740   7.025   0.056 -0.0343 -0.4160  0.0922
 7943W        W24204   9.306  11.386   4.945 -0.2432 -0.1166 -0.4531
 7944W        W24205  13.271   4.005   3.159  0.1041  0.0721 -0.0216
 7945W        W24206  15.456   9.054   5.419 -0.3996  0.0119 -0.1759
 7946W        W24207   0.717  11.604   5.978  0.2114 -0.0029 -0.0542
 7947W        W24208   6.247  16.801   0.878  0.1905  0.1681 -0.1395
 7948W        W24209   7.713  10.039   0.728  0.0275  0.1981  0.1702
 7949W        W24210  10.703   3.538  11.139  0.1712 -0.0502  0.1186
 7950W        W24211  10.775   6.540  12.201  0.3371 -0.0679  0.4412
 7951W        W24212   3.103   5.275  12.129  0.2341  0.1172 -0.1359
 7952W        W24213   3.573  13.304   1.792  0.0084  0.1547  0.1550
 7953W        W24214   7.438   8.764   9.804 -0.2004 -0.0336 -0.0150
 7954W        W24215  11.274   6.193  13.351 -0.0067  0.1323  0.3085
 7955W        W24216  10.909  12.622   5.197  0.0061  0.0580 -0.0116
 7956W        W24217   2.951   2.357   2.596 -0.0898 -0.3421  0.2005
 7957W        W24218   7.754  18.396   4.699 -0.0239  0.3534 -0.1310
 7958W        W24219  19.107   0.491   4.515  0.0146  0.1877  0.2796
 7959W        W24220  16.532   5.028  13.077 -0.0011  0.4095  0.0612
 7960W        W24221   1.617  11.737   4.662  0.0827  0.0095 -0.0694
 7961W        W24222  18.700   9.251   3.648  0.0160  0.0179 -0.0128
 7962W        W24223  11.723   6.294   1.597  0.0153 -0.2336 -0.3506
 7963W        W24224  14.418  13.076  14.329  0.4256  0.2908  0.4621
 7964W        W24225  13.661  11.374   0.503  0.4254  0.1485  0.0365
 7965W        W24226  16.843  16.066   4.446  0.2632 -0.0337  0.0753
 7966W        W24227  18.095   1.571   3.591  0.3990 -0.0709 -0.4204
 7967W        W24228  10.980   3.459   3.725 -0.1607  0.0123 -0.0443
 7968W        W24229  14.322   2.121   5.074 -0.0038  0.0551 -0.0635
 7969W        W24230   7.718  12.383  11.820  0.2871 -0.1532 -0.0666
 7970W        W24231  10.660  14.842   4.083  0.1986  0.2387 -0.1191
 7971W        W24232  19.278   9.301   3.774  0.1532  0.0363  0.1541
 7972W        W24233   5.615   9.824  13.950  0.0001  0.0114 -0.1468
 7973W        W24234  16.401  12.439   5.302 -0.0630  0.2890 -0.5777
 7974W        W24235   2.892   5.096   9.871  0.3592  0.1031 -0.3583
 7975W        W24236   9.569   5.587   3.877  0.0022 -0.3170 -0.2926
 7976W        W24237   9.204  15.364  13.565  0.0886 -0.3020  0.3505
 7977W        W24238  10.915   8.201   3.347 -0.1596  0.1637 -0.1991
 7978W        W24239  10.304   5.962  13.923 -0.3109  0.0313  0.0074
 7979W        W24240   1.151   4.306   9.673  0.1680  0.0789  0.1078
 7980W        W24241  14.524   2.846   1.442 -0.1428  0.0832 -0.0981
 7981W        W24242  13.227   9.618   2.995 -0.1756  0.1155 -0.1900
 7982W        W24243  16.260  15.570  12.443  0.0728  0.0834  0.0092
 7983W        W24244   0.430  14.126  11.806 -0.1239  0.0378  0.2370
 7984W        W24245   8.228   8.490   3.887  0.0956 -0.1915  0.3661
 7985W        W24246   2.752  16.913   0.876  0.2773  0.0514  0.3488
 7986W        W24247   9.866  16.112  11.152 -0.0350  0.3297  0.1512
 7987W        W24248   6.305  13.882   4.148 -0.4610  0.2116  0.0321
 7988W        W24249  13.968   1.685  14.546  0.1366  0.1554  0.2615
 7989W        W24250  19.355  13.238   4.473 -0.3389 -0.3333 -0.1204
 7990W        W24251  12.909  13.624  10.472  0.1542  0.3478  0.4263
 7991W        W24252  12.742   8.525   0.165 -0.1958 -0.1479 -0.4512
 7992W        W24253   9.741   5.326   4.264  0.1943 -0.2061 -0.0361
 7993W        W24254  10.488  11.991   5.399 -0.4148 -0.2000  0.0809
 7994W        W24255  15.539  10.174  13.631 -0.0635  0.1160  0.3181
 7995W        W24256  17.171  19.149   3.267 -0.0270 -0.3953 -0.0205
 7996W        W24257  19.477   8.678  12.430 -0.0127 -0.1048  0.0504
 7997W        W24258  15.789   8.362  10.443 -0.0812 -0.0435  0.0956
 7998W        W24259   6.847  14.695   2.887  0.2009  0.1805 -0.2327
 7999W        W24260   1.080  13.490   1.348  0.2271 -0.3161  0.4050
 8000W        W24261   8.706   0.250   0.312 -0.0248 -0.2065  0.1961
 8001W        W24262   9.770   5.338  14.693  0.0545 -0.2514 -0.2096
 8002W        W24263  12.678   0.894  12.171  0.0018 -0.1142  0.2237
 8003W        W24264  10.176  13.883  13.217  0.0799 -0.0815 -0.1334
 8004W        W24265  10.866   8.064  11.710 -0.1860 -0.2390  0.1709
 8005W        W24266  16.582   4.850   2.887  0.3501 -0.1336  0.0557
 8006W        W24267   4.234  13.770   2.863 -0.1499  0.0486  0.2230
 8007W        W24268  12.802   4.219  12.100 -0.1869 -0.1418  0.0341
 8008W        W24269   3.536   6.825   3.196  0.0216  0.0334 -0.0287
 8009W        W24270   7.539  14.111  11.201 -0.0035  0.0058 -0.2373
 8010W        W24271  19.295   2.757   2.072 -0.3383  0.0654 -0.0105
 8011W        W24272  18.412  15.419   2.210 -0.0491  0.0870  0.1165
 8012W        W24273   9.771   9.296  14.708 -0.0428  0.2699 -0.1250
 8013W        W24274  10.309  10.685   5.637 -0.0924  0.0751  0.0383
 8014W        W24275   7.041   0.126  11.600 -0.0177 -0.2399 -0.0348
 8015W        W24276   9.542  16.821  12.330  0.3130 -0.2426 -0.1925
 8016W        W24277  19.200  12.609   0.750 -0.1553 -0.0203  0.2497
 8017W        W24278  14.723   5.100   2.864 -0.0186 -0.1626  0.1119
 8018W        W24279   3.298  17.744   0.994 -0.2595 -0.1370  0.1987
 8019W        W24280  12.497  14.391   3.121  0.2408 -0.4441  0.2443
 8020W        W24281   5.749  18.330   0.269 -0.1845  0.0222 -0.0494
 8021W        W24282  14.907   8.150   5.328 -0.3125 -0.0302 -0.0451
 8022W        W24283  15.598  10.426   1.960  0.2526 -0.0421 -0.1134
 8023W        W24284   3.134  18.345   3.580 -0.0992 -0.2588  0.1320
 8024W        W24285  12.390   7.148   2.488  0.1924  0.1415 -0.3241
 8025W        W24286  18.879   7.866  12.536  0.0180 -0.0376  0.2600
 8026W        W24287  15.817   4.996  13.746 -0.1179  0.1562 -0.0163
 8027W        W24288  19.417   3.823   1.979 -0.0063 -0.0584 -0.3407
 8028W        W24289  13.676   8.353   0.194  0.3117 -0.0621  0.1159
 8029W        W24290   1.265   7.916  10.388  0.0425  0.0725  0.0610
 8030W        W24291   2.714   8.291  14.230  0.2496  0.2647  0.0036
 8031W        W24292  18.540  12.955   0.010  0.0422 -0.1926 -0.0459
 8032W        W24293  18.336   6.901  10.399  0.0578 -0.2155  0.3040
 8033W        W24294   8.042   5.094   4.284  0.0613  0.1023  0.0215
 8034W        W24295   6.663   6.509   3.055 -0.1388  0.1782 -0.3616
 8035W        W24296  10.944  11.651  13.953 -0.0520 -0.0987  0.0348
 8036W        W24297  15.462  11.780   2.185 -0.3127  0.5332  0.0753
 8037W        W24298  18.109   2.933  12.176 -0.0478  0.1035 -0.3436
 8038W        W24299  10.837  10.715   2.745  0.1076 -0.1358  0.2284
 8039W        W24300  19.103  11.883   5.046 -0.0111 -0.0776  0.0197
 8040W        W24301  11.239   6.089   1.568  0.1291 -0.0674 -0.1249
 8041W        W24302  19.334   0.327  14.323  0.0454  0.1548 -0.0691
 8042W        W24303  12.022  19.023  14.433 -0.0031 -0.2872  0.0323
 8043W        W24304   0.006  14.065   4.691 -0.1547  0.0462 -0.2474
 8044W        W24305   5.222  15.250   4.003  0.2108 -0.2279 -0.0908
 8045W        W24306   7.247  10.547   0.077  0.3409  0.1156 -0.0399
 8046W        W24307   6.990  17.232   3.277  0.0597 -0.0101  0.0073
 8047W        W24308  18.502   9.979  12.963 -0.1091  0.0187  0.0591
 8048W        W24309  13.986  14.501   1.294 -0.3151 -0.2099  0.2170
 8049W        W24310   5.711  13.019   5.869  0.2589  0.3596 -0.2144
 8050W        W24311   0.948  16.392   2.703  0.1247 -0.1597  0.2012
 8051W        W24312  11.280   9.420  10.270  0.1300  0.2543 -0.0286
 8052W        W24313   7.550   7.936   1.215  0.1476 -0.1839  0.2684
 8053W        W24314   1.432  10.851   1.944  0.0117  0.3504 -0.0990
 8054W        W24315   0.209  16.696   2.289 -0.2320 -0.1158  0.1356
 8055W        W24316  17.731   9.378  10.982 -0.2896  0.2240  0.1844
 8056W        W24317   9.212   9.030  12.341 -0.0156  0.1639  0.0914
 8057W        W24318   6.678   1.882  12.475  0.0431 -0.2182 -0.1263
 8058W        W24319  16.579  14.369  10.794 -0.3261  0.1641 -0.0770
 8059W        W24320  18.793  18.761  11.985 -0.0658  0.1271  0.0547
 8060W        W24321  18.747  13.702  13.961 -0.1071  0.1460 -0.0707
 8061W        W24322   9.825   6.357   2.825 -0.2274  0.2412 -0.1853
 8062W        W24323  11.062   7.203   2.837 -0.1143 -0.1324 -0.1272
 8063W        W24324   0.905   7.357   1.403  0.0782 -0.3694  0.2060
 8064W        W24325  13.569  19.155  13.602  0.0991 -0.0021  0.1429
 8065W        W24326  19.290   3.204   3.707  0.2689 -0.3303 -0.0791
 8066W        W24327  13.212   9.035   3.788 -0.1381 -0.0487 -0.2170
 8067W        W24328  11.745  17.661  13.114  0.1752  0.1208  0.4811
 8068W        W24329   5.255   5.548  12.838 -0.1672 -0.0729 -0.0138
 8069W        W24330   7.650  17.704  14.440 -0.1035 -0.4774 -0.2132
 8070W        W24331  14.191   6.846   1.848  0.0155  0.2901 -0.2672
 8071W        W24332  12.913   9.219   9.358  0.2769 -0.0825  0.3236
 8072W        W24333   3.664   2.485   2.097  0.1043  0.4369  0.1026
 8073W        W24334  12.508  16.796   1.800  0.0542 -0.0917  0.2251
 8074W        W24335  11.565  16.817  11.717  0.5593  0.2638  0.0499
 8075W        W24336  11.283   8.973  14.696  0.0689 -0.1645 -0.0975
 8076W        W24337  11.813   8.570  10.392 -0.0141  0.0598 -0.0992
 8077W        W24338  10.973  19.018  14.051 -0.0578 -0.2810  0.2840
 8078W        W24339   7.633  12.782  11.052  0.2543 -0.0723  0.0177
 8079W        W24340   6.314  11.473  12.101 -0.2863 -0.4127 -0.2945
 8080W        W24341   4.875  16.532   1.379  0.1019 -0.0093 -0.0267
 8081W        W24342   8.185  18.210  14.154  0.3660 -0.0644  0.1042
 8082W        W24343   8.277  16.377  11.505 -0.0527 -0.0682 -0.0584
 8083W        W24344  13.112  14.779   1.591 -0.1041 -0.0480  0.0014
 8084W        W24345   8.210   0.975  13.766  0.1833 -0.1483 -0.0242
 8085W        W24346   2.045   7.717  14.484 -0.1650  0.1213  0.2220
 8086W        W24347   1.891  10.015   4.150  0.0190 -0.1051  0.1261
 8087W        W24348   3.082   6.649   2.542  0.2614 -0.3410  0.0854
 8088W        W24349  13.383   4.556  12.265 -0.1638 -0.2024 -0.0095
 8089W        W24350   0.895   2.577   0.833  0.0531  0.1362 -0.3257
 8090W        W24351  14.054   1.889   1.483  0.2160  0.1833  0.2269
 8091W        W24352   4.743   0.161   4.046  0.1682 -0.4327 -0.0891
 8092W        W24353   5.828  15.646   4.661 -0.0706 -0.5393 -0.0566
 8093W        W24354  15.342  13.571  13.233  0.1631 -0.3678 -0.2065
 8094W        W24355   4.843   7.764   4.077  0.0835 -0.0011  0.0909
 8095W        W24356  14.242  17.428   2.893  0.0137  0.0581  0.5054
 8096W        W24357   9.160   4.651  13.780  0.0874  0.2145 -0.0038
 8097W        W24358  13.650   9.061   4.020 -0.2915  0.0273  0.3286
 8098W        W24359  17.316  15.325  14.014  0.0540 -0.3393 -0.1474
 8099W        W24360   9.736   6.555  10.138  0.1476 -0.1852  0.0524
 8100W        W24361   2.875   5.051   1.612 -0.1419 -0.3107  0.3134
 8101W        W24362  13.649   8.343  14.016 -0.2688  0.1039  0.1558
 8102W        W24363  17.641   5.454   0.556 -0.0901 -0.2612  0.2014
 8103W        W24364  10.335   1.566   0.673  0.0782  0.2935  0.0965
 8104W        W24365  11.383  15.425  13.018  0.0877  0.0580  0.2247
 8105W        W24366  10.006  13.654  14.254 -0.1822 -0.0940  0.1366
 8106W        W24367  16.242   2.589  13.898 -0.1987  0.1680  0.0710
 8107W        W24368   1.918   7.468   3.822 -0.4943  0.2163  0.1816
 8108W        W24369  16.169   5.924  13.222 -0.1215  0.0280 -0.0509
 8109W        W24370  12.392   9.353   2.833 -0.1012  0.4343  0.2971
 8110W        W24371  14.487   2.195   1.425  0.0518 -0.2487 -0.0700
 8111W        W24372  13.744  13.598  14.497  0.2620  0.3566  0.1370
 8112W        W24373  11.327  11.616   5.277 -0.1593 -0.0605  0.0722
 8113W        W24374   1.865  16.100   1.686  0.0763  0.1521  0.1348
 8114W        W24375  17.996  18.611  10.855 -0.2964 -0.2582  0.1135
 8115W        W24376   2.066   6.027  11.004  0.4895 -0.3322 -0.0973
 8116W        W24377   2.581   0.607   4.307  0.0296  0.1509 -0.3429
 8117W        W24378   3.887  13.370  11.909 -0.1003  0.0052 -0.0650
 8118W        W24379   4.449  11.562   0.372 -0.2615  0.0775 -0.0801
 8119W        W24380   7.936  12.511  11.441  0.0238  0.1127  0.0033
 8120W        W24381  15.109   4.843  10.888 -0.2573 -0.1559  0.3242
 8121W        W24382   7.191   0.660   4.330 -0.4138 -0.0043 -0.0807
 8122W        W24383   7.793  19.098  13.312  0.1987 -0.0380  0.0888
 8123W        W24384   1.548  16.257   5.104  0.0042 -0.0730  0.1629
 8124W        W24385   3.905  17.748   2.142  0.3128  0.1259  0.0258
 8125W        W24386  11.742  18.953  12.858  0.0282  0.1596 -0.0502
 8126W        W24387   8.082   5.236   9.617 -0.0770  0.1044  0.0775
 8127W        W24388  16.036   7.771  10.482  0.2481 -0.3183 -0.0391
 8128W        W24389   0.939  13.249   0.866  0.0966 -0.4744  0.1565
 8129W        W24390   9.383  16.675   0.108  0.0443  0.3470  0.3354
 8130W        W24391  10.706  13.298  13.628 -0.1014  0.0936  0.0768
 8131W        W24392  18.236  18.542   3.335 -0.1577 -0.1069 -0.0282
 8132W        W24393  11.713   9.775   0.859 -0.0743 -0.0386 -0.0648
 8133W        W24394   3.983   7.882   2.414 -0.3242 -0.0166  0.1580
 8134W        W24395  18.959   7.438   1.132  0.0762  0.1407 -0.0276
 8135W        W24396  17.308   7.565  14.107 -0.1069  0.0211 -0.2486
 8136W        W24397  19.176  14.269   2.276  0.0934 -0.0601  0.1717
 8137W        W24398  19.203   6.838  11.800  0.0670 -0.1082  0.1129
 8138W        W24399  12.502   2.385  14.148 -0.2161 -0.1956  0.3023
 8139W        W24400  16.197   9.497   0.154  0.1700 -0.2103  0.0378
 8140W        W24401   8.113   0.585   3.296 -0.0445  0.0341  0.0929
 8141W        W24402  10.412   6.591   0.797 -0.0365 -0.0308  0.1785
 8142W        W24403   0.623   9.158   0.661 -0.0608 -0.1968  0.2903
 8143W        W24404   7.694   5.287   9.298  0.2788  0.0533 -0.0008
 8144W        W24405  18.221  17.311  13.318  0.2160  0.1637  0.1781
 8145W        W24406  18.069   3.911   3.281 -0.0887  0.0396  0.0696
 8146W        W24407   3.211   9.521  11.638  0.2955  0.2453  0.3857
 8147W        W24408  12.305  10.194  10.546 -0.0602  0.0597 -0.2529
 8148W        W24409   6.833   6.348  13.253 -0.4005  0.4650  0.1870
 8149W        W24410  18.627   6.239   2.247 -0.0181  0.1750  0.0345
 8150W        W24411   3.111   8.205   3.554 -0.1547  0.1004 -0.0217
 8151W        W24412   4.013  18.054   2.534 -0.4966 -0.1131  0.1460
 8152W        W24413   8.212  13.027   4.332  0.0941 -0.2789 -0.2230
 8153W        W24414  13.582  13.510   3.185  0.2590  0.1261 -0.1809
 8154W        W24415  15.051   3.433   0.950  0.4772 -0.1188  0.0439
 8155W        W24416  15.380   2.363  12.689  0.0601  0.2521  0.0760
 8156W        W24417   0.834   4.291  11.821 -0.3219 -0.0288  0.1350
 8157W        W24418   0.344   1.179   1.058  0.2433 -0.1785  0.2675
 8158W        W24419  13.932   8.713   1.849  0.2520 -0.1072  0.1673
 8159W        W24420  14.277  16.638   0.912 -0.1400 -0.3902  0.1793
 8160W        W24421   9.149  17.592  12.346  0.1435 -0.1214  0.0501
 8161W        W24422  16.299  18.326   2.280  0.1503  0.2696 -0.3374
 8162W        W24423   9.503   6.169   9.502 -0.1466 -0.2302 -0.2684
 8163W        W24424  13.196   4.165   9.870 -0.1018 -0.0804 -0.0420
 8164W        W24425  11.131  14.565   2.177  0.1420 -0.0084 -0.1156
 8165W        W24426  14.165   5.978  14.719  0.1481  0.1518 -0.1029
 8166W        W24427  13.691   6.446  10.576  0.0051  0.0445 -0.2344
 8167W        W24428  16.364  18.092  10.708 -0.3313 -0.3427  0.2337
 8168W        W24429   8.633  14.867   2.483  0.1699 -0.0594 -0.0316
 8169W        W24430  12.027   2.910  11.900  0.1090 -0.2665  0.2213
 8170W        W24431  16.661   2.403   0.097 -0.0294  0.1657 -0.1633
 8171W        W24432   3.478   1.352  13.069 -0.1278 -0.2824 -0.0526
 8172W        W24433   2.530  19.090  14.554 -0.2814  0.0064  0.1433
 8173W        W24434   3.927  19.296  12.353 -0.0724 -0.2557 -0.2652
 8174W        W24435  10.879  19.273   0.130 -0.0194  0.1801 -0.0570
 8175W        W24436  19.294  14.421  14.364  0.2083 -0.0015 -0.1922
 8176W        W24437   3.510   9.317  12.013 -0.4494 -0.1050  0.1519
 8177W        W24438   5.144  15.303   3.476 -0.0314 -0.0125  0.0457
 8178W        W24439   5.927  14.599   2.258  0.1472  0.2837  0.3569
 8179W        W24440   8.185  14.160  14.542 -0.1119  0.2615  0.2156
 8180W        W24441   3.746   3.975  10.544 -0.3954 -0.1146  0.0493
 8181W        W24442  11.397  16.185  12.371 -0.0211 -0.1008  0.0380
 8182W        W24443   8.022  11.398  10.776 -0.0805  0.1412  0.1393
 8183W        W24444  18.748   2.668   0.675 -0.0074 -0.0073 -0.3831
 8184W        W24445  16.390   6.075  13.614 -0.2377  0.2719 -0.0144
 8185W        W24446  17.901   5.662  10.250 -0.0281  0.5040  0.2659
 8186W        W24447   3.956  11.419   2.725  0.2648 -0.2741  0.3807
 8187W        W24448   7.642  12.047  12.562 -0.3728  0.2528 -0.0863
 8188W        W24449   3.643   5.091  13.068  0.1656  0.1333 -0.0034
 8189W        W24450   9.595  17.209   1.630 -0.0717 -0.1120 -0.1069
 8190W        W24451  18.422   1.788   2.655  0.1828 -0.1318 -0.0015
 8191W        W24452   2.064   1.559   8.635  0.0946  0.1372 -0.0626
 8192W        W24453  19.262   3.738   0.430  0.2206 -0.2800 -0.0677
 8193W        W24454   9.440  19.036   0.156  0.0352  0.0071 -0.2443
 8194W        W24455  16.972   9.062   5.240  0.1122  0.1524 -0.0628
 8195W        W24456  15.847   2.448  13.652 -0.5365  0.3494 -0.2775
 8196W        W24457   8.759  17.230  13.864 -0.0532 -0.2695  0.0715
 8197W        W24458  15.672   8.518  12.761 -0.2013  0.0706  0.0747
 8198W        W24459  19.379  14.811  11.651 -0.1280  0.0113 -0.0621
 8199W        W24460   3.387  13.735  11.198  0.2207  0.0921 -0.1253
 8200W        W24461   1.103  15.834   0.211  0.1436  0.1366 -0.1383
 8201W        W24462  11.822  10.055   2.724  0.2139 -0.0225 -0.1828
 8202W        W24463   1.029   7.245  11.377  0.2476 -0.2504  0.2144
 8203W        W24464   5.472  11.355  11.481  0.1888 -0.2007 -0.3953
 8204W        W24465  12.599   6.437   4.574  0.3588  0.0622  0.2651
 8205W        W24466   8.759   5.946   1.178  0.0305 -0.2504  0.0857
 8206W        W24467  13.413   2.298  14.265 -0.0376  0.1102  0.2858
 8207W        W24468  19.137   6.039   3.061  0.0573  0.3844  0.2040
 8208W        W24469   5.584  19.251  14.744  0.0663  0.1606  0.1047
 8209W        W24470   6.226  19.308  14.713 -0.1070  0.3311  0.0272
 8210W        W24471   0.429   0.704  13.970  0.1393 -0.2659  0.1421
 8211W        W24472   2.469  17.105  13.079  0.1964 -0.1058 -0.1473
 8212W        W24473   8.361   8.244   2.606  0.1530 -0.0104 -0.0951
 8213W        W24474   5.846  11.051  10.430 -0.4943 -0.1498 -0.0025
 8214W        W24475  18.408  15.218   4.873  0.2792  0.0825  0.0643
 8215W        W24476  12.385   6.672  14.355  0.4762 -0.1280  0.2348
 8216W        W24477   2.041   0.526  14.408 -0.2271  0.0258  0.5996
 8217W        W24478  12.984  12.859   2.278  0.0244 -0.3721 -0.1522
 8218W        W24479  17.813  14.545   5.281  0.1356 -0.3395 -0.1270
 8219W        W24480   1.753   5.951  12.631  0.0333 -0.1916  0.0372
 8220W        W24481   5.864  12.378   3.638  0.1435 -0.0972 -0.1325
 8221W        W24482  10.359  16.659  13.992 -0.0222 -0.0654 -0.1232
 8222W        W24483   6.169  12.046   1.861  0.0006  0.1232  0.0449
 8223W        W24484  16.172   5.547   1.262 -0.0951  0.1542 -0.1074
 8224W        W24485  12.285  10.223  12.967 -0.1313 -0.0400 -0.0769
 8225W        W24486  14.953  16.867  14.553  0.4209  0.3341 -0.1039
 8226W        W24487  15.730   3.526  10.654 -0.1351  0.0575 -0.0165
 8227W        W24488  10.806   2.887   0.051  0.1200 -0.3139  0.0970
 8228W        W24489  13.454  10.865  13.334 -0.4482  0.2319  0.0406
 8229W        W24490   6.785  14.103  14.164  0.1109  0.0315 -0.0776
 8230W        W24491   3.789  14.226  12.213  0.1859  0.0557  0.0398
 8231W        W24492   3.671   8.364  12.375  0.2392  0.0714  0.3496
 8232W        W24493   6.363   9.789  13.900  0.0025  0.0395  0.2035
 8233W        W24494   6.071  16.995   0.455  0.2937 -0.2131  0.2458
 8234W        W24495  12.791   6.704   4.183  0.1335 -0.0475  0.2071
 8235W        W24496  10.773  15.707  11.725  0.0463 -0.0464  0.2176
 8236W        W24497  18.631   2.261   2.376  0.0382  0.0144  0.2631
 8237W        W24498   8.086  10.957  14.680 -0.4376 -0.0604  0.0829
 8238W        W24499  17.855  19.414  11.851 -0.0415  0.2853 -0.0115
 8239W        W24500  18.341   1.268  12.777 -0.2000 -0.0353  0.0047
 8240W        W24501  11.313  14.254  13.671 -0.0017  0.1660  0.1108
 8241W        W24502  12.826   6.654  11.200  0.0446  0.1226  0.1219
 8242W        W24503  14.563  19.105  12.062  0.0471 -0.1716 -0.0664
 8243W        W24504  11.734   7.872   2.456 -0.0161 -0.3724 -0.1446
 8244W        W24505  16.775   9.868  14.479  0.3412  0.1218  0.1553
 8245W        W24506  12.284   0.845  10.760  0.0205 -0.2931 -0.0381
 8246W        W24507   3.217   9.832   1.646 -0.2261 -0.0821 -0.2983
 8247W        W24508  14.778  18.949   1.314  0.3208  0.2960 -0.3630
 8248W        W24509   5.829   4.302  13.980 -0.4166  0.1513 -0.0753
 8249W        W24510  16.096  12.446   3.407  0.3009  0.1188  0.2773
 8250W        W24511   8.563  12.291   2.472 -0.0540 -0.0173  0.1576
 8251W        W24512   1.999  17.385  12.410  0.2440  0.1335  0.1118
 8252W        W24513   1.048   7.848   0.686  0.0942 -0.1353 -0.3370
 8253W        W24514   0.245   1.970   4.267 -0.0111 -0.0673 -0.3342
 8254W        W24515  10.444   4.395  12.645 -0.1301 -0.1962  0.1797
 8255W        W24516   2.623  10.103   0.404 -0.1738 -0.0905  0.1724
 8256W        W24517  11.782   0.999  10.922 -0.0534  0.0097 -0.0753
 8257W        W24518   3.018  12.825  12.460 -0.3256  0.2411  0.3929
 8258W        W24519   8.227   8.141   4.410 -0.3248 -0.0576 -0.4582
 8259W        W24520   6.314  16.657   5.939  0.2444 -0.1290  0.1964
 8260W        W24521  10.496   4.713   2.435  0.0371 -0.0352 -0.3106
 8261W        W24522  14.609   2.186  13.960  0.1791  0.0877  0.2876
 8262W        W24523   3.318   0.964  10.506 -0.2276  0.1215  0.0446
 8263W        W24524   8.349  16.817  13.835  0.1563  0.2055 -0.0888
 8264W        W24525   2.558  11.434   4.696  0.2052  0.0694 -0.0598
 8265W        W24526  13.656   9.700   4.577 -0.0068 -0.1167  0.0835
 8266W        W24527  10.056   5.391   2.259  0.2236  0.1921 -0.3676
 8267W        W24528  13.729   7.549   0.751 -0.2713  0.0637 -0.0737
 8268W        W24529   2.031  19.235   3.001 -0.3717  0.0373  0.0854
 8269W        W24530   6.152   9.316   0.108  0.2652 -0.0716  0.1886
 8270W        W24531  17.860   6.762  14.440  0.1212  0.1098  0.0485
 8271W        W24532   4.362  15.061  11.177  0.1867  0.0722  0.0391
 8272W        W24533   7.348   9.042   2.922  0.1837  0.0852  0.1289
 8273W        W24534  14.835  15.082   1.481 -0.1274  0.0324 -0.1080
 8274W        W24535   0.348   4.059   1.743  0.1353  0.3533 -0.3218
 8275W        W24536   0.371   3.183  12.731 -0.0603 -0.0145  0.1339
 8276W        W24537   7.831   7.993   1.705 -0.1357 -0.0348 -0.1176
 8277W        W24538   7.510  18.884   3.799 -0.1755  0.1098  0.2915
 8278W        W24539   4.348  15.243   2.789 -0.4368 -0.1981 -0.0008
 8279W        W24540  15.720   8.923  11.705 -0.4595 -0.1401  0.2135
 8280W        W24541  12.305  16.898   3.814 -0.0486 -0.1323 -0.2238
 8281W        W24542   6.814   4.179   0.509 -0.0655 -0.0325 -0.0169
 8282W        W24543  11.897  13.806   5.560  0.2422  0.0951  0.1374
 8283W        W24544  16.747  13.992   5.058 -0.0511  0.1399  0.0041
 8284W        W24545  16.905   4.835   2.049  0.0302 -0.0322  0.2127
 8285W        W24546  10.262   8.944   0.713 -0.2138  0.0802  0.0200
 8286W        W24547   5.227  10.523   4.752 -0.2121 -0.0040  0.1599
 8287W        W24548   2.869  11.792  10.302 -0.2622 -0.0791  0.3989
 8288W        W24549   3.398   9.746  12.822  0.2515  0.2262 -0.1578
 8289W        W24550  11.582   5.110  11.262 -0.1288 -0.1725  0.1120
 8290W        W24551   5.209   3.107  14.591  0.0875 -0.0036  0.0004
 8291W        W24552  17.818  15.509  11.877 -0.1112 -0.1588 -0.1916
 8292W        W24553   8.857   5.130  14.438  0.0380  0.2209 -0.2004
 8293W        W24554  14.058   9.521   1.687 -0.1694 -0.0673 -0.0214
 8294W        W24555  12.304  16.028   2.366 -0.1321 -0.1536  0.0959
 8295W        W24556   6.364   6.102   4.436  0.0337 -0.0264  0.0704
 8296W        W24557   5.806   5.278   9.720 -0.2010  0.0476  0.4098
 8297W        W24558   7.004  18.583  13.729 -0.1626 -0.3567  0.0956
 8298W        W24559   4.588   5.342  14.561  0.1995  0.2578 -0.2920
 8299W        W24560  16.335  16.085   2.153 -0.2499  0.0166  0.0149
 8300W        W24561   5.529  13.283   4.216  0.0141  0.2740  0.3301
 8301W        W24562   5.191  19.240  13.525 -0.0624  0.0788 -0.2598
 8302W        W24563   4.124   7.902   1.255  0.2052  0.0302  0.1052
 8303W        W24564   8.254  15.637   1.353 -0.0119  0.1294  0.1504
 8304W        W24565   1.709   9.097  14.558  0.1014 -0.0447  0.0991
 8305W        W24566   6.776   9.926  10.581 -0.0494 -0.0757 -0.1745
 8306W        W24567  10.838  10.928   4.172  0.1569  0.1643  0.1891
 8307W        W24568   1.645  14.488   0.829  0.0203 -0.1670 -0.0209
 8308W        W24569  13.816  17.054  12.249  0.3426 -0.2725 -0.0908
 8309W        W24570  19.344  10.205  13.627 -0.0012  0.1935  0.1120
 8310W        W24571  19.061  12.061   4.044  0.2275 -0.0575 -0.1707
 8311W        W24572  12.086  11.239   4.792 -0.1175  0.2556  0.2247
 8312W        W24573   2.353  11.265   0.917  0.0592 -0.4333 -0.0163
 8313W        W24574  13.863   5.504  11.180  0.0621  0.3280 -0.2624
 8314W        W24575   8.135   9.234   0.183 -0.3607 -0.3081  0.0803
 8315W        W24576  12.611  12.033  13.659  0.0011  0.2771  0.0159
 8316W        W24577   8.291   3.159   0.260 -0.0200 -0.0892 -0.1885
 8317W        W24578  17.523  17.926   2.238 -0.2179  0.0676 -0.0615
 8318W        W24579   1.583  15.447  11.294  0.3370 -0.2611  0.0607
 8319W        W24580   3.409   8.347   0.262 -0.2091 -0.1663 -0.3624
 8320W        W24581  13.149  15.270  13.872  0.1150 -0.0174  0.3097
 8321W        W24582   9.622   4.389  13.125  0.2846  0.0241  0.0421
 8322W        W24583   4.190   7.440  10.955  0.2652 -0.0365 -0.1430
 8323W        W24584   7.179   2.253   1.378 -0.0274 -0.1593  0.1545
 8324W        W24585   7.845   8.199   0.921 -0.0360  0.0790 -0.1083
 8325W        W24586   6.837  13.222  12.040  0.1177  0.0939  0.2563
 8326W        W24587  17.753   1.743   2.174 -0.1604  0.1536 -0.3793
 8327W        W24588  15.011  16.385  11.505 -0.0102  0.0482  0.1588
 8328W        W24589   9.258  18.618  12.783 -0.0365 -0.0103  0.2532
 8329W        W24590  16.093   4.626   3.237 -0.4456  0.1547 -0.0260
 8330W        W24591  14.851   7.157   2.415  0.0794  0.4041  0.2024
 8331W        W24592  15.422  12.238  13.408  0.1691 -0.0633  0.1077
 8332W        W24593   9.385  14.420  10.280 -0.1575  0.0828 -0.3403
 8333W        W24594  16.013  14.304  14.310 -0.0500 -0.1195  0.1632
 8334W        W24595  14.702   4.533  11.006  0.0519 -0.0799  0.2367
 8335W        W24596   8.702   4.828  13.942  0.4700 -0.0072  0.1648
 8336W        W24597  19.007   5.665   0.458 -0.2067 -0.0317 -0.0898
 8337W        W24598   5.814   8.183   0.182 -0.1753 -0.3584 -0.0906
 8338W        W24599   8.950   7.757  14.637 -0.1601 -0.1329 -0.2675
 8339W        W24600   7.142   1.236   1.583 -0.1597 -0.1481 -0.1851
 8340W        W24601   9.168   3.194  13.495  0.1202 -0.6185 -0.0935
 8341W        W24602   7.960   3.403   2.051 -0.2181 -0.0604  0.1679
 8342W        W24603   5.294  14.186   5.255 -0.3186 -0.1711 -0.0198
 8343W        W24604  15.495  18.623   2.533  0.3642  0.2529  0.0899
 8344W        W24605   4.275   2.036   0.056  0.0322 -0.2192  0.0433
 8345W        W24606   8.086   6.817  12.848 -0.0801  0.3604  0.0188
 8346W        W24607  16.782   8.715  11.720 -0.2221  0.0742  0.2634
 8347W        W24608  15.125   1.724   1.268  0.1230 -0.1858  0.0006
 8348W        W24609   1.166  12.283   2.488  0.1603 -0.1384  0.1174
 8349W        W24610  16.663   9.769  10.115 -0.1018  0.0937 -0.0976
 8350W        W24611   1.892   5.203  11.691 -0.1911 -0.0096 -0.3738
 8351W        W24612  16.876   1.171  14.376  0.2059  0.1772 -0.1790
 8352W        W24613   8.685   5.547   3.015  0.0202  0.0350  0.0127
 8353W        W24614   6.088  18.795  14.109  0.1561 -0.0525 -0.2982
 8354W        W24615  15.677  11.458  12.789  0.1360 -0.0791 -0.1892
 8355W        W24616  19.245  11.600   1.487  0.0358  0.0410  0.0231
 8356W        W24617   2.791  14.560   0.843 -0.1530 -0.0322  0.2032
 8357W        W24618   8.809   8.095  11.868  0.1580 -0.2468 -0.0510
 8358W        W24619  12.985   0.925   0.248  0.2254 -0.0256 -0.1155
 8359W        W24620   0.668  10.273  13.310  0.0494 -0.0786 -0.2636
 8360W        W24621   7.124  14.475  14.401 -0.0390  0.1217  0.0271
 8361W        W24622   0.555  19.355   0.413 -0.1331  0.0088  0.0509
 8362W        W24623   6.682  18.519   4.199 -0.5498 -0.0793 -0.2784
 8363W        W24624   5.026  18.514   9.989 -0.0945 -0.1018  0.2608
 8364W        W24625   9.322  14.175  11.963  0.0103  0.2356  0.0296
 8365W        W24626  12.943  13.953   5.859  0.1273 -0.1746  0.0269
 8366W        W24627  11.565   1.658   5.572 -0.2298  0.3577 -0.1032
 8367W        W24628   6.674  16.314   5.088 -0.3667  0.0233 -0.2965
 8368W        W24629  10.712  16.911   2.447 -0.1047  0.4776 -0.0673
 8369W        W24630  11.017  12.345   0.754  0.0248  0.0824 -0.0456
 8370W        W24631  15.240  15.111   3.080 -0.0302 -0.0744 -0.3161
 8371W        W24632  13.699  16.211   0.290 -0.3681 -0.2206 -0.0316
 8372W        W24633  12.386   6.988   2.998 -0.0750 -0.1302 -0.1653
 8373W        W24634  14.545  17.944   0.131  0.0905  0.1279 -0.1069
 8374W        W24635   3.147   3.506   1.142  0.0210 -0.1043 -0.0173
 8375W        W24636  13.153  10.127  10.828  0.0742 -0.0582  0.3144
 8376W        W24637  18.502   6.798   3.435  0.0041  0.2347  0.0126
 8377W        W24638  17.585   4.946   1.888  0.2364 -0.0214 -0.1262
 8378W        W24639   0.403   5.010  11.331  0.1592  0.1402  0.2297
 8379W        W24640   7.739  12.224  14.387  0.0904 -0.0482 -0.1180
 8380W        W24641  18.719   6.328   3.264  0.0143 -0.1469  0.0290
 8381W        W24642  13.563   5.539   3.327  0.2553  0.2153 -0.6668
 8382W        W24643   3.649  14.406   4.092  0.0947 -0.2017  0.3985
 8383W        W24644   0.752  15.337  14.302  0.1015 -0.2621 -0.0052
 8384W        W24645  13.911  10.177   5.358  0.1686 -0.0955 -0.0164
 8385W        W24646  19.226   1.753   4.174 -0.3155  0.1615  0.2587
 8386W        W24647   8.843   3.561  10.133 -0.2888  0.0108 -0.1057
 8387W        W24648  10.691   7.721  12.591  0.1449 -0.1571  0.1882
 8388W        W24649  11.894   4.490   1.400  0.0975  0.0953 -0.0568
 8389W        W24650   0.678   9.757  12.512 -0.2979 -0.3073 -0.0636
 8390W        W24651   8.229   6.245  11.034 -0.0176 -0.1455  0.2595
 8391W        W24652  12.124   4.380  14.687 -0.2645  0.2227  0.1029
 8392W        W24653  12.228   2.620   0.597 -0.0412  0.2254 -0.1356
 8393W        W24654  14.933   0.795   1.554  0.1049  0.1647 -0.0503
 8394W        W24655  12.745   4.607  11.397  0.1773 -0.0349 -0.1452
 8395W        W24656   8.870  10.774   2.505  0.4576  0.1455  0.1914
 8396W        W24657   1.155  16.835   4.587  0.0421  0.0602 -0.0952
 8397W        W24658   9.723   2.036  12.111  0.0552 -0.2440  0.2461
 8398W        W24659   5.870   7.655   0.955 -0.2299 -0.0945  0.0544
 8399W        W24660   2.060   3.962   4.946  0.1479 -0.0909 -0.1033
 8400W        W24661  10.171  12.799   0.628  0.1548 -0.0373 -0.3099
 8401W        W24662  15.196  19.039   0.163 -0.2065  0.2405 -0.0629
 8402W        W24663   1.080  11.463  13.558  0.0779  0.1471  0.0219
 8403W        W24664   6.834   7.538   2.039  0.1807 -0.1398  0.0792
 8404W        W24665  17.049  15.893  11.588  0.1158  0.0640 -0.0650
 8405W        W24666  18.410  16.199  11.899 -0.2507 -0.2640  0.2104
 8406W        W24667   7.250  15.150   3.480 -0.1560 -0.0956  0.0114
 8407W        W24668  17.358   7.066  14.320 -0.0301 -0.0177  0.0568
 8408W        W24669  18.582   3.440   3.968 -0.0669 -0.0751 -0.1091
 8409W        W24670   6.224   0.016   4.272  0.3404  0.0308 -0.1641
 8410W        W24671   2.005  18.174   4.138 -0.2217  0.0533  0.1471
 8411W        W24672  12.002  14.318  14.706 -0.1419 -0.2375  0.2084
 8412W        W24673  12.992   9.706   0.496  0.5179  0.0394 -0.1048
 8413W        W24674   1.363   9.699  13.334  0.1567 -0.2503 -0.1345
 8414W        W24675  15.355  17.558  13.552  0.0592  0.2394 -0.2268
 8415W        W24676  12.324  11.772   0.638 -0.0350  0.2531  0.0732
 8416W        W24677  17.005   4.266  11.713 -0.0684  0.2078  0.1462
 8417W        W24678  18.525   4.062   3.443 -0.1108  0.0501 -0.4300
 8418W        W24679   3.770  10.889  13.095  0.0839  0.1338  0.1378
 8419W        W24680  16.486  17.644   0.035  0.0613  0.0895  0.1453
 8420W        W24681   8.069  10.453   3.313 -0.2630 -0.0863 -0.1255
 8421W        W24682  16.523   2.044   4.112 -0.0835  0.0020 -0.1760
 8422W        W24683   6.026   6.371   1.963  0.1222  0.1771 -0.2333
 8423W        W24684  11.751   8.857   3.316 -0.1854 -0.1417  0.1840
 8424W        W24685   6.253   0.122  10.246  0.1444  0.2219  0.1337
 8425W        W24686   3.667  11.727   2.951  0.3527 -0.0084 -0.0777
 8426W        W24687   2.594   4.293  10.691  0.0693  0.1848 -0.2535
 8427W        W24688   5.578   6.616   0.510 -0.1649  0.1295  0.1659
 8428W        W24689  16.910  12.502   3.994 -0.0405 -0.1537  0.1893
 8429W        W24690   5.536   1.278  13.730  0.0543 -0.2352  0.5282
 8430W        W24691   1.087  18.493  10.790  0.1734 -0.2930 -0.1121
 8431W        W24692  16.631  10.990   0.738 -0.0059 -0.1100  0.1749
 8432W        W24693  18.509   6.787  14.252 -0.0901 -0.5869 -0.1572
 8433W        W24694  14.624   1.585   2.723 -0.1872 -0.1659 -0.1444
 8434W        W24695   3.136  12.091   1.605  0.1753  0.0430  0.1185
 8435W        W24696   4.551  14.885   4.839  0.2190 -0.0089  0.1238
 8436W        W24697   7.709  16.154   0.082 -0.2425  0.1711 -0.0142
 8437W        W24698  14.832   5.453   4.130  0.2953 -0.0822  0.1337
 8438W        W24699  16.778  18.031  12.225 -0.0076 -0.0755 -0.1104
 8439W        W24700   2.383  19.355  11.681 -0.1673 -0.0868  0.0990
 8440W        W24701   8.956   0.972   0.852 -0.0027  0.0417  0.0887
 8441W        W24702  18.133  17.164   2.851 -0.2611 -0.1173  0.1925
 8442W        W24703   7.040  17.567  11.904  0.1969 -0.0507  0.4100
 8443W        W24704   0.774  14.612  11.211  0.2128  0.2857  0.2043
 8444W        W24705   7.962  11.919   4.312  0.0541 -0.0099  0.0765
 8445W        W24706   2.098   0.479   0.860  0.0154 -0.0563  0.3908
 8446W        W24707  10.595  17.401  14.619 -0.0404 -0.0313  0.1417
 8447W        W24708   8.543  12.928  11.385 -0.0217 -0.0869  0.2445
 8448W        W24709   9.599  12.041   5.878  0.1271 -0.5911 -0.1105
 8449W        W24710  10.181   6.469  11.863 -0.1593 -0.0599 -0.0419
 8450W        W24711   6.284   0.659  12.527  0.0801  0.1604 -0.2975
 8451W        W24712  12.723   5.640   2.236  0.1425 -0.3283 -0.2064
 8452W        W24713   6.058   1.127   4.396 -0.0092  0.0916  0.2755
 8453W        W24714  10.174  12.843  14.469  0.0616  0.1396  0.0103
 8454W        W24715   8.206   6.568   4.529  0.0637  0.1137 -0.3691
 8455W        W24716   0.571   3.396   4.552 -0.1422  0.2304 -0.2150
 8456W        W24717  14.170   4.598  11.876 -0.1335 -0.1981  0.1136
 8457W        W24718   3.102   9.109  14.298 -0.1475  0.3388 -0.1210
 8458W        W24719   6.113   2.951   0.142  0.0171 -0.0418 -0.0498
 8459W        W24720  11.707   1.576   4.230  0.2316  0.0535 -0.0382
 8460W        W24721  14.364   5.457  11.422 -0.0313  0.0644  0.1700
 8461W        W24722   4.814   5.572   2.950  0.0648  0.2063  0.0642
 8462W        W24723   6.602   7.032  11.437 -0.2490  0.4890 -0.0207
 8463W        W24724  16.358  15.065  10.985  0.1327 -0.0171 -0.0396
 8464W        W24725  18.955   5.897  13.732  0.2702 -0.0265 -0.0940
 8465W        W24726   6.547   2.495   2.591 -0.0662  0.2452  0.2200
 8466W        W24727  17.667  14.597  11.665 -0.0159  0.0547 -0.0092
 8467W        W24728  14.285   5.673  13.864 -0.0894 -0.2562  0.0454
 8468W        W24729  10.260   6.860  12.127  0.0105  0.0321 -0.1399
 8469W        W24730  17.420   3.805   5.812  0.0036 -0.0910  0.2500
 8470W        W24731  10.056   4.661   3.789 -0.1808  0.1559 -0.1220
 8471W        W24732  12.654   5.501  12.969  0.1436  0.1076  0.2156
 8472W        W24733   6.876  17.312   2.323  0.0025  0.1384 -0.0765
 8473W        W24734  11.773   4.946  10.823 -0.0261 -0.4870 -0.2340
 8474W        W24735  11.739   4.290   0.801  0.2996  0.1179  0.1299
 8475W        W24736   5.116   5.242   3.846  0.0003 -0.0682 -0.1396
 8476W        W24737  15.614  12.647  13.820 -0.0745  0.0962  0.2012
 8477W        W24738   9.215   5.676   2.442 -0.1091  0.0944 -0.2397
 8478W        W24739  18.240  12.381   4.895 -0.1551 -0.2710 -0.0934
 8479W        W24740  16.283   8.451  10.343 -0.2581  0.2190  0.3101
 8480W        W24741  16.188  13.224  12.177  0.2061  0.0184 -0.0729
 8481W        W24742  16.766   7.857   4.742  0.3690 -0.0358  0.1637
 8482W        W24743  17.011   7.342   4.975 -0.1316  0.1491  0.1567
 8483W        W24744   0.295  18.019  14.803 -0.0327 -0.4584 -0.0513
 8484W        W24745   6.368  15.731  14.139  0.1340 -0.2540  0.0098
 8485W        W24746  18.817   1.246  13.965 -0.1504 -0.0983  0.1012
 8486W        W24747  12.029   6.903  10.244 -0.1368  0.1304  0.2988
 8487W        W24748  18.186   1.548  13.169  0.0956 -0.0396  0.1235
 8488W        W24749   9.778   6.850   2.597  0.4125  0.3744 -0.3199
 8489W        W24750   5.563   6.077  10.074  0.0142 -0.1292 -0.0668
 8490W        W24751  15.495  12.850   4.476  0.0674 -0.1434 -0.3511
 8491W        W24752   5.429   1.533  10.374 -0.0672  0.0975  0.1060
 8492W        W24753  13.713  11.207  12.919 -0.1392 -0.0636  0.1938
 8493W        W24754   1.878  14.916   1.808 -0.0467  0.0364  0.0823
 8494W        W24755  17.228  12.944   5.473  0.0263  0.0203 -0.3490
 8495W        W24756  18.636  15.239   1.182  0.0269 -0.2588  0.1445
 8496W        W24757   1.367  11.246   2.268 -0.2331 -0.1126 -0.1361
 8497W        W24758   3.082   2.318  13.060  0.1569  0.0548  0.0448
 8498W        W24759   2.108  17.029  12.747 -0.0388 -0.3100 -0.3477
 8499W        W24760  14.186   3.449  12.458  0.5088 -0.0511 -0.0978
 8500W        W24761   3.231   8.407  13.409 -0.2688 -0.0808 -0.4183
 8501W        W24762   7.385  12.918   1.827 -0.0420  0.0379 -0.1133
 8502W        W24763  16.118   0.839  13.631  0.1177  0.0580 -0.2522
 8503W        W24764  16.914   9.228   4.005  0.1814  0.0914  0.1714
 8504W        W24765   8.409   5.654  11.689 -0.1890  0.1704  0.1958
 8505W        W24766   9.891  16.415  14.060  0.1538  0.0491 -0.0000
 8506W        W24767  15.291  16.492  12.866  0.1269 -0.1935 -0.2385
 8507W        W24768   0.574   8.046  11.855 -0.0967  0.0189 -0.2474
 8508W        W24769   1.724   6.777  11.023 -0.0251 -0.0128  0.1722
 8509W        W24770  15.006   3.453  13.694 -0.1150  0.4070  0.1050
 8510W        W24771  13.185   5.087   1.381  0.0420 -0.0019 -0.1019
 8511W        W24772   5.500  14.025   4.653  0.0318  0.0008 -0.0334
 8512W        W24773   4.671  12.814  12.313 -0.2420  0.2183 -0.0286
 8513W        W24774  12.215  17.238  13.570  0.1373 -0.0551  0.0214
 8514W        W24775   6.092   6.873   2.171  0.1071 -0.2892  0.0193
 8515W        W24776  11.347   1.418  13.225 -0.1453  0.1745 -0.0175
 8516W        W24777   7.358   6.228   9.935  0.3202 -0.0869 -0.0896
 8517W        W24778   9.766   0.518   9.728 -0.0412 -0.0630  0.0462
 8518W        W24779  11.490   8.625   1.784 -0.0417 -0.3257 -0.0045
 8519W        W24780  13.382   9.070   2.605 -0.0341 -0.1468  0.0250
 8520W        W24781   6.914  14.308   4.512 -0.0854 -0.1283 -0.1911
 8521W        W24782   0.250  13.629   4.598  0.0705 -0.0927 -0.1120
 8522W        W24783  17.405  12.726   3.033 -0.5669  0.0976 -0.4165
 8523W        W24784  17.662   5.180  13.894 -0.0651 -0.2162 -0.1323
 8524W        W24785  18.905  10.232  11.302 -0.1311 -0.3362 -0.2365
 8525W        W24786  18.387   7.588   5.134 -0.0471 -0.1880 -0.1110
 8526W        W24787  16.150  18.052  11.260  0.1652 -0.1141 -0.1354
 8527W        W24788  12.029  13.837   0.277 -0.3105  0.2030 -0.0311
 8528W        W24789   8.560   4.497   1.026 -0.0724  0.0886 -0.1133
 8529W        W24790  15.620   3.804   2.509 -0.1012 -0.0393 -0.2824
 8530W        W24791  12.876  18.021   4.778 -0.0800 -0.0551  0.2024
 8531W        W24792  11.010  15.636   5.077  0.0786 -0.1779 -0.0616
 8532W        W24793  11.816   4.617   3.621 -0.2058 -0.1936  0.2675
 8533W        W24794   3.131  11.257   0.261  0.1671 -0.2395  0.0530
 8534W        W24795  15.714   5.619  12.625  0.1036  0.1269  0.1964
 8535W        W24796   8.587  11.232  14.676 -0.0666 -0.1081  0.1753
 8536W        W24797  19.225   9.831  13.323  0.0163 -0.1102 -0.1020
 8537W        W24798   8.898   2.067  14.618 -0.0788  0.0136 -0.1053
 8538W        W24799   6.424   1.044   3.966 -0.1137  0.1831 -0.1437
 8539W        W24800   3.077  18.965  13.259  0.2405  0.2173 -0.2794
 8540W        W24801   4.296   2.362  14.510 -0.1723  0.0335  0.0951
 8541W        W24802   8.731   0.208   2.864 -0.1433  0.0203 -0.0096
 8542W        W24803   4.851  13.635  13.529  0.0182  0.0341  0.0585
 8543W        W24804   9.404   3.900   4.155 -0.1837  0.3131 -0.1240
 8544W        W24805  13.875   6.693  13.526  0.1564  0.0071  0.0130
 8545W        W24806  18.920   8.024   2.886  0.0146  0.3849 -0.0809
 8546W        W24807  18.237   3.036  10.229 -0.0503  0.3442 -0.1769
 8547W        W24808   8.156   4.434  12.534  0.0904 -0.1143  0.1833
 8548W        W24809   5.086  19.342  13.070 -0.2311  0.1823  0.0321
 8549W        W24810   2.246   0.270   4.119 -0.1370  0.0267  0.2285
 8550W        W24811  19.482   9.824   5.119  0.0237 -0.0546  0.1058
 8551W        W24812  18.793   1.946   1.906 -0.2720  0.0453  0.2502
 8552W        W24813  17.619  17.803  14.620 -0.0698 -0.0772 -0.1999
 8553W        W24814   8.289  18.565   3.431 -0.0020 -0.1315 -0.1840
 8554W        W24815  18.758  17.460   5.784  0.3103 -0.0686  0.1187
 8555W        W24816   7.976  13.888  10.314  0.0202 -0.1810  0.0185
 8556W        W24817  10.718  18.749   4.852  0.2953  0.0683  0.2029
 8557W        W24818  15.647  11.326   2.379 -0.2786  0.2135  0.1598
 8558W        W24819  19.238   1.587  13.860  0.2270  0.0047 -0.0773
 8559W        W24820   2.741   0.223  10.659 -0.0734 -0.1886 -0.2252
 8560W        W24821   5.563   2.048   3.734 -0.3861  0.1452  0.3650
 8561W        W24822   0.495   7.418   3.724  0.0874 -0.1879  0.0818
 8562W        W24823   3.204  17.853  14.236  0.2156  0.1540  0.0557
 8563W        W24824   0.388   8.460   3.992 -0.0687  0.1571 -0.1052
 8564W        W24825  13.131   5.041   0.799  0.4611  0.4100  0.3875
 8565W        W24826   4.271   7.009   2.741  0.1920 -0.1533  0.1006
 8566W        W24827   1.588   9.921  12.941  0.1064  0.0052  0.3341
 8567W        W24828   1.370   6.136  10.832 -0.0123  0.1323 -0.0842
 8568W        W24829  15.893   9.179   4.280 -0.0620  0.0179  0.0277
 8569W        W24830   0.870  15.386  11.717 -0.1425  0.0003  0.3410
 8570W        W24831   7.511  16.743   1.807  0.2863  0.1574 -0.2653
 8571W        W24832  18.696   3.594  10.343 -0.0655  0.0077 -0.1095
 8572W        W24833   7.571  19.123   1.207  0.1066 -0.0817 -0.0096
 8573W        W24834  15.612  15.391  10.861 -0.0520 -0.1848 -0.0629
 8574W        W24835   9.424   7.625   4.379  0.0081 -0.0098  0.3930
 8575W        W24836  16.041  11.157   4.841 -0.0491 -0.0051  0.0191
 8576W        W24837   7.906   9.125   3.166  0.1082  0.3084 -0.1433
 8577W        W24838  12.641  10.876  11.114 -0.0233  0.0892 -0.2737
 8578W        W24839  15.794   5.776   4.125  0.0370 -0.0421 -0.2326
 8579W        W24840  14.304   1.146   4.621  0.1168 -0.1058 -0.1648
 8580W        W24841  16.842  13.780  11.703 -0.1011  0.2976  0.1653
 8581W        W24842   1.989   9.382   4.334  0.0073  0.0131  0.0977
 8582W        W24843   5.100   2.970   1.163  0.1008 -0.2387  0.1279
 8583W        W24844   8.954   3.058  12.662  0.0302 -0.0616 -0.0366
 8584W        W24845  19.237  16.406  14.551  0.0565 -0.1241 -0.0615
 8585W        W24846  14.306   3.819  14.005  0.2319 -0.1637 -0.2013
 8586W        W24847   1.127  15.776   3.430  0.0422  0.1248 -0.3296
 8587W        W24848   4.122  15.445  13.146  0.3504 -0.0582  0.2670
 8588W        W24849   7.323   4.895  13.768  0.0393 -0.0682 -0.2683
 8589W        W24850  10.662   5.930   3.875  0.4136 -0.2213  0.2090
 8590W        W24851  13.266  10.518   5.827 -0.3220 -0.1188  0.2661
 8591W        W24852  12.746  10.686  12.203  0.2014 -0.1085  0.1289
 8592W        W24853   8.762   6.826  14.669  0.2060  0.3127  0.0446
 8593W        W24854  10.362  18.756   0.341 -0.0567 -0.0156  0.4015
 8594W        W24855  10.918  19.412  12.910  0.2133  0.1439 -0.0981
 8595W        W24856  11.486  17.488   1.412 -0.1453 -0.0110 -0.0202
 8596W        W24857   0.647   5.125   5.505 -0.1008  0.3968 -0.0288
 8597W        W24858  16.544  10.675  10.512  0.2224 -0.5988  0.2758
 8598W        W24859   4.454  17.960   5.245 -0.2400  0.0287  0.1031
 8599W        W24860  10.756   7.256  10.702 -0.1452 -0.0490 -0.2105
 8600W        W24861   8.026  13.962   2.124  0.0178 -0.0621 -0.0227
 8601W        W24862  13.396   8.729  13.466  0.0063 -0.0366 -0.2867
 8602W        W24863   6.904  18.627  10.458 -0.0870  0.2330  0.0939
 8603W        W24864   4.943   0.693  13.381 -0.0801 -0.0771 -0.1172
 8604W        W24865   6.094   7.473  11.048 -0.3686 -0.4570  0.0322
 8605W        W24866  16.316  12.775   1.910  0.0524 -0.0944 -0.1332
 8606W        W24867  14.693   4.697   1.925  0.0323 -0.2506 -0.1176
 8607W        W24868  17.066   8.054  12.486  0.2438  0.1860  0.0714
 8608W        W24869   9.999  19.146   0.097  0.0874  0.1768 -0.0788
 8609W        W24870   3.150   1.137   1.877 -0.1949  0.0435 -0.3106
 8610W        W24871  12.503   8.340  11.203  0.1205  0.0382  0.1855
 8611W        W24872  17.128  12.651  13.046  0.0662 -0.2125 -0.2274
 8612W        W24873   0.522  10.031   2.809  0.2883 -0.0930  0.1574
 8613W        W24874  13.158  13.587   2.890  0.2423 -0.0608  0.0247
 8614W        W24875   5.124   3.356   2.260 -0.2633 -0.2281 -0.0195
 8615W        W24876  19.178  19.468   2.790  0.2934 -0.0737  0.2747
 8616W        W24877   5.260  11.402   3.270 -0.4597 -0.0559 -0.0237
 8617W        W24878   0.278  12.208   0.086  0.1297  0.0837  0.2677
 8618W        W24879   0.351   4.655  10.594 -0.3499  0.2262 -0.4549
 8619W        W24880   5.038  15.309  12.967  0.1011  0.1881 -0.1513
 8620W        W24881  17.847  11.355  12.750 -0.0228 -0.1535 -0.0267
 8621W        W24882   8.567   9.221  12.034 -0.0210 -0.1821 -0.0708
 8622W        W24883   1.859   7.415  12.004  0.1550  0.0801  0.0084
 8623W        W24884   4.062  16.762   3.843  0.0704 -0.0828  0.0067
 8624W        W24885  19.029   7.606  10.758  0.1081  0.1857 -0.1470
 8625W        W24886  16.341  19.013   3.687 -0.2019 -0.1133 -0.1314
 8626W        W24887  15.969  14.426   2.075  0.2670 -0.2629 -0.0095
 8627W        W24888   9.906   4.849  13.425 -0.4002  0.0073 -0.0866
 8628W        W24889  12.728   5.083  14.099 -0.1546 -0.0212  0.0064
 8629W        W24890   9.261   0.549   2.521 -0.0220 -0.2540  0.2498
 8630W        W24891   6.255   8.456   0.386  0.1519  0.2276 -0.0598
 8631W        W24892   3.188   5.020   2.074 -0.2482  0.1040 -0.3068
 8632W        W24893  15.722   0.224  14.368 -0.0103 -0.1434  0.0305
 8633W        W24894  12.085  12.191  11.549  0.0286 -0.1548  0.0005
 8634W        W24895  16.704   5.948  12.902 -0.1594 -0.3199  0.0003
 8635W        W24896   9.296  12.278   1.473  0.2617  0.1676 -0.0404
 8636W        W24897   8.470  12.383   2.963 -0.0393  0.1140  0.0249
 8637W        W24898   8.662  17.318  12.108 -0.0539 -0.7115 -0.2073
 8638W        W24899   5.710  11.155   1.670  0.0384 -0.2182 -0.0498
 8639W        W24900  13.547  17.159   5.856  0.0462  0.0747 -0.1072
 8640W        W24901   9.351   4.463   2.261  0.3065  0.1127  0.1805
 8641W        W24902   8.800  12.626   3.631 -0.2076  0.2398 -0.3945
 8642W        W24903   3.297  11.455   3.175 -0.1114 -0.2874 -0.1946
 8643W        W24904   9.546   8.556  11.195  0.0784 -0.0764 -0.2063
 8644W        W24905   6.955  12.244  11.029 -0.2878  0.0140 -0.3214
 8645W        W24906  18.137  11.467   4.921 -0.0014  0.1175 -0.2421
 8646W        W24907   5.550   9.345  14.200 -0.0129 -0.2656  0.0808
 8647W        W24908   7.662  19.461  10.821 -0.1447 -0.1406  0.0724
 8648W        W24909   9.051  15.752   2.252  0.0916  0.1746  0.2476
 8649W        W24910   7.820   8.690   2.320  0.2582 -0.0401  0.1202
 8650W        W24911  18.166   7.219   2.906  0.1217 -0.2874 -0.1534
 8651W        W24912   4.384  16.529  12.423 -0.0135 -0.0179 -0.3787
 8652W        W24913  17.987   7.709   9.741  0.0363  0.2768  0.1508
 8653W        W24914  12.910   8.883  13.315 -0.0181  0.0265  0.0111
 8654W        W24915   4.171  13.994  12.041 -0.0535  0.1725 -0.0369
 8655W        W24916   8.369  12.720   0.315  0.0008 -0.4364 -0.1648
 8656W        W24917   0.088  15.399   1.260 -0.2782 -0.0036 -0.0186
 8657W        W24918   1.929   3.869   4.352 -0.2706 -0.0906 -0.1344
 8658W        W24919  14.094   1.919  12.590 -0.2865 -0.0936  0.2293
 8659W        W24920   5.024  10.892   9.903 -0.1248 -0.2234  0.2331
 8660W        W24921   7.585  13.532   4.682  0.1117 -0.0331  0.1392
 8661W        W24922  15.338   4.760   3.618 -0.0253 -0.2740 -0.3448
 8662W        W24923  17.666  10.665  13.527 -0.2625 -0.1174 -0.0841
 8663W        W24924  11.049  18.696   0.865  0.3070  0.0709  0.1514
 8664W        W24925  11.968   9.455  10.240 -0.2329  0.1615 -0.2873
 8665W        W24926  17.659  13.887   3.190 -0.0098  0.0578  0.0881
 8666W        W24927   3.766  10.955  12.480  0.2292  0.0462  0.0924
 8667W        W24928   1.177  11.121  14.456  0.1138 -0.0180  0.1187
 8668W        W24929  14.170  18.932   0.196  0.2232 -0.0019  0.1309
 8669W        W24930  18.660   9.648  10.664 -0.1393  0.0141  0.3386
 8670W        W24931  14.584  10.784   4.142  0.0044 -0.0947  0.1878
 8671W        W24932   0.687   3.493  13.216  0.1783  0.0322 -0.0529
 8672W        W24933  19.400   8.643   1.279 -0.1584 -0.2287 -0.1803
 8673W        W24934   5.380  11.148  10.602  0.1675  0.0370 -0.3104
 8674W        W24935  11.939   3.963   4.469  0.0268  0.0193 -0.2137
 8675W        W24936   4.597   0.448  10.752 -0.0467 -0.0342 -0.2182
 8676W        W24937  19.212  19.082   0.247  0.3323 -0.1467 -0.0493
 8677W        W24938  15.598   5.633   1.321 -0.0065 -0.1512 -0.3056
 8678W        W24939   0.627  12.522   3.357 -0.0524 -0.3989  0.2743
 8679W        W24940   3.511  18.220   0.353 -0.3190  0.2259 -0.0473
 8680W        W24941  15.612  18.765   1.375 -0.0348 -0.0456  0.0480
 8681W        W24942   4.930   0.002  10.698  0.1581 -0.2547 -0.0040
 8682W        W24943   8.598   3.641   3.935 -0.0993 -0.2077 -0.0769
 8683W        W24944  11.194   3.551  14.055  0.0469 -0.0556 -0.0437
 8684W        W24945  13.383   4.637  14.023  0.0884 -0.2113 -0.0199
 8685W        W24946  13.283  13.991   3.224 -0.0047  0.0127  0.3884
 8686W        W24947  15.942  18.673   5.001 -0.0096 -0.1856 -0.0643
 8687W        W24948   0.025   0.263   0.675 -0.0877 -0.2157  0.0133
 8688W        W24949  13.733   8.772  14.473 -0.0072 -0.2890  0.0665
 8689W        W24950   7.378  14.519  12.205  0.2436 -0.3856  0.3796
 8690W        W24951  16.139   2.174  11.746 -0.1145  0.0206 -0.2376
 8691W        W24952  16.655   7.167   2.219  0.0816  0.0046  0.2173
 8692W        W24953  17.091  10.943  11.764 -0.2867  0.1534 -0.1790
 8693W        W24954   1.069   4.498   1.220 -0.1944 -0.2954  0.3166
 8694W        W24955  11.955   2.836   0.240 -0.0742 -0.0073 -0.2388
 8695W        W24956   0.718  13.638   2.977  0.1592 -0.0694 -0.4493
 8696W        W24957   1.551  19.296   4.288 -0.1020  0.0124 -0.2842
 8697W        W24958  16.987  11.285  11.317 -0.0994  0.2635  0.1178
 8698W        W24959  16.751  13.178   0.380  0.0148 -0.1409  0.1398
 8699W        W24960   5.046   4.211  13.054  0.1958 -0.2255 -0.0152
 8700W        W24961   4.940  18.589   0.319  0.1577  0.0825 -0.1568
 8701W        W24962  19.150  17.112  12.761  0.1392 -0.0923 -0.1229
 8702W        W24963  14.695   3.869   4.445  0.3014  0.1938 -0.0440
 8703W        W24964   9.331   2.883   1.413  0.1044  0.2611  0.3049
 8704W        W24965   5.339   7.537  11.719 -0.1075  0.0930 -0.1241
 8705W        W24966  13.140  19.474   4.359  0.0222 -0.0716  0.1911
 8706W        W24967  12.777  17.647  11.518 -0.0937  0.1262  0.2364
 8707W        W24968   7.093   6.403  12.720  0.0805  0.2181 -0.2304
 8708W        W24969   4.000   5.307   4.201  0.1274  0.2065 -0.1287
 8709W        W24970  10.253  12.550   9.522  0.1042  0.1732 -0.1377
 8710W        W24971  14.294  15.475  14.604 -0.2484  0.0930  0.3781
 8711W        W24972  14.821  11.281   5.535 -0.1403 -0.0277  0.2993
 8712W        W24973  18.468  16.532  12.405  0.3631  0.0022  0.2883
 8713W        W24974  16.858  11.498   0.700 -0.2122 -0.1465  0.0173
 8714W        W24975   7.598   0.277   9.953 -0.2915 -0.1638  0.0040
 8715W        W24976   6.616   9.136   3.598  0.1021  0.0333 -0.5992
 8716W        W24977  10.221   9.454   2.050 -0.3119 -0.2311  0.3201
 8717W        W24978  10.468  10.980   2.589 -0.0546  0.1574 -0.0086
 8718W        W24979   0.994   1.813   2.600  0.2897  0.0734  0.1370
 8719W        W24980   1.765  12.071   4.140 -0.2076  0.1606  0.0502
 8720W        W24981   8.329   8.081  14.213  0.0363 -0.2739  0.2349
 8721W        W24982   8.036  14.535   4.601  0.0893  0.3198  0.2752
 8722W        W24983   9.144  12.761   1.542  0.0549  0.0232  0.2003
 8723W        W24984  13.281   6.149  11.822  0.0296  0.0682  0.1278
 8724W        W24985  14.596  12.928   4.491 -0.0898  0.2490 -0.0542
 8725W        W24986   2.753  18.449   2.152  0.1434  0.2695  0.1425
 8726W        W24987   5.684   1.225   9.158  0.2883 -0.0426 -0.2047
 8727W        W24988   7.448   8.591   0.998  0.5592 -0.2876 -0.4708
 8728W        W24989   9.468  12.497  10.803 -0.5349 -0.2974  0.0062
 8729W        W24990   8.978   5.591  11.886  0.2770 -0.1552  0.0559
 8730W        W24991   4.319  19.331   0.497  0.2914 -0.3660  0.0910
 8731W        W24992  15.174   1.645   0.293  0.1593  0.3017  0.2952
 8732W        W24993  18.164   1.846   0.564 -0.0286  0.0325  0.2804
 8733W        W24994   2.641  13.563  12.605 -0.0964  0.2591 -0.3467
 8734W        W24995  15.736  14.328  12.843  0.0263  0.0160 -0.1227
 8735W        W24996  10.361  17.954   3.248  0.1565  0.0903 -0.2033
 8736W        W24997  14.333  10.218   4.627 -0.0311  0.2267 -0.0116
 8737W        W24998   1.175  19.087  12.174  0.0562  0.0954 -0.2833
 8738W        W24999  12.011  14.562   5.082  0.1729  0.0780  0.3226
 8739W        W25000  13.311   0.518  12.433  0.2954  0.0578  0.2971
 8740W        W25001   5.914   1.143  14.727  0.1830 -0.1399  0.1362
 8741W        W25002   7.347  16.444   1.487  0.1492 -0.1868 -0.2975
 8742W        W25003  11.281   7.489  13.405  0.2963  0.2029 -0.0821
 8743W        W25004   9.160   7.563  14.167  0.0276  0.1470 -0.1631
 8744W        W25005   2.639  15.940  14.592  0.3687 -0.1407  0.0267
 8745W        W25006   2.323  16.941   1.707 -0.0840 -0.0247 -0.6815
 8746W        W25007  11.133  17.443   3.751  0.2269  0.1799  0.2474
 8747W        W25008  17.668   3.829  12.807 -0.0543 -0.1301  0.2125
 8748W        W25009  10.452   8.279  13.312 -0.0109 -0.1929 -0.0902
 8749W        W25010   6.188  12.847   2.301  0.2235  0.0544  0.0102
 8750W        W25011  13.006  10.016   2.139 -0.0759 -0.1595 -0.0898
 8751W        W25012  11.289  19.029   0.253  0.3363 -0.1061 -0.0916
 8752W        W25013   7.533  11.120  13.110  0.1688 -0.2741  0.1689
 8753W        W25014   2.862   0.094  14.640 -0.1123  0.1841  0.0232
 8754W        W25015  19.199   9.054   1.627 -0.0047  0.0898  0.0288
 8755W        W25016   2.334  13.703  11.391  0.1178 -0.3291 -0.0435
 8756W        W25017   5.018   0.033  13.917 -0.0646 -0.1639 -0.3793
 8757W        W25018  14.059   0.018  11.933 -0.1210 -0.0702 -0.0649
 8758W        W25019   2.671   1.670   3.431  0.0320 -0.1133 -0.1771
 8759W        W25020   4.848  14.338  11.649  0.0148 -0.2356  0.0272
 8760W        W25021  11.749   7.334   5.418 -0.0440 -0.0463 -0.3092
 8761W        W25022   4.703   0.512   2.301 -0.2477 -0.3721 -0.0645
 8762W        W25023   3.013  10.176   3.012 -0.0719 -0.0488 -0.0515
 8763W        W25024   6.111   4.650   9.785  0.0037 -0.0401 -0.0588
 8764W        W25025  15.203  11.260   0.545 -0.1886  0.2411 -0.1269
 8765W        W25026  16.208  11.595  11.435  0.1502  0.2566 -0.0338
 8766W        W25027  11.252   4.088   2.604  0.0610  0.0165  0.0915
 8767W        W25028  13.274   2.847   3.777 -0.0723 -0.1179  0.1767
 8768W        W25029  15.334   5.275   0.481 -0.0955 -0.0134  0.1256
 8769W        W25030   3.976  11.166  11.886 -0.1250  0.0786  0.0190
 8770W        W25031  16.850  18.749   5.804 -0.2550 -0.0063  0.0601
 8771W        W25032  15.599  18.438   3.463  0.1394 -0.0661  0.0193
 8772W        W25033  12.121  16.024   5.478  0.0896 -0.1350 -0.1978
 8773W        W25034   2.760  17.516   1.709 -0.0087  0.0748 -0.1787
 8774W        W25035   7.870  11.891  14.738 -0.1658  0.2108  0.0230
 8775W        W25036   0.690  18.004   5.306  0.2316 -0.1751  0.2448
 8776W        W25037   6.123   6.259  10.776  0.3551  0.1149  0.2573
 8777W        W25038   2.273   0.060   1.956  0.1380  0.1960  0.0898
 8778W        W25039  17.759   2.678   0.383  0.0557  0.2309  0.2865
 8779W        W25040  13.057   1.118   2.574 -0.2646 -0.0245 -0.1129
 8780W        W25041   1.446   1.096   4.196  0.0019 -0.2258 -0.0077
 8781W        W25042   9.914   5.360  13.621  0.0164 -0.0875  0.2657
 8782W        W25043   5.701  15.087  12.829  0.1548 -0.0864 -0.1583
 8783W        W25044   2.973  14.098   0.635  0.2687 -0.3108  0.1937
 8784W        W25045  12.039   6.122   3.988 -0.0362  0.0324 -0.1740
 8785W        W25046  17.019  16.129   4.911 -0.1716  0.0285  0.2808
 8786W        W25047  10.068  14.398  14.627 -0.2302 -0.0153 -0.1347
 8787W        W25048   0.007  18.349   0.843 -0.3246 -0.2376 -0.1968
 8788W        W25049   5.188   3.162   2.752 -0.2103  0.1815  0.0313
 8789W        W25050  11.801  11.501  12.837 -0.0309 -0.4213 -0.0491
 8790W        W25051   5.822   7.580  10.629  0.1201 -0.5097  0.0632
 8791W        W25052   0.080   0.634  11.805 -0.0868  0.1077 -0.1194
 8792W        W25053   9.380   0.980  14.489 -0.1728  0.0828 -0.1531
 8793W        W25054   4.240   7.904  11.069  0.2922 -0.0236 -0.2944
 8794W        W25055  16.523   9.515   1.224 -0.1798 -0.2754 -0.2210
 8795W        W25056  12.666  13.042   3.175  0.2899 -0.0661 -0.0195
 8796W        W25057  12.393   7.046  12.288  0.0376 -0.1980  0.0582
 8797W        W25058  13.836  11.538   9.902 -0.1947  0.1704  0.0379
 8798W        W25059  13.791  15.703  11.238 -0.1725 -0.0173 -0.2981
 8799W        W25060  14.797   8.201   3.612 -0.1824 -0.1801 -0.2149
 8800W        W25061   3.364  17.330   4.784  0.1440 -0.4429 -0.1085
 8801W        W25062  12.025  18.438  10.061 -0.2948 -0.0693 -0.0066
 8802W        W25063   9.793   1.217  12.377 -0.2588  0.2001 -0.0702
 8803W        W25064  13.036  14.073   6.350  0.2186 -0.1297 -0.1919
 8804W        W25065  10.595  15.843   3.926  0.4206 -0.1189  0.0327
 8805W        W25066  19.195  14.662   0.838  0.0470 -0.0191 -0.0880
 8806W        W25067  18.735  18.459   2.405 -0.3179 -0.0300  0.2615
 8807W        W25068   2.394  16.218   0.118  0.1828  0.0402 -0.1362
 8808W        W25069  17.411   6.658  14.727  0.1041  0.1249 -0.3842
 8809W        W25070   0.025   1.434   2.987 -0.1422 -0.2892 -0.0183
 8810W        W25071   2.405  10.403   2.134 -0.2857 -0.3005  0.1844
 8811W        W25072  10.755   4.711  11.363 -0.0746 -0.2357  0.2838
 8812W        W25073  14.470   6.928  12.037  0.3795  0.2412  0.3429
 8813W        W25074   5.648   5.334   4.049 -0.0580  0.0675 -0.0413
 8814W        W25075  10.141   0.006   1.805 -0.1400 -0.2394 -0.2364
 8815W        W25076   5.661   7.882   4.483 -0.0731  0.0060 -0.1435
 8816W        W25077   5.262   3.815  11.432  0.0747 -0.0360  0.0941
 8817W        W25078  11.362  12.453   5.039 -0.0812  0.1809 -0.0819
 8818W        W25079  18.867  14.646   2.471 -0.0631 -0.0007  0.0400
 8819W        W25080   6.013  18.279  11.054  0.5500 -0.1786  0.2223
 8820W        W25081   7.928   0.982  10.570  0.3247  0.0341 -0.1722
 8821W        W25082   8.511   4.366  11.213  0.1509  0.0840  0.0711
 8822W        W25083   5.543   4.377   1.834  0.3325  0.1008 -0.0422
 8823W        W25084  16.622  16.897  13.818  0.2657 -0.3790 -0.0440
 8824W        W25085   4.014   7.031  10.033 -0.0425  0.1106  0.3535
 8825W        W25086   5.294   5.259   9.945  0.0036  0.2369 -0.2449
 8826W        W25087   4.363  10.335   4.584  0.0117  0.1039  0.1861
 8827W        W25088   5.748  11.847   2.804  0.1131  0.1365  0.2015
 8828W        W25089   3.841  17.032  12.688  0.1997  0.2308 -0.0341
 8829W        W25090  13.833  17.814   1.578 -0.0191  0.0149 -0.0025
 8830W        W25091   0.139  12.251  11.218 -0.3151  0.2417  0.1375
 8831W        W25092  11.512  14.788  13.401 -0.0871  0.2191  0.0092
 8832W        W25093   3.223   4.702   1.679 -0.4331  0.0063  0.2274
 8833W        W25094  18.401  18.057   3.313  0.1652  0.2317 -0.0970
 8834W        W25095  14.492  13.272  12.009 -0.0091  0.3225 -0.2039
 8835W        W25096  12.908   7.039   2.589 -0.1313 -0.6526 -0.0357
 8836W        W25097   9.022  10.878  14.772  0.1023  0.0441  0.1744
 8837W        W25098  10.327  12.970   2.248 -0.0507 -0.1687  0.0190
 8838W        W25099   8.342   2.898   9.711  0.2561  0.1449  0.0815
 8839W        W25100  17.566   6.840  10.065 -0.0694 -0.0336 -0.0052
 8840W        W25101   7.614   6.725   9.886  0.1120 -0.0961  0.0770
 8841W        W25102   5.975   4.234   1.473 -0.0100 -0.1317  0.0906
 8842W        W25103   0.288   3.726   5.139 -0.4095 -0.2200 -0.1782
 8843W        W25104   9.655  18.028   2.455 -0.0795  0.0977  0.2090
 8844W        W25105   5.059  15.961   0.800 -0.1417 -0.0438 -0.3218
 8845W        W25106   6.161   2.472   2.236 -0.1049 -0.1208  0.4138
 8846W        W25107   4.371   9.165   2.166 -0.1034  0.0589 -0.2345
 8847W        W25108  13.152  12.617  12.992 -0.0270  0.0736  0.5087
 8848W        W25109   0.589   7.792   0.495 -0.0202  0.0286  0.0023
 8849W        W25110   0.148  13.274  12.215 -0.0845 -0.1773  0.1126
 8850W        W25111  18.082  19.097   4.732  0.0689 -0.1564  0.2870
 8851W        W25112   9.957   7.428  14.057  0.1805  0.1676  0.3824
 8852W        W25113   8.839  18.114   3.780 -0.2091 -0.0961 -0.0013
 8853W        W25114   5.654  18.769  10.945 -0.1120  0.0405 -0.2435
 8854W        W25115   4.806  11.588  14.358 -0.2858  0.1440  0.1889
 8855W        W25116   6.542   3.075  11.870  0.1413 -0.1565  0.3181
 8856W        W25117  17.228  18.214   1.498 -0.0476  0.0162  0.3760
 8857W        W25118   7.823  12.238  13.447  0.0632 -0.0139 -0.0250
 8858W        W25119   6.243  14.685  12.484  0.2548 -0.0022  0.1344
 8859W        W25120   8.737   1.633  10.349 -0.4045 -0.2266 -0.1032
 8860W        W25121  14.643  10.990  13.652 -0.1521  0.0331  0.1123
 8861W        W25122   0.894  16.111   4.818 -0.1415 -0.0166  0.0848
 8862W        W25123  19.199   5.179   4.040  0.0108  0.0255  0.0397
 8863W        W25124  13.348  17.636  12.880  0.1171  0.0042  0.1945
 8864W        W25125  18.231   8.233   0.172  0.1740 -0.0800 -0.3003
 8865W        W25126   1.253  11.642  12.112 -0.1267  0.0683  0.1484
 8866W        W25127  10.518   1.927  12.626 -0.1854  0.2081 -0.0666
 8867W        W25128  17.985   9.673   4.574  0.0844  0.3974 -0.0958
 8868W        W25129   6.648  16.844   3.257 -0.1023  0.1511 -0.0948
 8869W        W25130   6.221  11.308  10.317  0.0119  0.0586 -0.0874
 8870W        W25131   0.386  16.203   5.028  0.0578  0.1197  0.0637
 8871W        W25132  16.692   6.885  10.785  0.0983  0.0292  0.0155
 8872W        W25133  18.917   2.220  13.148  0.1236 -0.0288 -0.1461
 8873W        W25134   6.678   9.009  13.830 -0.1369 -0.3516  0.0092
 8874W        W25135   5.806   0.801  12.373 -0.0486 -0.1432  0.0314
 8875W        W25136  12.789  18.991   1.156  0.2930 -0.2401  0.1097
 8876W        W25137  13.037   8.915  13.798  0.1790  0.2481  0.0925
 8877W        W25138  15.360  16.445   4.482 -0.2553 -0.1270 -0.0252
 8878W        W25139   9.422   2.217   9.122 -0.0230 -0.1243 -0.1744
 8879W        W25140  16.572   0.268   4.936  0.0739  0.1308 -0.1193
 8880W        W25141  12.618   8.517   3.014  0.2373 -0.1768  0.0254
 8881W        W25142   4.938  14.643   9.919 -0.1486 -0.2263 -0.0426
 8882W        W25143  14.004   2.800  11.889  0.2148 -0.0344  0.0202
 8883W        W25144  10.811  12.225   2.339 -0.1100  0.0908  0.0694
 8884W        W25145  10.970  11.970  12.163 -0.1342 -0.0677 -0.0092
 8885W        W25146   2.234  13.891  13.355 -0.2114  0.1053  0.0982
 8886W        W25147  11.653   9.689  11.527  0.2250 -0.2034 -0.1659
 8887W        W25148  18.166   0.053   2.840  0.0805  0.0768  0.0550
 8888W        W25149   3.423   9.141   1.114  0.1520 -0.2076  0.0952
 8889W        W25150  13.374   7.801   3.032 -0.4353  0.0699  0.1210
 8890W        W25151  13.058   5.267   2.437 -0.0485  0.4173  0.2474
 8891W        W25152  17.802   8.739  12.369 -0.0651 -0.1386  0.3103
 8892W        W25153  12.842  18.488   2.624  0.0336  0.0737  0.0047
 8893W        W25154   8.818  14.780   5.021  0.0096  0.0513  0.0206
 8894W        W25155   5.281  13.561  13.191  0.1031 -0.2389  0.0042
 8895W        W25156  11.570   3.692   4.984  0.1138 -0.0771 -0.0837
 8896W        W25157   8.417   7.052  14.286 -0.1115 -0.1484  0.1807
 8897W        W25158   2.769   8.863  12.282  0.0294  0.2489 -0.0534
 8898W        W25159   2.170   1.069  10.763  0.1310 -0.2530 -0.0089
 8899W        W25160  13.454  12.082   0.653 -0.3160 -0.0529 -0.0480
 8900W        W25161   9.921   8.412  13.425 -0.1844 -0.0261  0.0232
 8901W        W25162   6.883  19.198  13.081 -0.4139 -0.2624  0.3421
 8902W        W25163  13.652   7.556   1.316  0.1713 -0.0664 -0.0922
 8903W        W25164  16.531  16.172   4.073  0.1340 -0.0494  0.1375
 8904W        W25165   8.200   0.093   9.559 -0.1497  0.0619  0.2685
 8905W        W25166   6.480   1.867  10.880  0.0797 -0.1344  0.2962
 8906W        W25167  11.330  11.938   2.633 -0.1566 -0.1894 -0.0938
 8907W        W25168  19.323   9.128   0.684 -0.2866  0.1162  0.1268
 8908W        W25169   3.658   1.381   1.097 -0.0869 -0.2679  0.1347
 8909W        W25170   4.913   4.241   4.447  0.2204 -0.0155 -0.0721
 8910W        W25171   1.005  11.262  11.520 -0.0166 -0.1018  0.0234
 8911W        W25172   7.836  18.550   0.781  0.2077  0.3450  0.1047
 8912W        W25173  13.534  16.121  11.124 -0.1080  0.0289  0.0537
 8913W        W25174   7.450  15.427   2.966  0.2399  0.1637  0.1055
 8914W        W25175  17.315  14.231   4.139 -0.1603  0.0396  0.3079
 8915W        W25176   0.375   6.497   3.356  0.5232  0.3232  0.2124
 8916W        W25177  13.980   5.916  10.892 -0.0112  0.1438  0.3470
 8917W        W25178   9.112   1.822   9.337 -0.0092  0.0377  0.0883
 8918W        W25179  10.217   9.840  13.727 -0.3593  0.1248  0.2078
 8919W        W25180  16.892   4.918  10.157 -0.1724  0.0278  0.0720
 8920W        W25181  10.283   1.153  14.623  0.0199  0.0366 -0.2232
 8921W        W25182   6.790   4.667   1.794 -0.1755  0.1231  0.0202
 8922W        W25183  11.813   3.385   2.440 -0.4482 -0.1783 -0.2991
 8923W        W25184   6.825   4.075  10.264  0.0763  0.0506 -0.0605
 8924W        W25185  10.932  14.360   3.201  0.0125  0.2475  0.0289
 8925W        W25186   6.957   4.436  12.721 -0.1097  0.0374 -0.0343
 8926W        W25187   0.232  13.339   5.004 -0.1546  0.0877 -0.0611
 8927W        W25188   0.419  14.814   0.625 -0.0109  0.1726  0.3341
 8928W        W25189   2.728   0.893  11.752 -0.1590 -0.0002  0.0334
 8929W        W25190  13.152  13.895   2.003 -0.1883  0.0037  0.0015
 8930W        W25191   5.051   3.487   1.205 -0.2580 -0.1256  0.1265
 8931W        W25192  16.096   8.673  10.784  0.1639  0.0297  0.1494
 8932W        W25193  18.162   2.635   2.288 -0.1382  0.0296  0.0466
 8933W        W25194  14.621  16.281   1.570  0.2577 -0.0006 -0.1509
 8934W        W25195  13.323   6.104   1.918  0.0904 -0.1723 -0.2555
 8935W        W25196  19.342   7.220  14.627  0.0770 -0.3146 -0.0573
 8936W        W25197   8.488   9.061   3.122  0.2770  0.2660  0.2810
 8937W        W25198   1.893   9.922   2.826 -0.0525  0.0891  0.0233
 8938W        W25199  18.794  12.526   4.074 -0.0088 -0.5823  0.4587
 8939W        W25200   4.516  16.623   4.895 -0.2579  0.1980 -0.2485
 8940W        W25201  17.896   9.513   2.089  0.1256  0.0628  0.0340
 8941W        W25202  17.634   7.890   4.380 -0.1377  0.0879  0.0616
 8942W        W25203  13.714   2.218   1.225  0.4040  0.1670 -0.0271
 8943W        W25204   2.818  14.744   0.187 -0.2337  0.0218  0.3699
 8944W        W25205  11.881  18.233   0.239 -0.1341  0.1306  0.0168
 8945W        W25206   9.408   3.036   4.746 -0.0208 -0.5048 -0.2607
 8946W        W25207  12.294  16.572  13.296 -0.1564 -0.1419 -0.0109
 8947W        W25208  16.617   7.134  10.201  0.1837 -0.1295 -0.3132
 8948W        W25209  14.367   0.355  12.563 -0.5401 -0.3702 -0.3120
 8949W        W25210  13.604  18.386   4.884 -0.2018  0.0548 -0.1699
 8950W        W25211   9.075  12.271   3.844  0.1740  0.1351  0.1185
 8951W        W25212   5.774   1.956  13.134  0.1453  0.2072 -0.1339
 8952W        W25213   7.312   7.591  10.276  0.0759 -0.1007 -0.3389
 8953W        W25214   5.557   4.160   3.773  0.3385 -0.0015 -0.1237
 8954W        W25215  18.267   9.494  13.205  0.1913 -0.3949 -0.2441
 8955W        W25216   2.559   3.050  14.315 -0.1043  0.0057 -0.0181
 8956W        W25217   2.002  15.852   6.385  0.1898  0.1645  0.0670
 8957W        W25218   1.552   1.577   3.584  0.1724 -0.0601  0.1064
 8958W        W25219   6.684  15.158   4.995 -0.0476 -0.1324  0.3145
 8959W        W25220   3.613   2.163  10.404  0.0957  0.1261  0.2423
 8960W        W25221   6.394   3.213  13.360 -0.2337 -0.1102 -0.0019
 8961W        W25222   8.397   8.898  11.696  0.1406 -0.1676  0.2674
 8962W        W25223   4.847   0.140  13.440  0.0243 -0.0816  0.1356
 8963W        W25224  14.446   6.434   1.955  0.1546  0.1385 -0.0003
 8964W        W25225  14.174   1.477  11.672 -0.0479  0.4005  0.2084
 8965W        W25226  17.902   6.197  10.278  0.0363  0.0813  0.3045
 8966W        W25227   4.740  15.268   0.229 -0.0774  0.2952 -0.0690
 8967W        W25228   0.046  17.162   3.504 -0.0242 -0.4414 -0.1010
 8968W        W25229  18.235   5.151  10.949  0.0737  0.0868 -0.1498
 8969W        W25230  12.169   1.279  12.872  0.2158  0.1672  0.0502
 8970W        W25231  11.034  13.750   0.027 -0.0271  0.0665 -0.2417
 8971W        W25232   6.089  18.785  11.411  0.4531 -0.0077  0.1667
 8972W        W25233   6.926  15.418  12.968  0.1084 -0.2099 -0.1871
 8973W        W25234  12.443   2.250   0.936  0.1561 -0.3488 -0.0152
 8974W        W25235   9.731   3.602  13.997 -0.3044  0.1642  0.0098
 8975W        W25236  12.441   9.253  12.631  0.1431  0.2982  0.2809
 8976W        W25237  19.315   6.705   2.674  0.0758 -0.0823  0.0116
 8977W        W25238   8.282   7.164  13.826 -0.3887  0.1698  0.1641
 8978W        W25239  11.058   1.461   1.984  0.1903  0.0620  0.0113
 8979W        W25240   6.722   0.364   4.227 -0.0267 -0.3128 -0.1003
 8980W        W25241  18.640   4.477  10.981  0.0357 -0.3359 -0.0032
 8981W        W25242   2.786   3.386  14.044  0.0164 -0.1523 -0.0092
 8982W        W25243   1.063  19.185   0.267 -0.1506 -0.1800  0.0789
 8983W        W25244   0.705   2.576  13.106  0.0929  0.2742  0.1437
 8984W        W25245  10.563  14.066  12.843 -0.0388  0.1963 -0.0748
 8985W        W25246   7.076  18.072   2.731  0.0544 -0.1337  0.1431
 8986W        W25247  12.807  14.562  13.474  0.0497 -0.3810  0.0238
 8987W        W25248   2.226   5.687   4.164  0.1596  0.3290 -0.1582
 8988W        W25249  18.901  12.943  12.541 -0.0557  0.2972  0.3032
 8989W        W25250   7.728   9.290  14.599 -0.0721 -0.4058  0.1146
 8990W        W25251   6.764  10.895   3.444  0.1130 -0.2026 -0.0885
 8991W        W25252   2.077  15.285   1.036  0.1525 -0.0713  0.1997
 8992W        W25253   5.284  19.411  14.351 -0.3808 -0.0855 -0.1478
 8993W        W25254  17.902   9.375  11.811 -0.0711  0.2691 -0.1318
 8994W        W25255  10.761   6.775   9.958 -0.1072 -0.2316  0.1284
 8995W        W25256   4.009   9.466   0.315 -0.1485  0.0133  0.1434
 8996W        W25257  16.558   2.466  13.391 -0.2176  0.2981  0.0899
 8997W        W25258   7.850   4.627   3.360  0.2872  0.0582 -0.3262
 8998W        W25259   3.742   0.441   2.589  0.1237  0.0988 -0.0967
 8999W        W25260   1.611  13.997   4.257 -0.1469 -0.1420  0.2030
 9000W        W25261   0.119   3.430   2.690 -0.1822 -0.1770  0.0111
 9001W        W25262  10.323   7.203  12.934 -0.0862  0.1459 -0.0430
 9002W        W25263  17.232  12.130  12.480  0.1016 -0.0613  0.2228
 9003W        W25264  13.489  16.434  14.040  0.2322  0.1255  0.1861
 9004W        W25265   4.013  10.590  11.237 -0.0743  0.1301  0.1146
 9005W        W25266  13.283   9.905   3.653 -0.4207 -0.2923  0.0558
 9006W        W25267   4.269   5.130   0.712 -0.0932 -0.1614  0.1586
 9007W        W25268   5.571   5.055   1.160 -0.0653 -0.4235 -0.1430
 9008W        W25269  19.010  19.378  12.646  0.4137 -0.1358 -0.1355
 9009W        W25270  13.359  16.605   2.070 -0.1944 -0.1192 -0.0257
 9010W        W25271  17.252  18.137  12.219  0.0987  0.0425  0.1117
 9011W        W25272   0.484   9.843   5.142 -0.1892 -0.1629  0.0763
 9012W        W25273  18.930   8.848  13.417 -0.1133 -0.1370  0.1319
 9013W        W25274   2.883  14.241   0.080 -0.0419 -0.1624  0.0152
 9014W        W25275  12.047   2.395  14.278 -0.0767 -0.3106  0.2292
 9015W        W25276   7.314   3.767  14.293  0.0372  0.1517 -0.0320
 9016W        W25277  10.438  10.981  14.013 -0.0387 -0.0417 -0.4454
 9017W        W25278  16.492   0.070   3.793  0.0498  0.1399 -0.0081
 9018W        W25279  12.859   9.020  12.705  0.3332 -0.0663 -0.0055
 9019W        W25280   3.102   2.981  10.515  0.4100  0.0067 -0.2105
 9020W        W25281   4.512  18.596  10.837  0.1415 -0.3225 -0.1850
 9021W        W25282   1.395  13.952   1.279 -0.2123 -0.0614 -0.1396
 9022W        W25283   5.325  16.860   1.652  0.3391 -0.2728 -0.0601
 9023W        W25284   4.237   9.315   9.995  0.0071 -0.2183 -0.0293
 9024W        W25285  11.099   7.683  10.794 -0.3973  0.0904 -0.1845
 9025W        W25286  15.899  16.145   2.376 -0.3896  0.2198 -0.0197
 9026W        W25287   8.055  12.170   1.943 -0.0675 -0.3282 -0.0527
 9027W        W25288   8.442  11.306   3.068 -0.0593  0.0230 -0.0045
 9028W        W25289   5.464   5.072  13.377 -0.0486 -0.0517  0.1301
 9029W        W25290   5.414  12.711  11.224  0.0625  0.2154  0.0054
 9030W        W25291   2.114   7.920   4.013 -0.0402 -0.0518  0.1900
 9031W        W25292  18.697  12.625   4.681  0.3389  0.1306 -0.1978
 9032W        W25293   2.527   2.411   1.649 -0.2130 -0.2092 -0.0665
 9033W        W25294   1.098  10.516  13.458  0.2048  0.0023 -0.0906
 9034W        W25295  13.029   7.608   5.253 -0.0974 -0.2266 -0.1221
 9035W        W25296  10.087  10.424   3.672  0.0177 -0.1315 -0.0112
 9036W        W25297   0.179  16.077  11.988  0.0348 -0.0954 -0.2807
 9037W        W25298  17.892   4.955   2.240 -0.1543 -0.2389  0.0147
 9038W        W25299  15.104  12.855   4.748  0.0745 -0.0022 -0.0371
 9039W        W25300  16.038   1.145   1.666  0.1305  0.2055  0.0289
 9040W        W25301  13.054  19.105  11.963 -0.3034 -0.1066  0.0234
 9041W        W25302  12.549  15.587  14.536 -0.0131  0.0387  0.0399
 9042W        W25303   7.455  13.413  13.517 -0.2120  0.1392 -0.1263
 9043W        W25304  12.138  19.020   3.206  0.2331  0.0603 -0.0914
 9044W        W25305  12.275  13.900  14.668 -0.0721  0.4950 -0.1758
 9045W        W25306   5.035   6.448   2.029 -0.0900  0.0947  0.1470
 9046W        W25307  16.756   6.519   2.172  0.0934 -0.0464  0.1790
 9047W        W25308   4.619   6.002  12.364 -0.1891  0.0118 -0.1354
 9048W        W25309  10.189  19.330   5.002  0.0754 -0.1666 -0.1666
 9049W        W25310   2.108  15.438   4.051 -0.1339  0.1016  0.1718
 9050W        W25311   2.764   8.782   4.404 -0.0847  0.1020 -0.0381
 9051W        W25312   1.320   1.479   1.072 -0.0274  0.1646 -0.0850
 9052W        W25313   0.952  18.833  13.026 -0.0432  0.0929 -0.0747
 9053W        W25314  10.233  13.505   2.545  0.3878  0.0567 -0.0576
 9054W        W25315   7.876  19.138  11.560  0.1254  0.1425  0.0655
 9055W        W25316   5.233  10.423   1.356 -0.1273 -0.3124  0.1046
 9056W        W25317   6.030   1.988  11.696  0.0406  0.0169 -0.3352
 9057W        W25318  11.305  18.185  13.649 -0.2464 -0.2022  0.1711
 9058W        W25319   0.968   2.686  10.576 -0.1210 -0.0777  0.1840
 9059W        W25320  15.533  15.307   0.616  0.0288  0.2787 -0.1814
 9060W        W25321   7.798  18.581   3.295 -0.4615 -0.0889 -0.1701
 9061W        W25322  15.039   5.029   2.219  0.0737  0.3284  0.2357
 9062W        W25323   4.686  14.297  11.106  0.2466  0.0478 -0.3476
 9063W        W25324  14.717   8.659   0.036  0.1838 -0.2560 -0.1836
 9064W        W25325   6.076  17.530  11.873  0.0610  0.0748  0.0857
 9065W        W25326   2.611   4.467   2.598  0.1671 -0.2811  0.1807
 9066W        W25327  10.220   0.423   2.692  0.4060 -0.2289  0.2584
 9067W        W25328  16.576   2.188  12.000 -0.0862 -0.0849  0.2319
 9068W        W25329  16.251  10.375  10.813 -0.0915  0.0029  0.1599
 9069W        W25330  14.059  19.046  13.668  0.0370  0.0169 -0.2017
 9070W        W25331  15.192  15.606   3.981  0.1013  0.4057 -0.0814
 9071W        W25332  15.159  13.385   0.459 -0.0639  0.5207  0.1569
 9072W        W25333  14.855   3.099  12.069 -0.1493 -0.1086  0.1311
 9073W        W25334  12.366  19.434   3.919  0.2132 -0.3233 -0.3220
 9074W        W25335  15.538  12.125   3.534  0.2343 -0.2542  0.3191
 9075W        W25336   2.426  18.534   4.976 -0.1305 -0.1144 -0.0621
 9076W        W25337   1.902   3.467   2.939  0.1726  0.1358 -0.3170
 9077W        W25338  15.344  13.546   0.956 -0.1956 -0.2189  0.0051
 9078W        W25339   1.564  11.302   3.817  0.0386 -0.1441 -0.1579
 9079W        W25340  10.719  16.304   0.653 -0.1899 -0.1675 -0.2503
 9080W        W25341  14.699  19.384  11.005  0.3928 -0.0259 -0.0467
 9081W        W25342   9.934  10.119   1.402  0.5451  0.0171  0.1008
 9082W        W25343  16.406   6.800   2.493  0.1400 -0.1594 -0.3323
 9083W        W25344  18.566  14.376   3.270 -0.3063  0.0385 -0.0383
 9084W        W25345   6.890   9.693   3.503 -0.1447 -0.0800 -0.2485
 9085W        W25346   2.414   8.887  10.285 -0.1254 -0.0316  0.3780
 9086W        W25347   7.322  16.558   1.031  0.1438  0.0046  0.0486
 9087W        W25348   5.902  14.688   4.089 -0.1456  0.2190  0.0579
 9088W        W25349  17.191  13.728   2.997 -0.0201 -0.3143  0.1551
 9089W        W25350  10.878   8.138  10.810 -0.2971  0.3176  0.2271
 9090W        W25351   6.028  12.137   0.003 -0.0128  0.4277 -0.1779
 9091W        W25352   6.997   7.060   2.016 -0.0680  0.0558 -0.4068
 9092W        W25353   8.649  14.324   4.871 -0.1351  0.0122 -0.1501
 9093W        W25354  11.950  15.528   5.567 -0.0203  0.1359  0.0029
 9094W        W25355   7.277   2.701   1.103 -0.1115 -0.2029  0.1623
 9095W        W25356   2.415   7.267  10.710  0.0319 -0.0948  0.2500
 9096W        W25357  18.008   4.465  13.074  0.1021  0.2412 -0.3241
 9097W        W25358  13.860  14.861  13.363  0.1596 -0.0810  0.3360
 9098W        W25359   5.398   2.756   9.694 -0.0248 -0.2459  0.0194
 9099W        W25360  12.856  18.483  12.858 -0.1857 -0.0967 -0.3542
 9100W        W25361  12.129   5.013  12.976  0.1393 -0.1686 -0.1249
 9101W        W25362  14.252  10.716   3.767 -0.0268 -0.0880  0.2070
 9102W        W25363   2.731   7.142  12.634  0.1090  0.0727 -0.1144
 9103W        W25364   3.492  12.623  13.224  0.0234  0.1176  0.1503
 9104W        W25365  13.643  10.579   5.351  0.2018 -0.0297 -0.4010
 9105W        W25366   7.579   8.689   1.881  0.1528 -0.2543 -0.1278
 9106W        W25367  11.190   0.922   9.193  0.1154 -0.2333 -0.4527
 9107W        W25368  11.679  11.952  11.445 -0.1681  0.1716  0.0129
 9108W        W25369   5.290   5.541   0.318 -0.1433  0.3656  0.1329
 9109W        W25370  13.788   9.888   0.878  0.0622  0.0749  0.0173
 9110W        W25371   2.405  12.192   2.607 -0.1069  0.3049 -0.0044
 9111W        W25372   8.768   9.541   9.399 -0.0173  0.1345  0.5381
 9112W        W25373   8.896  10.223   3.984 -0.1202  0.1921  0.2182
 9113W        W25374  16.402  16.119   0.811 -0.1286  0.1417 -0.0172
 9114W        W25375  17.433  10.076  11.578  0.1545  0.1561 -0.0181
 9115W        W25376  11.221  10.996   3.797  0.0406 -0.2063  0.1812
 9116W        W25377  11.816  13.294  11.929 -0.1119  0.4331  0.1204
 9117W        W25378  15.083  13.232   4.463  0.0408 -0.0293 -0.1507
 9118W        W25379  14.316  18.683  14.500  0.1031 -0.3180  0.1510
 9119W        W25380  13.834   3.686  14.248 -0.2454  0.2873 -0.1555
 9120W        W25381  12.993   0.463   1.318 -0.3146 -0.1129 -0.0281
 9121W        W25382  17.042  17.260   1.264  0.2019  0.1595 -0.2318
 9122W        W25383  12.982  16.178   3.783 -0.1027 -0.2790  0.1151
 9123W        W25384   7.621   3.868   0.222 -0.2281 -0.3225 -0.0882
 9124W        W25385   5.473   7.077  11.443 -0.0936 -0.3366  0.2483
 9125W        W25386   0.577  16.679  13.561  0.3567 -0.0933  0.0431
 9126W        W25387  13.558   7.730   4.331  0.1154 -0.3344 -0.3030
 9127W        W25388   2.297   1.794  10.195 -0.2265 -0.1182 -0.2225
 9128W        W25389   4.580   4.150   4.063 -0.1998 -0.1064 -0.2903
 9129W        W25390  16.218   6.549  12.058 -0.2786 -0.1728  0.1467
 9130W        W25391   1.590  11.937  12.408 -0.0773  0.0840  0.3167
 9131W        W25392  16.713   7.307  11.224  0.1879 -0.1553 -0.2707
 9132W        W25393   5.527   4.976  14.658  0.0584  0.2283 -0.0954
 9133W        W25394   9.538   4.839  11.805  0.2589 -0.0876 -0.2988
 9134W        W25395   2.573   9.443   2.766  0.2315  0.1914 -0.0877
 9135W        W25396   3.111   0.459   4.439 -0.1761 -0.2023 -0.1355
 9136W        W25397   6.488  11.578  12.688  0.2758 -0.1365 -0.2955
 9137W        W25398  12.428  14.245  14.322 -0.2143  0.0882  0.1525
 9138W        W25399  10.119  15.737   4.658  0.0794  0.0786 -0.1570
 9139W        W25400  11.546   9.824   0.237  0.1661 -0.0313  0.2290
 9140W        W25401  14.337   2.828  11.165  0.3366  0.0684 -0.0899
 9141W        W25402   5.905   3.962  11.902 -0.0120 -0.0436 -0.0120
 9142W        W25403  19.163  18.298  11.623  0.0790 -0.3426 -0.2217
 9143W        W25404  19.136   6.815  13.664  0.1343 -0.1377  0.1322
 9144W        W25405  18.913   1.999  11.509 -0.0700 -0.0936 -0.1390
 9145W        W25406  13.389  15.909   2.789  0.1514 -0.4700  0.3544
 9146W        W25407   5.021   1.643   1.088 -0.0404 -0.2488  0.1226
 9147W        W25408  13.201   1.367   1.119  0.0973 -0.2758 -0.0157
 9148W        W25409   4.767   1.255  12.649  0.0684  0.0144  0.0810
 9149W        W25410  14.176   8.063   4.929 -0.1592 -0.1079  0.0958
 9150W        W25411  18.605   3.078  13.494 -0.0100  0.3542  0.2797
 9151W        W25412   2.272  12.926  14.494 -0.1106 -0.2686  0.0746
 9152W        W25413   7.440  12.562  13.274  0.0535  0.0357  0.0410
 9153W        W25414  16.579   4.326  13.447  0.2076 -0.0049 -0.0199
 9154W        W25415  12.617   6.337  12.660 -0.2908  0.0808 -0.0313
 9155W        W25416  14.153   2.729   3.567 -0.0452 -0.3373 -0.0468
 9156W        W25417   5.920  15.444  13.643 -0.2777 -0.0701 -0.1395
 9157W        W25418  13.236   2.406  10.861  0.0970  0.0454  0.0791
 9158W        W25419  16.974   0.259  12.774 -0.1892  0.1653  0.1767
 9159W        W25420  14.091   3.599  13.208  0.2248  0.0143  0.2749
 9160W        W25421  13.876   6.155  12.334  0.4716  0.1066 -0.1065
 9161W        W25422  18.603   0.908   2.015 -0.0274  0.1413 -0.0601
 9162W        W25423   7.095   1.644  12.708 -0.2241  0.0906  0.0896
 9163W        W25424   4.124   3.421   4.534  0.0830  0.0980 -0.2233
 9164W        W25425  12.463   9.994  13.540 -0.0288 -0.2195  0.0385
 9165W        W25426  18.287  14.896   3.888  0.0147 -0.2754  0.3043
 9166W        W25427  11.565  15.871  12.690  0.3289  0.3312 -0.4915
 9167W        W25428   4.934   4.781   2.383  0.2983 -0.3289 -0.1205
 9168W        W25429   4.542  14.195   5.163  0.0131  0.2175 -0.0415
 9169W        W25430  12.526  17.652  10.270 -0.1475  0.1249  0.1200
 9170W        W25431  16.954   9.650   1.395 -0.3481  0.1665 -0.0183
 9171W        W25432  13.065  15.769   0.718 -0.1528  0.2192 -0.0191
 9172W        W25433   4.957   5.984   0.179 -0.2431 -0.1931  0.0554
 9173W        W25434   7.976  17.542   2.910  0.3281  0.0633 -0.0170
 9174W        W25435   9.218  17.706  12.910  0.1151 -0.2516  0.1228
 9175W        W25436   0.223  13.714  13.664 -0.0600 -0.2053 -0.0934
 9176W        W25437   1.577   9.368   2.375  0.2613 -0.0289  0.0662
 9177W        W25438  17.002  15.709  14.438 -0.1987  0.2577 -0.0024
 9178W        W25439  17.518  18.421  13.863 -0.1091 -0.2970 -0.1796
 9179W        W25440   5.953  16.206   1.555 -0.2237 -0.0698 -0.0103
 9180W        W25441  18.865  11.688   1.796  0.1638  0.0743 -0.1960
 9181W        W25442  17.513  10.684  11.711 -0.1305  0.1393 -0.0279
 9182W        W25443   1.300   0.519   2.052  0.4041  0.0986  0.3526
 9183W        W25444   6.055  14.618  13.955  0.0043  0.0858 -0.0473
 9184W        W25445  12.490  11.492  12.290 -0.4716  0.1584  0.2475
 9185W        W25446   9.946   6.399   9.639  0.0889 -0.4835 -0.2114
 9186W        W25447   9.968   8.648   1.784  0.0657  0.2200  0.1686
 9187W        W25448  11.671  14.217   1.491 -0.2443  0.2379  0.0887
 9188W        W25449  12.412  17.235  12.508  0.2428  0.0888 -0.3504
 9189W        W25450  13.156  12.229   3.683 -0.3999 -0.0992 -0.2108
 9190W        W25451  10.388   7.109  10.342 -0.2657 -0.0655  0.0677
 9191W        W25452  10.371   2.005   3.231  0.1112 -0.1252 -0.2404
 9192W        W25453  15.546  14.725   3.284  0.1849 -0.1904  0.0739
 9193W        W25454   8.631  16.367   1.998  0.4565  0.0136  0.0491
 9194W        W25455   4.280  11.076   3.425  0.5435  0.1104  0.1497
 9195W        W25456  11.097  13.397   4.343  0.0293  0.1286 -0.2398
 9196W        W25457   6.031   2.028   2.098 -0.2672  0.2043 -0.1113
 9197W        W25458   3.924   0.462  12.958 -0.3300 -0.4039 -0.3790
 9198W        W25459   6.277   8.489   4.327  0.0781  0.1305  0.2482
 9199W        W25460   3.566  13.692  12.887 -0.3573 -0.1092  0.3341
 9200W        W25461   6.976   9.073  11.495  0.0732  0.1930  0.0425
 9201W        W25462   1.028  17.623   1.936 -0.1943  0.0382  0.0533
 9202W        W25463  15.860   2.255   1.758  0.0025  0.1525 -0.3205
 9203W        W25464  17.913  16.785   3.270 -0.0391 -0.2978  0.1942
 9204W        W25465  12.711  14.666  12.661 -0.2551  0.0487  0.1068
 9205W        W25466  15.945   7.041  13.468 -0.1211 -0.2093 -0.1453
 9206W        W25467   6.489  15.209   4.508  0.0486  0.4205 -0.2172
 9207W        W25468  14.141   8.251  11.671 -0.0196  0.3612 -0.0903
 9208W        W25469   6.800   7.357   1.519 -0.0595  0.2352  0.4157
 9209W        W25470  19.337  17.889  10.029 -0.0736  0.0834  0.1831
 9210W        W25471  17.214   2.657   2.260 -0.1458  0.0235 -0.7228
 9211W        W25472   8.555   2.444  13.718  0.0782 -0.2264  0.0147
 9212W        W25473   4.421   8.393  11.033 -0.1268  0.0675  0.0882
 9213W        W25474   4.069   1.715  10.676 -0.3762  0.1811 -0.0899
 9214W        W25475   0.533  14.096   2.239  0.2373 -0.3822  0.3532
 9215W        W25476  10.632  12.822   0.446 -0.2104 -0.0932 -0.0315
 9216W        W25477   6.259   9.047   4.607  0.3088 -0.0517  0.1745
 9217W        W25478   2.890  13.701   2.437  0.0709  0.0726  0.0689
 9218W        W25479   3.664   4.271  14.394 -0.0742 -0.1848 -0.1821
 9219W        W25480  11.313   9.992   1.204 -0.0028  0.1303  0.5251
 9220W        W25481   9.107   8.943   0.683 -0.1795 -0.0541 -0.0928
 9221W        W25482  12.253  11.585   4.423  0.0144 -0.1457  0.0688
 9222W        W25483  15.297  14.710   6.119  0.0216  0.2972  0.1006
 9223W        W25484   7.188   9.681  10.217  0.2315  0.1104 -0.0824
 9224W        W25485  19.339   9.271   1.241 -0.2258  0.1958 -0.0329
 9225W        W25486   6.865   5.190  10.632  0.1995 -0.0301  0.1022
 9226W        W25487  17.993   6.189  12.505  0.2886 -0.0503 -0.2660
 9227W        W25488  10.147  19.219  11.178  0.3615  0.2833 -0.0067
 9228W        W25489   5.699  16.844  10.905  0.1574  0.1638  0.0697
 9229W        W25490  16.555  14.753   4.364 -0.1259  0.1069  0.5125
 9230W        W25491  16.821  14.747   1.456 -0.2254  0.1057  0.1873
 9231W        W25492  17.067  17.643  13.966 -0.0424  0.1022  0.3454
 9232W        W25493  12.632   6.341  10.811  0.6991  0.0900 -0.1442
 9233W        W25494   2.214   2.614   0.256 -0.0522  0.2036 -0.0188
 9234W        W25495   7.852  12.878   2.106 -0.2841 -0.0640  0.1747
 9235W        W25496   3.957  13.420   4.900 -0.1245 -0.2783 -0.1548
 9236W        W25497  16.817   8.210  13.578  0.0311  0.3747  0.2349
 9237W        W25498   9.851  15.339  12.675 -0.0570  0.2054  0.2946
 9238W        W25499  16.729   9.303  11.002  0.0290 -0.3859  0.0681
 9239W        W25500   8.669  15.724   1.808 -0.1369  0.4252  0.0472
 9240W        W25501  12.764  15.109  14.402 -0.2953 -0.0700 -0.0383
 9241W        W25502   2.674   2.689   2.427  0.3637  0.0803  0.0129
 9242W        W25503   2.836  18.248   3.176  0.0178 -0.0079  0.1185
 9243W        W25504  10.637   2.679   2.476  0.1746  0.1970  0.2136
 9244W        W25505   2.877  15.852   1.988  0.4199 -0.0915 -0.0805
 9245W        W25506   7.657   5.799   0.936  0.1602  0.1483  0.1316
 9246W        W25507  12.439   1.166  11.669  0.4533 -0.0090  0.0907
 9247W        W25508  16.337  16.063   0.332 -0.0390  0.2982  0.0219
 9248W        W25509  17.827   0.755  10.879 -0.2864  0.0933 -0.0500
 9249W        W25510   2.566   2.546   2.913  0.1324 -0.1878 -0.1306
 9250W        W25511   1.994   7.673   1.106  0.4239  0.0439  0.1845
 9251W        W25512  12.634   7.968   2.154 -0.2983  0.0269  0.0721
 9252W        W25513  16.751  16.884   2.777 -0.2405 -0.4412 -0.1643
 9253W        W25514  13.369   4.817   4.968  0.0321 -0.1182 -0.0524
 9254W        W25515   5.179  10.466   3.144 -0.1992 -0.0555 -0.0206
 9255W        W25516   8.580  14.084  12.450 -0.0300  0.0411  0.2057
 9256W        W25517  14.967  15.187  11.702 -0.2142  0.1984  0.1461
 9257W        W25518  14.845   2.781  10.982 -0.1040  0.2047 -0.0868
 9258W        W25519   8.141  12.716  10.994 -0.0812 -0.0472 -0.0254
 9259W        W25520   8.594  10.388   3.422 -0.1869  0.0752 -0.1383
 9260W        W25521   7.022  11.483   5.259  0.1557  0.0994 -0.2939
 9261W        W25522   3.303  15.436   0.779 -0.1215 -0.2756  0.1083
 9262W        W25523  14.462   4.939  13.445 -0.0903 -0.0546 -0.0489
 9263W        W25524   3.592  13.285  12.533 -0.0898 -0.0357  0.0629
 9264W        W25525   1.988   5.220   4.545 -0.1654  0.1713 -0.0111
 9265W        W25526   7.071  10.906  13.019 -0.4661  0.0935  0.2939
 9266W        W25527  17.924   7.760  12.444 -0.0642 -0.2357 -0.1878
 9267W        W25528  17.046  17.697  12.406 -0.0208  0.4333  0.2928
 9268W        W25529   1.601  14.617   4.215 -0.2253  0.2767 -0.2998
 9269W        W25530   3.753  12.271   2.883  0.0265  0.1313  0.2748
 9270W        W25531  10.943   0.553   2.513 -0.1582  0.1894 -0.0552
 9271W        W25532   5.401   9.862   0.362 -0.2075  0.1160 -0.1990
 9272W        W25533  11.631   9.151  12.262  0.1423 -0.0282 -0.1460
 9273W        W25534  10.279   6.246   5.286  0.2517  0.4755 -0.1601
 9274W        W25535  16.094  16.282   2.950  0.0953  0.1355  0.2248
 9275W        W25536   8.229   9.166   4.142  0.0251  0.1712  0.0504
 9276W        W25537  16.885   4.986  14.492  0.1223 -0.0365 -0.3885
 9277W        W25538  14.380  16.800   4.510 -0.0546 -0.2289  0.0766
 9278W        W25539   0.343   1.471  12.707  0.0675 -0.0625 -0.0951
 9279W        W25540   0.195   1.627  12.012  0.1763 -0.0763 -0.1282
 9280W        W25541   8.686  11.197   2.241  0.0415  0.1450  0.0703
 9281W        W25542   4.535   4.758   0.979 -0.0274 -0.2723  0.0544
 9282W        W25543  18.850  13.159   4.629  0.0071  0.3096 -0.0856
 9283W        W25544   2.143  14.043   4.074 -0.1282 -0.0417 -0.2214
 9284W        W25545   0.705   4.701  10.986 -0.2024  0.2399 -0.0633
 9285W        W25546   9.181   5.977   9.914 -0.3305 -0.0805  0.0425
 9286W        W25547  11.798  12.292   2.727  0.1180 -0.4197 -0.2357
 9287W        W25548   9.857  18.933   0.545 -0.1370 -0.1227  0.2009
 9288W        W25549  14.800  11.012  12.227  0.0425 -0.1486 -0.2740
 9289W        W25550   8.890   3.257   4.821 -0.0684 -0.1875 -0.0682
 9290W        W25551  10.050  18.580   2.506 -0.1246  0.2212 -0.1485
 9291W        W25552   7.759  14.449   2.441 -0.1290 -0.1283  0.2038
 9292W        W25553  17.851  13.180  13.832  0.1021 -0.0461  0.0620
 9293W        W25554   3.875  10.171  14.556  0.2806 -0.1571 -0.0261
 9294W        W25555   5.256   2.716  10.994 -0.1586  0.1875  0.2477
 9295W        W25556   8.946   2.353  11.881 -0.2074 -0.0124 -0.0914
 9296W        W25557  11.570  10.546   2.058 -0.1648 -0.0556  0.0174
 9297W        W25558  15.804  16.382  11.032  0.0233  0.3190  0.3036
 9298W        W25559  16.021   9.666   1.820  0.0497  0.3129  0.0458
 9299W        W25560   9.040   4.524   1.811 -0.1196 -0.0746  0.1197
 9300W        W25561  10.295  11.739  11.499  0.2499  0.0136  0.3506
 9301W        W25562   8.846  15.189   3.300  0.0446 -0.4453  0.2247
 9302W        W25563  13.916  12.816   0.575  0.1305  0.3016 -0.3159
 9303W        W25564   8.638  13.287   4.872 -0.3839  0.2922  0.0659
 9304W        W25565  18.560   8.572  14.189  0.0918 -0.1643  0.0535
 9305W        W25566  16.458   4.009  11.788  0.0380  0.0089  0.0302
 9306W        W25567   6.812  10.753  13.416 -0.4143 -0.1037  0.1419
 9307W        W25568   5.776  10.955  11.264 -0.0366  0.1149 -0.0561
 9308W        W25569  13.785   2.851  13.393  0.2539 -0.0778 -0.1454
 9309W        W25570  12.702   7.527   2.387 -0.0451  0.3261  0.0608
 9310W        W25571   3.845  13.894  11.352  0.4573 -0.1756 -0.2238
 9311W        W25572   5.797  16.969  12.885 -0.1384  0.2353 -0.1997
 9312W        W25573   4.571  12.161   0.206  0.1622  0.2145 -0.2365
 9313W        W25574  13.057  11.128  13.609  0.4318 -0.2603  0.3119
 9314W        W25575  15.649   7.401  10.270 -0.0603 -0.2299  0.1107
 9315W        W25576  14.854   6.814  13.174 -0.0122  0.0695  0.1737
 9316W        W25577  13.057  17.547   0.082 -0.2160  0.1658  0.2747
 9317W        W25578  12.629  18.784   0.061  0.2375  0.0231 -0.2499
 9318W        W25579  15.757   8.922  11.218  0.0872  0.1210 -0.0001
 9319W        W25580   8.582   3.245   2.135  0.0972  0.1782  0.2090
 9320W        W25581   5.507  12.264   1.115  0.0081  0.4260 -0.1091
 9321W        W25582   8.005  13.904   4.358 -0.1863  0.0014  0.0778
 9322W        W25583   4.413   9.589  12.728 -0.1632 -0.1232 -0.0736
 9323W        W25584   0.697   7.121   2.678 -0.0583  0.2137 -0.0602
 9324W        W25585   9.295   7.440   3.124  0.1602 -0.0833  0.4287
 9325W        W25586   1.470  13.181   1.650  0.2240  0.0777  0.1995
 9326W        W25587   1.360  11.213  11.889  0.0518  0.2777  0.0332
 9327W        W25588  16.583   5.403   3.042  0.2849  0.1587  0.0591
 9328W        W25589  11.288  13.105  11.928 -0.0415  0.1627 -0.0139
 9329W        W25590   3.793  18.985   2.055 -0.1941  0.1999  0.4315
 9330W        W25591   7.568   7.849   2.543 -0.1672 -0.4393 -0.1944
 9331W        W25592  10.164  14.601  10.443  0.1456  0.1309 -0.0298
 9332W        W25593   9.175  13.408   1.455  0.4281  0.4953 -0.3425
 9333W        W25594  14.221   6.277  10.302  0.0294  0.1130  0.2729
 9334W        W25595  14.825   0.726   2.982  0.1456  0.2601  0.1080
 9335W        W25596   3.101  11.999  11.001  0.1623 -0.1425  0.0582
 9336W        W25597  10.090   4.065   0.619  0.1216  0.1087  0.0628
 9337W        W25598  16.318   3.084  14.392 -0.3708 -0.0901  0.0941
 9338W        W25599  10.264  16.787  11.702 -0.0780  0.3272 -0.2379
 9339W        W25600   3.701   4.054   9.592  0.4727 -0.1484 -0.0630
 9340W        W25601   0.987   8.781  13.915 -0.0509 -0.1299  0.0867
 9341W        W25602   7.764  15.425  14.432 -0.0962  0.1844 -0.3236
 9342W        W25603   9.311   4.458   4.207 -0.0742 -0.1441  0.0011
 9343W        W25604   6.726  19.459   1.474 -0.1735 -0.0754 -0.1855
 9344W        W25605   1.522  18.840  11.875  0.0238 -0.2991 -0.1120
 9345W        W25606   4.955  17.935   3.265 -0.1526 -0.2191  0.0188
 9346W        W25607  13.990  11.949   2.174  0.1270 -0.1937 -0.2260
 9347W        W25608   9.067   5.537   3.942 -0.2519  0.0706  0.0098
 9348W        W25609  18.997  14.724  10.400  0.0035 -0.1372  0.0899
 9349W        W25610  15.914   0.905   4.695  0.0954 -0.1953  0.1840
 9350W        W25611   3.052  15.670   1.147  0.2145 -0.1691  0.1464
 9351W        W25612   5.812  17.198   4.677 -0.0316  0.1739  0.1242
 9352W        W25613   8.989   2.978   1.008  0.1593 -0.2610  0.1987
 9353W        W25614   4.418  16.699   1.533  0.2130 -0.0217  0.0290
 9354W        W25615   8.803   1.630  11.780 -0.0229 -0.0424  0.1965
 9355W        W25616   0.987  18.165   1.834  0.0568  0.0146 -0.1603
 9356W        W25617  12.037  18.878  11.866 -0.2242 -0.1835 -0.0194
 9357W        W25618  17.171   7.197   9.220  0.0187  0.0967  0.0033
 9358W        W25619  17.735   9.233  10.418 -0.2493 -0.1563 -0.1762
 9359W        W25620   2.372  17.851  11.698  0.4331 -0.2503  0.4672
 9360W        W25621  16.518  18.170   0.339 -0.2496  0.2418  0.0834
 9361W        W25622   7.759   2.984   1.890 -0.2523  0.2892 -0.2036
 9362W        W25623  19.412   3.162   9.908  0.5700 -0.0489  0.0679
 9363W        W25624   2.415  15.504   3.321  0.1162  0.0287 -0.1539
 9364W        W25625   2.138  15.376   4.538 -0.1872  0.0124 -0.2323
 9365W        W25626   6.404  13.772   5.026 -0.0916  0.2409  0.1907
 9366W        W25627   3.262  13.590  13.381 -0.0437 -0.0282  0.1942
 9367W        W25628   0.395  16.431  12.776  0.3191  0.0902 -0.1948
 9368W        W25629   3.733  14.842   4.351 -0.0980 -0.0312  0.0521
 9369W        W25630   8.218  16.146   2.981  0.1109 -0.1937  0.0263
 9370W        W25631  16.866  16.159  12.975  0.0433 -0.2014  0.1726
 9371W        W25632  11.583  15.000  13.856 -0.0010 -0.0644 -0.0886
 9372W        W25633  13.645   2.460   2.125 -0.0838 -0.0796  0.0946
 9373W        W25634   9.312   7.912   9.849 -0.0841 -0.1296  0.2099
 9374W        W25635   3.216   6.793  10.436  0.0901 -0.4434 -0.0714
 9375W        W25636  17.308  15.665   1.226 -0.0413 -0.0112  0.1569
 9376W        W25637   0.939  10.587   0.184  0.0640 -0.1572 -0.1554
 9377W        W25638  14.553   0.113   5.298 -0.1688  0.1381 -0.2688
 9378W        W25639   6.182  12.362   0.628  0.2645  0.0796  0.0296
 9379W        W25640   9.970   9.206  13.731 -0.0805  0.1263 -0.2725
 9380W        W25641  12.409   7.925   2.611  0.1758  0.0465  0.0035
 9381W        W25642   1.851  11.035  12.984  0.0100 -0.1345 -0.2529
 9382W        W25643   2.318   3.698  12.561 -0.0579 -0.0695  0.2572
 9383W        W25644  13.585  15.961  13.295 -0.1150 -0.0914 -0.0738
 9384W        W25645   3.436   0.211  10.209  0.0923  0.0107 -0.2778
 9385W        W25646  16.473   5.389   4.245 -0.1318  0.2204  0.2430
 9386W        W25647  12.796   8.753   3.843  0.1979 -0.2271 -0.1683
 9387W        W25648  15.423   1.182   0.093 -0.0551 -0.1553  0.1307
 9388W        W25649  16.812  13.698   0.385  0.1736  0.1772  0.0019
 9389W        W25650   3.570   4.717   4.811 -0.2245  0.2227  0.0331
 9390W        W25651  16.333   2.342   4.470  0.1180 -0.2309 -0.1397
 9391W        W25652   9.578   2.303  10.065 -0.0447 -0.1878  0.1466
 9392W        W25653   2.657   1.729   4.879 -0.4821  0.1137 -0.1216
 9393W        W25654  12.208  19.173   0.616  0.1719 -0.3420  0.1555
 9394W        W25655   3.561   2.456  10.819  0.0697 -0.1811  0.1766
 9395W        W25656   7.546  12.972  13.709  0.2479  0.0229  0.3223
 9396W        W25657   0.200   0.231  11.386 -0.2722 -0.0905  0.0016
 9397W        W25658  12.873   9.122   4.201 -0.0784  0.0570 -0.0686
 9398W        W25659  18.058  14.725  11.990  0.1462 -0.1058 -0.1142
 9399W        W25660   4.098   2.586   4.413 -0.1066  0.1891  0.2802
 9400W        W25661   6.636  10.020  12.932  0.0637 -0.0563 -0.1794
 9401W        W25662   4.540  15.855   1.345 -0.1129  0.0469 -0.2100
 9402W        W25663  18.790   7.144  11.828 -0.1355 -0.0126  0.1796
 9403W        W25664   7.646   7.381   3.200  0.2181 -0.1294  0.1287
 9404W        W25665  18.943   1.819  12.902 -0.1230  0.2480  0.2749
 9405W        W25666  17.838  11.577   0.021  0.3615  0.2229  0.0409
 9406W        W25667  14.705  18.484  14.171  0.0019 -0.1189  0.1201
 9407W        W25668  18.491   3.187  10.571 -0.2657 -0.0424 -0.1406
 9408W        W25669   6.076   9.273  12.553  0.0583 -0.0802  0.1049
 9409W        W25670  10.710  13.055  14.710 -0.0898 -0.1459  0.3233
 9410W        W25671   7.779   0.691  13.899  0.0639 -0.1338  0.0663
 9411W        W25672   7.960  16.117   2.115  0.1144 -0.1345 -0.1528
 9412W        W25673  19.161  10.344   4.467  0.0373 -0.2205 -0.0122
 9413W        W25674  19.449  12.541   2.707 -0.2238  0.1802 -0.0170
 9414W        W25675   3.304   3.147   4.972  0.2546 -0.0086 -0.2223
 9415W        W25676   8.169   9.903  12.258 -0.0861  0.0646 -0.1312
 9416W        W25677   5.518   6.697   3.546 -0.1717  0.2597  0.0643
 9417W        W25678   6.278  11.714  10.582 -0.2231  0.1010  0.0774
 9418W        W25679  13.034   5.846  12.776  0.1605  0.4673  0.1066
 9419W        W25680  16.489   3.457  13.550 -0.2642 -0.1336 -0.2731
 9420W        W25681  13.183   4.884   0.044 -0.0033 -0.4782  0.2675
 9421W        W25682  14.634   9.133  14.705 -0.0123  0.1317  0.0805
 9422W        W25683  18.761  19.450   0.807  0.2000 -0.2684 -0.0466
 9423W        W25684   0.750   5.264  12.285  0.0914 -0.0158 -0.1164
 9424W        W25685   7.877  18.673  13.691  0.1443 -0.0604 -0.3041
 9425W        W25686   1.772   9.510   1.160 -0.0977  0.0948  0.4297
 9426W        W25687  13.612  13.251  13.606  0.2515  0.2791 -0.4149
 9427W        W25688   6.824   8.245   9.867 -0.0218  0.0542 -0.0913
 9428W        W25689  19.366   4.647   0.386  0.0859 -0.0308 -0.0707
 9429W        W25690   7.172  10.053  14.217 -0.0238  0.1518 -0.2657
 9430W        W25691  14.103  10.021   3.000  0.1225  0.0805  0.0481
 9431W        W25692   9.577   6.620   4.144 -0.2292  0.0615 -0.0994
 9432W        W25693  18.397  15.316   0.524 -0.0719  0.0828 -0.1015
 9433W        W25694   9.219  11.857   1.320 -0.1999  0.0605  0.0216
 9434W        W25695   5.269  17.669  12.379  0.1973  0.1170 -0.3566
 9435W        W25696   1.515  17.742  11.824 -0.2043 -0.0640  0.2770
 9436W        W25697   9.611   4.772   1.218  0.2110 -0.0062  0.2714
 9437W        W25698  15.610  14.242  14.584  0.3336  0.0199 -0.3636
 9438W        W25699   9.034  16.122  10.653 -0.1624  0.1101 -0.2156
 9439W        W25700   7.764  17.062  14.142 -0.0122  0.0782  0.2748
 9440W        W25701  16.568  13.027   9.135 -0.0465  0.2018 -0.1305
 9441W        W25702  10.817   8.898  13.830 -0.1258 -0.1508  0.0870
 9442W        W25703   0.095   2.673   1.681  0.2438  0.0226 -0.0547
 9443W        W25704   8.552   0.893   4.600 -0.1105  0.0805  0.0821
 9444W        W25705  10.206  18.483   1.651  0.1748  0.2180 -0.2344
 9445W        W25706  10.624   4.917   3.389  0.0437  0.1907  0.0760
 9446W        W25707   7.527  14.912  13.572  0.1891  0.2395 -0.2824
 9447W        W25708  14.118   9.870  12.982 -0.1655 -0.0708 -0.2354
 9448W        W25709   9.969   0.051  10.419 -0.2600  0.0026  0.1296
 9449W        W25710  18.036  14.644  12.778 -0.0845 -0.2370 -0.0365
 9450W        W25711   8.175   3.262  10.093 -0.0606  0.0827 -0.0455
 9451W        W25712  13.777   7.490   3.133  0.0910 -0.0366  0.1366
 9452W        W25713  14.557  10.623  10.895  0.0100  0.3670 -0.2325
 9453W        W25714  17.544  15.597   3.689 -0.0144 -0.0997  0.3550
 9454W        W25715   4.986  18.465  14.023 -0.1010 -0.1955 -0.3049
 9455W        W25716   3.040  13.154  13.545 -0.1214 -0.0552 -0.4862
 9456W        W25717   3.557  19.085  12.679 -0.1215  0.4527  0.1040
 9457W        W25718   2.407   8.847   3.651 -0.2776  0.3945 -0.2634
 9458W        W25719  15.859   6.303   0.203 -0.1130  0.3003 -0.0665
 9459W        W25720   8.796   0.279  11.164 -0.1410 -0.1236  0.3298
 9460W        W25721   7.877   9.596   0.604 -0.2750 -0.1827 -0.2877
 9461W        W25722  13.489   7.939   5.242  0.2176 -0.0229 -0.1587
 9462W        W25723   6.982   9.117  14.396 -0.2351  0.0394 -0.3517
 9463W        W25724  15.806  13.390  10.733  0.0013 -0.1910  0.2882
 9464W        W25725   6.993  15.395   5.326  0.1413 -0.1488 -0.2477
 9465W        W25726   2.148  15.544  11.908  0.1114  0.0149  0.2535
 9466W        W25727   6.520  15.836   0.708  0.0021 -0.2394 -0.0627
 9467W        W25728  18.987  14.000  11.120  0.2308 -0.1493  0.0619
 9468W        W25729  11.700   5.834   1.457  0.1792  0.0889 -0.0700
 9469W        W25730  18.897   3.589  12.539  0.1132 -0.0276  0.2488
 9470W        W25731  14.250  12.369  12.542  0.1067  0.3331 -0.0957
 9471W        W25732  16.949   4.696   1.191  0.1849 -0.2182 -0.2210
 9472W        W25733   5.971   9.918  12.814  0.1391 -0.0746 -0.3750
 9473W        W25734   6.725  17.922   1.409  0.1218  0.0200 -0.1919
 9474W        W25735  18.703   6.684   5.479 -0.0816  0.0575 -0.1619
 9475W        W25736  10.874   0.320   4.763  0.0103 -0.0141  0.0952
 9476W        W25737  11.867   3.664   4.052 -0.5927 -0.2573  0.2618
 9477W        W25738  13.945   5.502   2.491 -0.1115 -0.2238 -0.0441
 9478W        W25739   9.355  18.032   1.238 -0.0863 -0.1242 -0.5229
 9479W        W25740  18.335  15.552   1.477 -0.1216 -0.1593 -0.1651
 9480W        W25741  11.898   1.374   3.776  0.2530 -0.1689 -0.0617
 9481W        W25742   2.835   8.532  11.931  0.1917 -0.1848  0.1099
 9482W        W25743   3.117  16.240  11.164 -0.0984  0.4040  0.1698
 9483W        W25744   4.142   4.370   4.062 -0.0405  0.0472 -0.0298
 9484W        W25745  15.223   4.978   0.103 -0.0616 -0.3524 -0.3654
 9485W        W25746  10.610   3.476  14.121 -0.0933  0.3880 -0.0501
 9486W        W25747   4.779  13.427   1.433  0.0922  0.0963 -0.2853
 9487W        W25748  18.059  18.625  12.653 -0.0734 -0.0647  0.2427
 9488W        W25749  18.415  10.203  13.425 -0.1917 -0.2439 -0.0420
 9489W        W25750  17.571   2.990   3.406  0.2215 -0.0496 -0.2916
 9490W        W25751  14.303   6.279  10.981 -0.1079  0.4076 -0.2494
 9491W        W25752  12.850  13.916  10.069  0.0259  0.2853 -0.1004
 9492W        W25753   8.808  16.038  14.468  0.1994  0.3244  0.1101
 9493W        W25754  10.645  19.341  11.190  0.1087  0.2127  0.3181
 9494W        W25755   0.532  13.143  11.514  0.0989 -0.0931 -0.0152
 9495W        W25756  10.796   0.036  13.952 -0.4050  0.0001  0.2245
 9496W        W25757   4.262  11.901   2.958 -0.1525  0.3770  0.1583
 9497W        W25758   3.354  13.310  12.086  0.2136  0.0325  0.2225
 9498W        W25759   3.438  10.209   4.458 -0.2890 -0.1953 -0.1084
 9499W        W25760  13.297  18.797   4.655  0.0476 -0.1032  0.4801
 9500W        W25761   8.966  18.082   5.417 -0.0278 -0.3086  0.1244
 9501W        W25762  12.860  15.034   5.887  0.2331 -0.1502 -0.1018
 9502W        W25763   4.558   3.437  11.950 -0.1201 -0.1397 -0.2940
 9503W        W25764   7.969  12.508   4.281 -0.2630 -0.3184  0.2335
 9504W        W25765   9.933   6.063  13.225 -0.1270 -0.2092 -0.0724
 9505W        W25766  17.588   0.727   2.377 -0.1829  0.0579  0.0734
 9506W        W25767  12.289   8.653   4.756  0.1760  0.1206 -0.0989
 9507W        W25768  16.250   7.884  13.058  0.2754 -0.1995  0.0964
 9508W        W25769   1.426   3.634   2.773 -0.3909 -0.0568 -0.1279
 9509W        W25770  15.394   5.982   5.518  0.0730 -0.0209  0.0850
 9510W        W25771  16.574   7.345  14.452  0.1769  0.4785 -0.0394
 9511W        W25772   4.551  15.572  14.329  0.0309 -0.0665 -0.0709
 9512W        W25773  12.688   1.144  12.899 -0.0335 -0.2061 -0.2188
 9513W        W25774  13.063  12.357  14.523  0.1038  0.2617  0.0093
 9514W        W25775  13.556   7.359   5.354 -0.4838  0.1512  0.1203
 9515W        W25776  13.208   7.620   2.198  0.2896 -0.0282  0.1211
 9516W        W25777   7.976   0.432   3.784  0.1965  0.3300 -0.0430
 9517W        W25778   0.315   5.273   2.773 -0.1315  0.2182 -0.0459
 9518W        W25779  14.036   9.137  14.731  0.0318 -0.2776 -0.0821
 9519W        W25780  17.946   5.477   1.287  0.1772 -0.1341 -0.1836
 9520W        W25781  12.329   1.038  13.233 -0.0724 -0.1878 -0.2096
 9521W        W25782  11.110  16.530  13.205  0.0937 -0.2562 -0.1667
 9522W        W25783  13.231  17.585   2.656  0.1517 -0.0294  0.0209
 9523W        W25784   4.100  18.008   3.727 -0.3715  0.1779  0.2040
 9524W        W25785   5.572  13.042  10.801 -0.1023 -0.3331  0.3957
 9525W        W25786   9.503   2.015   0.006 -0.3307  0.1353 -0.0556
 9526W        W25787  15.147   2.946   4.202 -0.1549 -0.2390 -0.1413
 9527W        W25788   0.680  11.226   3.542 -0.5364 -0.0710  0.1617
 9528W        W25789  15.367   1.368   4.187  0.3059 -0.0188  0.0841
 9529W        W25790  14.294  11.007  10.740 -0.1668  0.0368 -0.3398
 9530W        W25791  11.267  16.302   2.822  0.2344  0.0623  0.0756
 9531W        W25792   0.385  10.991  10.635 -0.3503 -0.0981 -0.2333
 9532W        W25793  16.663   5.463  12.893  0.0401 -0.4771 -0.0478
 9533W        W25794   6.340   2.757   9.416 -0.0917  0.0733 -0.4846
 9534W        W25795   4.704  17.851   0.181 -0.1507  0.0309  0.3178
 9535W        W25796  10.153  11.041   3.025 -0.0985  0.2422  0.1313
 9536W        W25797  17.820  15.177  12.718  0.0764  0.0493 -0.1525
 9537W        W25798  18.174  16.083   0.279  0.0674 -0.3294 -0.0097
 9538W        W25799   1.702  11.532   2.448  0.0409 -0.0429 -0.1172
 9539W        W25800   0.259   8.967  10.761 -0.1112 -0.0374 -0.0749
 9540W        W25801  19.179   0.258  13.422  0.2016  0.0025 -0.1439
 9541W        W25802   4.266   4.370   2.403  0.2838 -0.2500  0.1436
 9542W        W25803   8.222   8.671  10.977  0.3621 -0.0307  0.3833
 9543W        W25804   0.648  13.712  11.633  0.0968 -0.0165 -0.1698
 9544W        W25805   0.056   5.111  14.342 -0.1114 -0.1522 -0.0072
 9545W        W25806   7.045   8.543  11.176 -0.2372  0.1436 -0.1213
 9546W        W25807  19.026   5.497   1.694  0.0352  0.1768  0.1737
 9547W        W25808  14.643  13.011   4.991 -0.0770  0.2038 -0.1724
 9548W        W25809  10.266  10.389   2.524 -0.3179 -0.1034 -0.1571
 9549W        W25810   0.518  12.100   5.728  0.1448 -0.2108  0.1711
 9550W        W25811   4.442   9.521   1.046  0.1082 -0.0202 -0.0747
 9551W        W25812  12.852  17.533  14.143 -0.1226  0.3946 -0.1512
 9552W        W25813   0.893   2.302   5.828 -0.0506  0.1309  0.1599
 9553W        W25814  11.392  13.635   2.780 -0.1122 -0.0260 -0.0075
 9554W        W25815  12.967  14.798  13.902  0.0418  0.1334  0.0939
 9555W        W25816   9.756  13.664  12.372 -0.2931  0.2645 -0.0923
 9556W        W25817   0.965   8.377   4.127  0.5642  0.0954 -0.0053
 9557W        W25818   9.749  12.933   1.085  0.1380  0.0207 -0.1571
 9558W        W25819  10.870  15.265   4.412 -0.0041  0.3474 -0.1531
 9559W        W25820  10.732   0.405  13.581 -0.2829  0.2097  0.0503
 9560W        W25821   7.444   5.851   9.398 -0.1269  0.0251 -0.0439
 9561W        W25822   2.187   4.673  14.442  0.2850  0.1477  0.1992
 9562W        W25823  15.238   3.494   2.387 -0.2296 -0.2623 -0.0419
 9563W        W25824   7.652  14.866  11.826  0.0665  0.0859  0.1380
 9564W        W25825   7.853   0.470   0.429  0.1692 -0.2734  0.2050
 9565W        W25826  18.558  16.974   0.972  0.0923 -0.0276  0.3076
 9566W        W25827  17.366   6.354  11.734 -0.0600 -0.1654 -0.0040
 9567W        W25828  16.570  15.897   4.817  0.1250  0.1666  0.1023
 9568W        W25829   1.348   4.519   3.896  0.3030  0.0566  0.2856
 9569W        W25830   1.923   7.415   3.267 -0.0675 -0.3395 -0.1586
 9570W        W25831   8.241   6.460   2.875 -0.1736  0.0974 -0.1604
 9571W        W25832   9.370  13.665  11.920 -0.1790 -0.2267  0.2922
 9572W        W25833   1.931  18.434  14.305  0.0134  0.1922  0.2550
 9573W        W25834   4.096  11.708  12.622  0.0080 -0.0988  0.1571
 9574W        W25835   6.791   2.751   1.725 -0.1105 -0.3885 -0.7583
 9575W        W25836   0.640   0.039  14.771  0.0226  0.1937  0.0516
 9576W        W25837  17.224  17.039  13.261 -0.0225  0.0643 -0.4759
 9577W        W25838   7.850   1.021   2.683 -0.5323  0.1870 -0.1084
 9578W        W25839   9.677  11.609   2.106  0.1156  0.1007  0.2580
 9579W        W25840   5.449  15.392   2.379  0.2951 -0.2703 -0.1547
 9580W        W25841   7.204  12.224  12.883  0.0859  0.1272  0.1032
 9581W        W25842  12.470   4.612  12.825 -0.2481  0.1082  0.1392
 9582W        W25843  14.711  15.770  13.676  0.0841  0.1404 -0.1951
 9583W        W25844   7.344  16.545   4.391 -0.2718 -0.2185  0.2056
 9584W        W25845   6.225  10.336  12.898  0.1070 -0.2474  0.1275
 9585W        W25846   5.567   5.541   3.228 -0.2870 -0.0637  0.1975
 9586W        W25847   7.902  16.541  14.742  0.1775  0.2166  0.2066
 9587W        W25848  16.234  15.479   4.858  0.1347 -0.0426 -0.1840
 9588W        W25849  13.512  15.541  14.738  0.3989  0.0020 -0.1413
 9589W        W25850  11.766   0.407   0.584  0.1254  0.0204  0.0699
 9590W        W25851  14.941  17.361  12.721 -0.1258 -0.3808 -0.3931
 9591W        W25852   1.486   7.408  11.635  0.0133 -0.0109  0.1573
 9592W        W25853  17.926  18.825   3.776  0.3558 -0.1919  0.0841
 9593W        W25854   4.360   6.808  12.845 -0.1056 -0.2831  0.0460
 9594W        W25855  11.895  13.424  10.943  0.2543 -0.1787 -0.2045
 9595W        W25856   0.368   4.828  13.881  0.0592  0.4084 -0.0656
 9596W        W25857  11.395   2.139  12.198 -0.0614 -0.0219 -0.2052
 9597W        W25858   2.256   7.170  14.269  0.1934  0.0317  0.0211
 9598W        W25859   0.346  18.223  13.134 -0.2241  0.1505 -0.1189
 9599W        W25860  16.707   4.914  11.601 -0.1113  0.1188 -0.2187
 9600W        W25861   3.955  12.452  12.465  0.1856  0.2152 -0.1337
 9601W        W25862  18.767  16.837  12.706  0.0675 -0.1871 -0.2077
 9602W        W25863   5.532  17.719  13.466  0.2078  0.5769  0.0053
 9603W        W25864  10.568  14.421  14.428 -0.2384  0.0879 -0.1632
 9604W        W25865   9.001   0.171   4.550  0.1246  0.0772  0.1333
 9605W        W25866  17.097   4.739  11.842 -0.1824  0.2925 -0.0887
 9606W        W25867   9.751   2.598   0.079 -0.0105  0.1865  0.2477
 9607W        W25868   5.954   0.176  11.495 -0.0576  0.2166 -0.2012
 9608W        W25869  18.785   7.416  11.245  0.1187 -0.0041  0.2147
 9609W        W25870   9.870   7.650   1.045 -0.1899 -0.1255 -0.1422
 9610W        W25871   7.777  11.991  11.475  0.0823 -0.0183  0.1047
 9611W        W25872   1.471   9.563  12.106 -0.0180 -0.0123  0.1702
 9612W        W25873   6.785   4.616  10.484  0.1020  0.0319 -0.1534
 9613W        W25874  17.420  11.774   3.559 -0.0524  0.3481  0.0096
 9614W        W25875   0.726   2.667  12.153  0.3062 -0.0777  0.2649
 9615W        W25876  13.277   8.390   1.131  0.0086 -0.4380  0.0826
 9616W        W25877  18.758  18.319  10.986  0.3166 -0.1712 -0.0787
 9617W        W25878   6.850  12.732   1.833  0.1508  0.4192  0.2723
 9618W        W25879   6.710  18.606   2.073 -0.0725 -0.1253  0.1838
 9619W        W25880  19.053  15.900  10.845 -0.0109  0.1350  0.3012
 9620W        W25881  15.088  18.180  14.014  0.2572  0.1132  0.4213
 9621W        W25882   9.452  18.620   0.641  0.1795  0.1799  0.3943
 9622W        W25883  14.349  11.989  12.902  0.1699 -0.1492 -0.0069
 9623W        W25884   3.415  17.633   2.347 -0.0812  0.2744 -0.1333
 9624W        W25885   6.107  16.988   3.750 -0.0515  0.1484  0.3063
 9625W        W25886   8.074   5.366  13.971  0.2067  0.3030  0.1587
 9626W        W25887   5.503   5.855   1.527 -0.4708  0.0216 -0.0747
 9627W        W25888  16.220   5.087   3.143  0.1167 -0.0406  0.0996
 9628W        W25889  14.841   5.281   4.748  0.1049 -0.0129  0.0804
 9629W        W25890  17.950  12.159   1.972  0.1569  0.1340 -0.0119
 9630W        W25891  16.122  18.449  11.670 -0.0490  0.1580 -0.0862
 9631W        W25892  16.594  11.700   3.684  0.1607  0.0423  0.0107
 9632W        W25893  13.821  16.565   1.276 -0.3312  0.0434  0.2036
 9633W        W25894  15.455  16.178  12.422  0.1586  0.0247  0.0558
 9634W        W25895  15.658   3.730   3.068  0.2546 -0.1805 -0.1549
 9635W        W25896   4.359   8.769  14.149 -0.0457 -0.0206  0.0035
 9636W        W25897  10.598   7.725  10.945  0.1134  0.0032 -0.0760
 9637W        W25898  18.397   8.964   0.815  0.0604  0.1502  0.0037
 9638W        W25899   5.406  10.626   3.833 -0.0308 -0.1684 -0.1895
 9639W        W25900  14.496   2.065  12.316 -0.2082 -0.0335 -0.2126
 9640W        W25901   0.646  16.554   4.662 -0.1282  0.1759  0.2745
 9641W        W25902   2.544   4.815   0.224  0.2115 -0.0396  0.0134
 9642W        W25903   4.068   2.441  10.386  0.0919 -0.1639  0.0009
 9643W        W25904   1.971   9.671  10.122 -0.2374  0.1254  0.1070
 9644W        W25905  13.097   7.986  13.428  0.0727  0.0329 -0.0417
 9645W        W25906  15.692   8.282   0.247  0.0709 -0.3379  0.2247
 9646W        W25907   8.450  19.269   9.866 -0.0965  0.4660  0.2148
 9647W        W25908  18.855  10.992  11.350  0.2645  0.0611  0.0786
 9648W        W25909   6.328   6.542  12.355  0.3021  0.1533 -0.1350
 9649W        W25910  17.439   8.746  10.562 -0.2558 -0.1480  0.1729
 9650W        W25911   2.915   0.258   2.966 -0.1057 -0.4977  0.0749
 9651W        W25912  18.523  15.913   2.475  0.1017 -0.0214  0.3422
 9652W        W25913  16.475  14.485   1.721  0.4199 -0.2069  0.1710
 9653W        W25914  10.058   9.777  11.629 -0.2835 -0.1568  0.0904
 9654W        W25915   7.778   4.208   0.564  0.3591  0.0180  0.2278
 9655W        W25916  12.905   2.554  14.315  0.1842 -0.0975 -0.2934
 9656W        W25917  13.946  11.724   2.800 -0.0866  0.0386 -0.1529
 9657W        W25918   7.998  13.603  13.875 -0.0406  0.2377 -0.1325
 9658W        W25919  13.406  14.437   0.839 -0.1477 -0.1521  0.2810
 9659W        W25920   6.463   4.672  12.933  0.0029  0.0740 -0.0333
 9660W        W25921   4.167  13.743  14.763 -0.1651  0.5024 -0.1369
 9661W        W25922  14.780  15.312   4.687 -0.2864  0.3223 -0.1683
 9662W        W25923   1.240   5.005  14.332 -0.2929  0.0985  0.5374
 9663W        W25924   9.550  12.145  11.225  0.3340 -0.1089  0.0622
 9664W        W25925   3.727  18.865  11.756  0.4256 -0.3498  0.2249
 9665W        W25926   2.502   6.176   4.823  0.1941 -0.0376 -0.3750
 9666W        W25927  18.344   6.253   2.645 -0.3421 -0.0221  0.1125
 9667W        W25928   2.326  14.946   0.136  0.1235 -0.0658 -0.0913
 9668W        W25929  14.888   9.093  12.531  0.3230  0.0363 -0.2851
 9669W        W25930   8.221  16.655   1.478  0.0206 -0.0374 -0.1374
 9670W        W25931   6.782   8.812   2.248  0.1309  0.0107  0.1343
 9671W        W25932  13.301  16.251   0.658 -0.0664  0.1442 -0.1880
 9672W        W25933   2.296   0.224  13.995 -0.1879 -0.0844  0.3082
 9673W        W25934   3.171   0.980  13.176  0.0824  0.1529 -0.0826
 9674W        W25935  18.963  11.628  13.213  0.0085  0.2028  0.2349
 9675W        W25936  13.973  15.773   0.004  0.1570  0.1863  0.4133
 9676W        W25937   4.168  18.406   3.438 -0.0601  0.2100  0.2256
 9677W        W25938   1.856   5.889   0.018 -0.0292  0.2182  0.1033
 9678W        W25939  18.841  15.184   0.343  0.1208  0.1802  0.0320
 9679W        W25940  15.391  14.240   5.140 -0.3172  0.0402  0.0094
 9680W        W25941  17.021   9.686  11.388  0.0493 -0.1901  0.1087
 9681W        W25942  13.295   8.346  11.727  0.3029  0.2063  0.3209
 9682W        W25943  18.639  13.555   1.289 -0.1424 -0.1023  0.2060
 9683W        W25944  17.082  12.581   2.200 -0.1159  0.0899  0.3836
 9684W        W25945   8.513  15.768   4.587  0.1596  0.3066  0.3506
 9685W        W25946  19.090  16.856  11.159 -0.3561  0.2448  0.0960
 9686W        W25947   5.977  18.984   4.469 -0.0473  0.1215 -0.1056
 9687W        W25948  14.226  11.313  13.038  0.3200 -0.3074  0.0368
 9688W        W25949   3.679   9.256  13.063 -0.0485 -0.3236 -0.1210
 9689W        W25950   5.478   5.441  10.799  0.0555  0.2819  0.0247
 9690W        W25951  18.991   6.463   1.157  0.1911  0.0408 -0.0612
 9691W        W25952  18.256  18.167   0.533  0.4753  0.2788  0.2426
 9692W        W25953  14.510  13.214  11.132 -0.2226  0.0996 -0.0658
 9693W        W25954  11.834   8.501   4.736 -0.2665 -0.1683 -0.0237
 9694W        W25955  12.306   0.552  13.633 -0.1127 -0.2008  0.0760
 9695W        W25956  18.925  11.828   9.940  0.1705 -0.0912  0.2309
 9696W        W25957   6.389   2.687  13.588  0.2592  0.3596  0.1712
 9697W        W25958   2.256  17.021   0.667 -0.4307  0.5950  0.1227
 9698W        W25959   8.161   2.160   1.586  0.1602 -0.2888  0.0730
 9699W        W25960  10.514   1.999   4.916  0.0062 -0.1865 -0.0998
 9700W        W25961   7.313   9.937   4.194 -0.2692 -0.0167 -0.2266
 9701W        W25962   9.775  14.765   1.777  0.0697  0.0061  0.0463
 9702W        W25963   3.826   9.954   1.685  0.1260 -0.0278 -0.1170
 9703W        W25964   3.321   2.137   2.303  0.3239  0.0587 -0.0864
 9704W        W25965   2.673  17.498   9.843 -0.1304  0.1771  0.2480
 9705W        W25966   7.673  14.989  12.359 -0.3214 -0.0645  0.1926
 9706W        W25967   1.674   0.203  12.233 -0.3056  0.2469  0.0898
 9707W        W25968  13.310   0.695  11.552  0.0055 -0.0644  0.3152
 9708W        W25969  15.956   9.045  12.152 -0.1305  0.1434 -0.0977
 9709W        W25970  13.503  13.044   2.227 -0.0099 -0.0126 -0.1145
 9710W        W25971   5.569   2.140  12.319  0.0318 -0.0582  0.2113
 9711W        W25972  10.189   4.004   9.831  0.0688  0.2192  0.2251
 9712W        W25973   4.098  14.533  14.195  0.2854 -0.0695  0.0425
 9713W        W25974   7.879   7.293  13.348 -0.2386  0.0002  0.0007
 9714W        W25975  11.045   4.789   0.453  0.0073 -0.3086  0.2737
 9715W        W25976   4.265   3.485   2.723  0.1107  0.1099  0.0241
 9716W        W25977   7.487   3.494  14.765  0.2335 -0.0017 -0.1317
 9717W        W25978  13.868   2.908   3.972  0.0310  0.0142  0.0285
 9718W        W25979  17.728  16.159  13.379  0.0918 -0.0409 -0.0492
 9719W        W25980  16.810   5.702  13.667  0.1515  0.1954 -0.2015
 9720W        W25981   5.056   2.522   1.726 -0.2674  0.2241 -0.1466
 9721W        W25982   3.381   7.865  13.559  0.1505 -0.1416 -0.2268
 9722W        W25983  16.098  17.742  11.936  0.2699 -0.2288  0.2483
 9723W        W25984   0.394   0.703   4.781 -0.0838  0.0089  0.0894
 9724W        W25985   3.106   2.971  11.146  0.1104 -0.3418  0.0173
 9725W        W25986   5.609  16.703   0.315 -0.2319  0.0532  0.2294
 9726W        W25987   6.557   6.814   2.262  0.0644 -0.1062 -0.0957
 9727W        W25988   8.442  18.506  10.088 -0.3358 -0.2935 -0.1549
 9728W        W25989  13.058   2.892  10.534  0.2679 -0.1298  0.0543
 9729W        W25990   6.816  15.267   0.983 -0.0296  0.3953  0.0237
 9730W        W25991  14.202   9.416  13.852 -0.3759 -0.2477 -0.0037
 9731W        W25992  18.005   1.981   1.627 -0.2875 -0.1843 -0.0096
 9732W        W25993  12.430  14.082  11.950 -0.0115  0.0337 -0.3924
 9733W        W25994   9.647  12.697  14.737 -0.1478  0.0674 -0.0391
 9734W        W25995  10.848   6.498  13.377  0.0968  0.0226 -0.0154
 9735W        W25996  18.964   9.986   3.301  0.1841  0.0832 -0.0213
 9736W        W25997   9.606  16.218  14.663  0.2690  0.0031 -0.2409
 9737W        W25998  18.553  17.760   3.701  0.4324  0.1329 -0.0859
 9738W        W25999   1.665   1.736  10.844  0.0390 -0.0037  0.1290
 9739W        W26000   0.477   5.513   4.518 -0.3282 -0.0382  0.1629
 9740W        W26001   1.733  19.213  10.867 -0.1906 -0.1927  0.1964
 9741W        W26002   4.765   9.888  10.684 -0.0705 -0.0569  0.0969
 9742W        W26003   7.617  10.792  12.342  0.1215 -0.1245 -0.0556
 9743W        W26004  18.633   6.699   0.379  0.3995 -0.1387 -0.3212
 9744W        W26005  19.334  11.050   2.742 -0.0667  0.1776  0.4389
 9745W        W26006   2.901  16.201   3.931 -0.1193 -0.0060  0.0645
 9746W        W26007  18.294  12.730  10.390 -0.1019  0.1057  0.0191
 9747W        W26008  11.678   6.625  10.491  0.0165  0.2872 -0.3418
 9748W        W26009   7.123   7.198   0.129 -0.1322 -0.1243 -0.3378
 9749W        W26010   9.957  16.193  12.594 -0.1007  0.1227  0.0612
 9750W        W26011   8.992  12.523   2.736  0.1356 -0.1686  0.3186
 9751W        W26012   5.766  11.633   2.309  0.0418 -0.3536 -0.1052
 9752W        W26013   2.166   1.899  13.477  0.1429  0.2054 -0.0775
 9753W        W26014   6.856   2.213  10.888 -0.2364  0.0610 -0.2434
 9754W        W26015   9.695   7.959   0.584 -0.1736 -0.1715 -0.3846
 9755W        W26016   3.770   7.750   4.107 -0.0561  0.1269  0.0030
 9756W        W26017   6.555   9.067   0.398  0.0138 -0.0658 -0.0694
 9757W        W26018   6.506  12.525   4.306 -0.1653 -0.0542 -0.1531
 9758W        W26019   5.876  13.712  11.748 -0.1345 -0.2420 -0.2073
 9759W        W26020   6.119  18.866   5.458  0.3085 -0.1283 -0.0910
 9760W        W26021   4.342  10.491   2.878  0.2893 -0.0234  0.0220
 9761W        W26022  14.381  16.075   3.243 -0.0808  0.0143 -0.0146
 9762W        W26023  11.987  11.746   4.842 -0.3256 -0.2421 -0.1681
 9763W        W26024  12.179  13.484  11.333 -0.1924 -0.1177  0.1900
 9764W        W26025  17.163  11.175  10.019 -0.0271 -0.2035  0.3736
 9765W        W26026  12.337   2.212  11.433  0.0616 -0.2230  0.0030
 9766W        W26027   3.121   4.104   3.595 -0.3098  0.0400 -0.1074
 9767W        W26028   9.988  16.975   3.765  0.0027  0.3132 -0.1151
 9768W        W26029   2.369  18.338  13.382  0.1532  0.3896 -0.0548
 9769W        W26030   8.882  13.251   0.051 -0.0602 -0.2248 -0.2332
 9770W        W26031   9.321   5.229  12.073 -0.0758 -0.2283  0.0756
 9771W        W26032  11.672   8.800  10.838 -0.0280 -0.1719  0.1005
 9772W        W26033   6.747   5.146   0.455 -0.2658 -0.2096 -0.0151
 9773W        W26034  11.150  12.796   1.325 -0.1683  0.1116 -0.1824
 9774W        W26035   1.514  13.222  13.833 -0.0957 -0.2128 -0.2583
 9775W        W26036   3.282   6.163   2.424  0.1994  0.2672 -0.2268
 9776W        W26037  19.201  10.466  11.715  0.1223 -0.1542  0.0023
 9777W        W26038   3.923   2.929   8.577 -0.2582  0.0259  0.0322
 9778W        W26039  10.648   5.267  14.249 -0.0501  0.2476 -0.1370
 9779W        W26040  18.073  15.594   0.115 -0.0095  0.1710 -0.2303
 9780W        W26041   4.029  11.872  14.795  0.1838 -0.1475  0.0924
 9781W        W26042  15.839  17.492   0.418  0.0238  0.2267 -0.0208
 9782W        W26043  12.320  17.777   0.512  0.0145  0.2757 -0.0767
 9783W        W26044   9.074  10.096  13.282  0.2222  0.0663  0.2132
 9784W        W26045   8.426   6.955   2.935  0.1553  0.0792  0.0331
 9785W        W26046   8.268  13.532  12.001  0.3066 -0.2672 -0.0715
 9786W        W26047  17.075  16.627   5.270 -0.0448  0.0282 -0.1668
 9787W        W26048   8.969   6.814  14.077 -0.3497  0.0004  0.1397
 9788W        W26049  12.892   3.255   2.910 -0.1986 -0.1282  0.0965
 9789W        W26050  12.105  13.036   1.014  0.2578  0.0664 -0.0687
 9790W        W26051   3.923  12.214  13.932  0.0941  0.0852 -0.0926
 9791W        W26052   6.826   3.469  13.452 -0.2305  0.1575 -0.1780
 9792W        W26053   6.443  19.310  12.939 -0.3284 -0.1653  0.2230
 9793W        W26054  17.502  14.841  12.530  0.0770  0.0744 -0.1400
 9794W        W26055   9.175   5.452   1.792 -0.3767  0.0565 -0.0729
 9795W        W26056   3.421  14.023   3.765  0.0156 -0.4849 -0.2241
 9796W        W26057   9.277   1.367  14.159  0.0366 -0.5211 -0.0645
 9797W        W26058   8.746   0.030  12.435 -0.2404  0.1785  0.0085
 9798W        W26059  14.754  15.390  11.233 -0.0030  0.3307  0.3074
 9799W        W26060   6.770  17.282   1.322 -0.1204  0.4410  0.3065
 9800W        W26061  10.009  12.204  13.933 -0.0514 -0.1650  0.1432
 9801W        W26062   2.977   9.629  10.414  0.5525  0.0812  0.3941
 9802W        W26063  11.330  18.205  11.729 -0.2581 -0.2038  0.1797
 9803W        W26064   1.875   0.018   2.219 -0.0847  0.1139  0.2035
 9804W        W26065   2.529   7.009   3.916 -0.2304  0.2905 -0.2617
 9805W        W26066   4.824   1.317  10.539  0.1122 -0.0690  0.3280
 9806W        W26067   7.753   7.596   2.082  0.1551 -0.4258  0.2650
 9807W        W26068   1.408  16.020  11.884  0.0085  0.2669 -0.1615
 9808W        W26069   3.790   2.588   0.602 -0.2270  0.0804  0.3054
 9809W        W26070   1.589  19.120   3.152 -0.0929  0.3289  0.2434
 9810W        W26071   7.108   8.320   2.379  0.0123 -0.2902  0.1926
 9811W        W26072  18.661  13.939   3.694  0.1076  0.2046 -0.1400
 9812W        W26073   5.040  12.594   2.008 -0.0518 -0.0301  0.1365
 9813W        W26074  10.212  13.830   2.896  0.2443  0.1395  0.2245
 9814W        W26075  19.088  11.644   0.697 -0.2902  0.0303 -0.0402
 9815W        W26076  12.642   6.872   4.871  0.2447  0.2398  0.0705
 9816W        W26077   8.442  11.615  12.845 -0.3364 -0.1927  0.1488
 9817W        W26078   2.438   4.573   3.875  0.1987 -0.0318  0.1278
 9818W        W26079   8.366  11.134   4.186  0.2478  0.0624 -0.1585
 9819W        W26080  17.268  14.025  10.321  0.1001  0.0535  0.2113
 9820W        W26081   7.043   7.004  11.684  0.0214 -0.0182 -0.0200
 9821W        W26082   5.339   1.739   0.244  0.0716 -0.1005  0.1478
 9822W        W26083  18.421   2.719   1.177  0.1570  0.1867  0.2103
 9823W        W26084   1.509  10.435  12.986  0.0799 -0.1332 -0.4690
 9824W        W26085   7.996   4.643  13.309 -0.2603 -0.0924  0.4031
 9825W        W26086  19.117   8.338  14.172  0.0149 -0.1537 -0.0617
 9826W        W26087  11.767  14.373   4.444 -0.4400 -0.0870  0.3442
 9827W        W26088  13.059   0.820   2.969  0.2947  0.2888  0.4403
 9828W        W26089  14.860  13.709  10.948  0.0219 -0.3820  0.0196
 9829W        W26090  18.508   2.866   5.341  0.1467  0.1756 -0.2116
 9830W        W26091   4.786   8.459   4.699  0.0565  0.1076  0.0690
 9831W        W26092  13.612   4.310   3.866 -0.0097 -0.1758  0.0447
 9832W        W26093   1.927  11.030   4.167  0.0947 -0.1691 -0.0988
 9833W        W26094  16.156  14.591  10.930 -0.2264 -0.1089  0.2497
 9834W        W26095   4.636   2.303   4.216  0.0127  0.0551  0.0985
 9835W        W26096  16.201  10.516   5.770  0.0005 -0.1746 -0.0800
 9836W        W26097   3.101  17.874   1.468  0.0492  0.2484 -0.1351
 9837W        W26098   3.276   7.165   2.640 -0.1355 -0.0187  0.0093
 9838W        W26099  12.613   8.283   3.982 -0.0221  0.1789 -0.1888
 9839W        W26100   9.321   5.069  12.659  0.0045 -0.0625 -0.2542
 9840W        W26101   3.040  17.754  13.684 -0.2180  0.3303 -0.0845
 9841W        W26102  12.232  10.979  14.672 -0.1286 -0.2916 -0.4650
 9842W        W26103   9.124  12.073  12.400  0.0572 -0.1838  0.0174
 9843W        W26104   1.525  17.817   0.918 -0.1309  0.1975  0.1942
 9844W        W26105   9.154   0.545   3.962  0.2730 -0.1723 -0.1345
 9845W        W26106   3.941   8.128   3.906 -0.2189 -0.0573 -0.0151
 9846W        W26107  18.610  17.806  13.303  0.0042  0.3171  0.0873
 9847W        W26108  13.671   5.845   1.081  0.0349 -0.0153  0.0631
 9848W        W26109  15.854   0.093   0.552 -0.0846 -0.0695  0.1386
 9849W        W26110  17.968  11.420  12.142 -0.1132  0.1287  0.2328
 9850W        W26111   3.893   3.349   4.092  0.2621 -0.4851  0.1154
 9851W        W26112  14.746   1.909   3.217 -0.0395  0.0090 -0.0832
 9852W        W26113  15.341  14.827   0.316 -0.1750  0.0111 -0.0100
 9853W        W26114   1.561  12.403  13.309 -0.4342 -0.0347 -0.1506
 9854W        W26115  10.440   0.813  13.501  0.3133 -0.0967 -0.1225
 9855W        W26116  17.680  13.368   1.844 -0.2457  0.0483  0.0281
 9856W        W26117   1.396   4.086   2.407 -0.0918  0.3341 -0.2667
 9857W        W26118  12.287  13.643   1.101 -0.4225  0.2025 -0.2689
 9858W        W26119   7.865   9.776   3.921  0.3762  0.2717 -0.1148
 9859W        W26120   5.467  17.390  12.851 -0.0617  0.0098  0.1720
 9860W        W26121   4.127  11.132  11.027 -0.1821  0.3552  0.4306
 9861W        W26122  10.092  16.771  14.411 -0.2218 -0.2870 -0.0160
 9862W        W26123  14.927  18.051   2.441 -0.2192  0.0012 -0.2555
 9863W        W26124   0.966  14.035   1.879  0.1156  0.0186 -0.1153
 9864W        W26125  16.298   7.640   2.406 -0.0214 -0.4179 -0.2480
 9865W        W26126  11.375  11.767   4.393 -0.2705 -0.0401 -0.0114
 9866W        W26127  16.886  13.228  14.457 -0.1627  0.0477  0.1635
 9867W        W26128  13.547   1.053   5.084  0.1326 -0.1589  0.0057
 9868W        W26129   3.262  17.908   3.790  0.0420 -0.3611  0.1502
 9869W        W26130  18.159   8.578   2.855  0.1419  0.0780  0.1013
 9870W        W26131   9.210  10.342   4.834  0.1518 -0.2964  0.0528
 9871W        W26132  13.301  11.179  12.620  0.3092 -0.0773 -0.1443
 9872W        W26133   1.233   0.080  14.110  0.3485  0.1531 -0.0820
 9873W        W26134   2.649   1.388  12.533  0.2375  0.1575  0.2263
 9874W        W26135   1.177   4.838   0.876  0.1164 -0.1482  0.3161
 9875W        W26136   7.853   3.646   3.233  0.2946 -0.2580  0.1242
 9876W        W26137   2.888  13.136   5.181  0.0274 -0.0861  0.0702
 9877W        W26138   6.711   5.818   9.890  0.2644  0.1329  0.0887
 9878W        W26139   6.049  19.440  13.861 -0.0088 -0.0228 -0.0131
 9879W        W26140   8.165   9.032  12.250  0.1969  0.3106  0.5446
 9880W        W26141  12.696  16.347   2.526 -0.3524 -0.2416  0.2501
 9881W        W26142   4.939  14.459  13.809  0.0136  0.2279 -0.4393
 9882W        W26143  10.668   3.645  10.663 -0.2925 -0.2567 -0.1380
 9883W        W26144  15.352  16.967  13.603 -0.0359 -0.2184  0.1478
 9884W        W26145   8.382  14.195   3.013 -0.0403  0.1882 -0.2805
 9885W        W26146   9.378   8.186   2.376 -0.1368  0.0421 -0.1201
 9886W        W26147   6.417  14.472  11.776  0.0288 -0.1599  0.1439
 9887W        W26148   9.098  12.229  10.966  0.0286  0.0985  0.3806
 9888W        W26149   8.422   7.799  11.026 -0.2350 -0.1510 -0.3619
 9889W        W26150  14.350  16.486  12.816  0.4086 -0.4487  0.0801
 9890W        W26151  10.672   8.454   4.897 -0.3574  0.0226 -0.2575
 9891W        W26152   9.357  13.516  10.175  0.3115  0.0110  0.1728
 9892W        W26153   8.597  15.639  13.374 -0.2003  0.1562  0.1799
 9893W        W26154  19.007   5.145  14.509  0.1542  0.1453  0.1489
 9894W        W26155   1.934  18.708   2.376 -0.1593  0.2377 -0.0454
 9895W        W26156   0.253   5.618  12.188  0.0577  0.1659 -0.2949
 9896W        W26157   9.321  16.269  12.310 -0.1590 -0.0093 -0.1691
 9897W        W26158   8.400   1.028  12.887  0.0091  0.2918  0.1571
 9898W        W26159   8.090  17.935   0.926 -0.2590 -0.1704 -0.1583
 9899W        W26160  18.301   5.116   2.959  0.0086 -0.1146  0.1593
 9900W        W26161   4.828  18.974   2.118  0.2592 -0.0857  0.4796
 9901W        W26162   4.718   8.113   0.019  0.0840  0.2148 -0.0949
 9902W        W26163  17.545   1.020   4.231 -0.0100  0.0511  0.0761
 9903W        W26164  15.414   2.110   0.152  0.0745 -0.3644 -0.0233
 9904W        W26165  10.726   2.604   1.844 -0.1416 -0.2028  0.2076
 9905W        W26166   9.218   5.932   0.587  0.3849  0.0559  0.0380
 9906W        W26167   3.607   7.211  12.141 -0.0318 -0.3367  0.0183
 9907W        W26168   1.050  16.580  10.110  0.2718 -0.2745 -0.3145
 9908W        W26169   9.878  16.749   0.075 -0.2070  0.1522  0.2459
 9909W        W26170  10.807  15.978  13.903 -0.0295 -0.0654 -0.0201
 9910W        W26171   9.835   3.735   4.378 -0.1206  0.0012  0.0302
 9911W        W26172   2.973   1.761  12.570  0.0971 -0.1374 -0.0654
 9912W        W26173  19.071  13.015  13.044 -0.2313  0.0311 -0.1321
 9913W        W26174   9.284  14.199   4.725 -0.0655  0.1809 -0.2724
 9914W        W26175   2.021   8.650   4.589  0.0227 -0.0538  0.0769
 9915W        W26176   4.675   9.211   2.977  0.4636  0.1031  0.1898
 9916W        W26177  18.029  19.368  11.389  0.3152  0.3300  0.1712
 9917W        W26178   3.593   1.452   2.507 -0.2484  0.1260  0.4933
 9918W        W26179  11.679   9.229   4.440  0.1760  0.1370  0.1627
 9919W        W26180   0.234   1.790   0.686 -0.1361  0.3442  0.0210
 9920W        W26181  16.572   8.172   3.113 -0.4421 -0.3464  0.1551
 9921W        W26182   7.872  13.201  12.141  0.0127  0.1677  0.2326
 9922W        W26183   5.602  15.227  13.322  0.1447  0.2251 -0.4048
 9923W        W26184  13.757  11.867   0.247 -0.1809 -0.2805 -0.4304
 9924W        W26185  18.203  17.037  14.256  0.3120  0.2738 -0.0468
 9925W        W26186  18.384  11.763   1.960 -0.1227 -0.0357 -0.0095
 9926W        W26187  15.284  16.009  12.942 -0.1458  0.0553  0.1225
 9927W        W26188  16.812  12.230  14.428  0.1729 -0.2456 -0.0597
 9928W        W26189  14.120   7.513  14.729  0.0241 -0.0061 -0.0192
 9929W        W26190  12.979  11.865  14.608 -0.0957  0.1299 -0.2599
 9930W        W26191   9.753  18.548   4.888 -0.2683  0.2239 -0.0755
 9931W        W26192   9.986  16.276   3.543  0.1217  0.3228  0.1867
 9932W        W26193  18.790   5.869  10.198  0.3451  0.2106  0.0108
 9933W        W26194  16.405   8.639   4.556 -0.0295 -0.0664 -0.1078
 9934W        W26195  17.448   4.550  13.877  0.1310  0.1758  0.0010
 9935W        W26196  13.282   0.478   1.694 -0.2494 -0.0613  0.0910
 9936W        W26197  18.816  15.266  13.290 -0.0194  0.2429 -0.0747
 9937W        W26198  15.431   6.176   1.748  0.0327  0.2103 -0.0662
 9938W        W26199   8.535  17.785   0.833  0.3096 -0.3577  0.1903
 9939W        W26200  12.081   6.596  10.890  0.0923  0.3688  0.2708
 9940W        W26201  11.865  14.512  10.806 -0.2199 -0.0326 -0.0564
 9941W        W26202   5.820  11.266   2.690 -0.0495  0.2565 -0.3147
 9942W        W26203  12.754   1.880  11.217  0.1032  0.0578  0.7392
 9943W        W26204   0.907   2.261   9.193 -0.3211 -0.0997 -0.1580
 9944W        W26205  14.670  14.853   0.376 -0.0216  0.1030 -0.1073
 9945W        W26206  19.044   9.867   5.446  0.1003 -0.1002  0.1116
 9946W        W26207   8.424   5.423   1.226  0.3334 -0.0452 -0.2724
 9947W        W26208   4.060   3.633  12.102  0.1736  0.0384 -0.1054
 9948W        W26209   9.762  15.609  11.718 -0.3234  0.2669 -0.0393
 9949W        W26210   0.747  13.739   4.904  0.0081 -0.0032 -0.0539
 9950W        W26211   8.555  14.800  12.435  0.2138 -0.0525 -0.2111
 9951W        W26212   9.941   4.877  10.925 -0.1207  0.1060 -0.4406
 9952W        W26213  12.719  17.510  12.861 -0.0443  0.0614 -0.1703
 9953W        W26214  11.990   3.702   1.412 -0.0370  0.0594 -0.2230
 9954W        W26215   6.738   7.149  14.618 -0.0297 -0.1259 -0.2037
 9955W        W26216  15.591  11.760  14.076  0.1795 -0.1781  0.0181
 9956W        W26217   1.720  13.486  12.278 -0.0035 -0.2573  0.0704
 9957W        W26218  14.476   0.675   2.503  0.3127  0.0156 -0.1530
 9958W        W26219   7.421  11.639   4.224 -0.2095 -0.2213  0.0278
 9959W        W26220  15.081   1.105   4.461 -0.1109 -0.1602  0.0545
 9960W        W26221  19.261  10.473  12.792  0.1895  0.4125  0.1753
 9961W        W26222   7.257  16.893   3.522  0.1923  0.1563  0.0701
 9962W        W26223   0.329  18.990   3.901 -0.0830  0.0284 -0.0373
 9963W        W26224  15.274   8.950  11.062 -0.1657 -0.0966  0.1718
 9964W        W26225  18.690  19.110  13.067  0.0779  0.1999 -0.4221
 9965W        W26226  12.768  10.085  12.949 -0.3147  0.0363  0.0039
 9966W        W26227  18.396   1.978   3.772  0.0026  0.0637  0.1220
 9967W        W26228  11.081  16.421   0.992  0.2051  0.1738 -0.1415
 9968W        W26229   2.873  11.677  11.823  0.0521 -0.1029 -0.1013
 9969W        W26230  12.348   1.593   2.240 -0.0694  0.1288 -0.1551
 9970W        W26231   8.570  11.471   0.555 -0.0492 -0.2588 -0.0151
 9971W        W26232  15.762   9.122   0.831  0.1517  0.0428 -0.1991
 9972W        W26233   0.631  18.492  11.045  0.0634 -0.0787  0.0985
 9973W        W26234   1.195   3.426  13.536  0.0860 -0.0097 -0.2754
 9974W        W26235  12.186   6.249  12.978  0.1974  0.1140  0.2280
 9975W        W26236  11.670  14.207   0.345  0.2558 -0.0495 -0.0493
 9976W        W26237   7.824   6.489   2.021  0.3707  0.1950  0.0752
 9977W        W26238   1.005   7.799   3.222 -0.1823 -0.0355 -0.0417
 9978W        W26239   0.256  15.983   2.197 -0.0022 -0.0191  0.0692
 9979W        W26240   7.651   5.221  12.859  0.1993  0.1869 -0.1283
 9980W        W26241  18.382  13.272  11.226  0.4873 -0.1554  0.1582
 9981W        W26242  18.317   4.026  14.167 -0.3826  0.0019 -0.3781
 9982W        W26243  10.427  16.872   5.191 -0.0182 -0.1564 -0.2164
 9983W        W26244  17.035   0.003   5.032 -0.3418  0.0985 -0.0960
 9984W        W26245   4.899  16.991  14.302 -0.0450  0.3609  0.0817
 9985W        W26246  12.659   4.889   1.655 -0.1989 -0.3582  0.1914
 9986W        W26247  13.569  17.620   1.175  0.1232 -0.1007  0.0575
 9987W        W26248  18.099   7.075   1.068 -0.4341 -0.1277  0.0391
 9988W        W26249   1.494  13.694   3.507  0.0172 -0.0878  0.2430
 9989W        W26250  19.105   9.776  14.253 -0.2445  0.0494 -0.1782
 9990W        W26251   1.129   5.899  10.421  0.2902 -0.1364 -0.0052
 9991W        W26252  11.140   7.064   9.822 -0.2149  0.0984  0.2019
 9992W        W26253   0.685   6.254   4.245  0.1284 -0.0672 -0.2896
 9993W        W26254  17.118  14.795   9.806 -0.0552 -0.2121  0.0990
 9994W        W26255  13.278  18.326  11.009  0.2107 -0.1761 -0.0894
 9995W        W26256   5.292   1.768   9.813  0.0018 -0.3259 -0.2821
 9996W        W26257  10.240  15.069   1.310  0.0263 -0.0565  0.0121
 9997W        W26258   8.252   1.462  10.368  0.1420  0.1515 -0.0266
 9998W        W26259  11.187  15.324  13.905  0.2194  0.0420  0.1284
 9999W        W26260  18.829   4.265   3.758  0.1182 -0.1916 -0.3167
10000W        W26261   7.090   7.100  10.544  0.1310  0.2517 -0.0008
10001W        W26262  13.854  15.878  12.814 -0.2020  0.0837  0.2376
10002W        W26263  11.430  12.063   0.782  0.0222  0.0775 -0.0559
10003W        W26264   0.484  18.888  13.096  0.2203  0.1640  0.1614
10004W        W26265   0.941   1.016  13.763  0.0497 -0.1624 -0.0301
10005W        W26266   7.974  16.533   0.431  0.1946 -0.2390 -0.1567
10006W        W26267   6.174   5.194   9.392  0.0324 -0.0323 -0.1092
10007W        W26268   2.426   3.086   4.306 -0.2123  0.3103  0.0538
10008W        W26269   1.822   7.000   2.896 -0.1104  0.1066  0.1250
10009W        W26270  16.898   3.718   2.111 -0.0588  0.0023  0.1130
10010W        W26271   0.270   5.971  12.512 -0.0553 -0.1063  0.1102
10011W        W26272   4.627   9.512   0.582  0.0229  0.0474 -0.2078
10012W        W26273  15.754  13.958   2.125  0.3520 -0.0008 -0.0115
10013W        W26274  13.810  12.043   3.195 -0.1250 -0.4482 -0.1484
10014W        W26275  13.390   2.423   0.869  0.0947  0.1779 -0.1387
10015W        W26276   4.382  11.687  11.110 -0.3904 -0.1707 -0.0130
10016W        W26277  10.740   1.817   2.623  0.1453 -0.2715  0.0027
10017W        W26278  12.590   0.290  13.893  0.0245 -0.4674  0.2663
10018W        W26279  16.010   4.954   1.713 -0.0529 -0.0710 -0.0494
10019W        W26280  13.782   6.129   0.187  0.0723 -0.0098  0.3593
10020W        W26281  15.131  14.047  12.378 -0.4710 -0.0680 -0.2110
10021W        W26282  16.632  15.878   3.325  0.3031  0.4313  0.0577
10022W        W26283   6.667   9.478  10.374 -0.1046  0.0538 -0.1790
10023W        W26284   4.465  11.487   2.585  0.4186  0.2251 -0.4485
10024W        W26285   5.639   7.908   1.436  0.0710 -0.0241  0.1117
10025W        W26286   6.550  15.388  13.822 -0.3637 -0.1529 -0.0954
10026W        W26287   0.662  11.114   2.295 -0.2172 -0.1116  0.2310
10027W        W26288  17.284   8.644  12.140 -0.2758  0.0040  0.2833
10028W        W26289  10.017  15.480   0.060 -0.1420 -0.1676 -0.1714
10029W        W26290   3.333  12.753   0.850 -0.1291  0.0940 -0.2368
10030W        W26291  17.179   5.785  14.036  0.0051 -0.4809  0.0596
10031W        W26292  12.832   5.853  10.648  0.0719 -0.6690  0.2691
10032W        W26293   6.991  17.808  10.768  0.1114 -0.0202  0.0245
10033W        W26294   5.678   5.580  12.349  0.0286  0.1473  0.1225
10034W        W26295   9.783   4.816  12.880 -0.1793  0.0640  0.1805
10035W        W26296  10.652   0.289  10.985 -0.1063  0.0541  0.1328
10036W        W26297   4.921   3.372  12.309 -0.0105  0.2875 -0.3467
10037W        W26298   9.600  18.266   4.511  0.2037 -0.0450 -0.2598
10038W        W26299  19.216  13.606  10.708  0.1883 -0.2402  0.0076
10039W        W26300   4.894   4.015  14.720  0.1825  0.0288 -0.1986
10040W        W26301  17.326  16.935  11.584 -0.0425  0.0430 -0.1227
10041W        W26302  17.443  15.069   4.493 -0.1585 -0.0359  0.1432
10042W        W26303   1.761   2.231  11.673 -0.2583 -0.2369 -0.3269
10043W        W26304   4.108   7.532   3.251 -0.4347  0.0047  0.1630
10044W        W26305  10.631   9.187   0.464 -0.0815 -0.1485 -0.0649
10045W        W26306   4.520   4.256  10.309  0.0385 -0.4732  0.2573
10046W        W26307   5.782   8.194   0.979  0.1470 -0.0736 -0.1808
10047W        W26308   5.555   3.981  12.394  0.1029 -0.2116  0.3860
10048W        W26309  17.707   7.126   3.017 -0.1143  0.0702 -0.1183
10049W        W26310  12.483   6.971  13.490 -0.0941 -0.1310 -0.0038
10050W        W26311   9.885  16.796   0.885 -0.0657  0.0880  0.0637
10051W        W26312  12.240  12.814  13.211 -0.0309 -0.0553  0.0273
10052W        W26313   2.124   7.409   8.893  0.0526  0.0383  0.3455
10053W        W26314  16.670   3.326  14.807  0.2328 -0.2109  0.2007
10054W        W26315   9.745   5.287   0.994  0.0052  0.0684  0.1095
10055W        W26316  13.678  11.304  11.364 -0.2606 -0.0472 -0.0954
10056W        W26317  18.747  14.753  11.132 -0.0627  0.0933 -0.2159
10057W        W26318   5.920   4.680   1.164 -0.2917 -0.1803 -0.1282
10058W        W26319   8.255  13.985  10.699 -0.1568  0.2212  0.1233
10059W        W26320   9.640  16.356  10.676  0.1536  0.1793 -0.4443
10060W        W26321  15.051   8.807   4.117  0.0842 -0.0013 -0.1649
10061W        W26322  11.628   9.162   0.690  0.0153 -0.0271 -0.1264
10062W        W26323   3.925   9.798  12.714  0.1896 -0.2117 -0.0457
10063W        W26324   6.930  19.187  14.162  0.2357 -0.2509  0.1237
10064W        W26325  18.000  13.441   0.248 -0.0319 -0.4543 -0.0675
10065W        W26326  17.633  18.441   3.650  0.0817  0.2398 -0.1747
10066W        W26327   5.835   5.816  10.603 -0.0361  0.0160 -0.1722
10067W        W26328  15.853  18.358   0.795  0.0361  0.0459  0.0088
10068W        W26329  17.568   7.454  10.803  0.0075 -0.1484  0.0704
10069W        W26330   4.749   3.066  10.792 -0.2581  0.2036  0.0924
10070W        W26331  12.677  11.424   4.090 -0.4523 -0.2846 -0.1003
10071W        W26332   6.069  10.656   2.692 -0.1414 -0.0125 -0.0672
10072W        W26333  16.442   7.101   3.328 -0.0189  0.3046 -0.1720
10073W        W26334  11.546   1.744  13.732 -0.0757 -0.1921  0.0130
10074W        W26335  10.572   3.174   2.099  0.2573 -0.5898 -0.0288
10075W        W26336  12.505  11.278   0.992 -0.0167 -0.3711  0.0543
10076W        W26337  14.401  18.836  11.576  0.3074  0.0981 -0.2007
10077W        W26338   3.568   5.901   0.049  0.1573 -0.0061 -0.0020
10078W        W26339  14.381   9.198  12.214  0.0938  0.0404 -0.0606
10079W        W26340   1.239   3.895   3.750  0.0065  0.1948 -0.0992
10080W        W26341  19.144   0.055  11.738 -0.1562  0.0306  0.1581
10081W        W26342  17.483   8.722   3.995  0.1047  0.0626  0.1367
10082W        W26343   3.341   6.740   1.380 -0.1682 -0.1423  0.1012
10083W        W26344   4.566   3.046   1.043  0.0706  0.2996 -0.2368
10084W        W26345   7.890   9.975   9.744 -0.0690  0.3167 -0.2159
10085W        W26346   1.009   9.109  12.690 -0.0022  0.1356 -0.0880
10086W        W26347  14.341  11.862   1.308 -0.0598 -0.1981 -0.2039
10087W        W26348  11.708   6.536   0.358 -0.1685  0.0616 -0.3393
10088W        W26349  12.472  16.754   2.793 -0.1794  0.2921  0.1336
10089W        W26350  14.601   1.905  12.850 -0.1569  0.0677 -0.0222
10090W        W26351  18.412   0.080  13.280 -0.0156 -0.3983 -0.3533
10091W        W26352   4.104  18.140  13.079  0.1331 -0.1618 -0.4602
10092W        W26353  12.429   2.590   2.200  0.1317 -0.1755  0.2562
10093W        W26354   9.027   8.944   0.060 -0.1390  0.2318  0.0076
10094W        W26355  18.736   0.490   1.720 -0.3107 -0.1690 -0.2072
10095W        W26356   7.905   2.900  11.620 -0.0886 -0.0170  0.0556
10096W        W26357   8.788  17.304   5.687 -0.0686  0.1513  0.2154
10097W        W26358  19.224  10.113   0.104  0.0388 -0.0809 -0.0355
10098W        W26359   1.687  16.621  12.737  0.2323 -0.1100  0.0292
10099W        W26360   8.264   6.069  12.226  0.2693 -0.2554  0.0518
10100W        W26361  10.533  14.151   1.527 -0.0390  0.2259  0.1554
10101W        W26362   6.685  12.313   9.513  0.0815  0.4040 -0.0231
10102W        W26363   8.600  14.955  12.961 -0.0437 -0.4470  0.3480
10103W        W26364   8.535   7.381  12.322  0.0702 -0.3503 -0.1775
10104W        W26365  11.721   3.538  11.002 -0.1308  0.2213  0.0631
10105W        W26366  14.799   7.307   5.032 -0.2053 -0.0081 -0.1973
10106W        W26367  13.436   0.366  11.964  0.1170 -0.5770 -0.2400
10107W        W26368  16.218   4.844  11.620 -0.0858  0.1460 -0.3176
10108W        W26369  10.285   5.483   0.119  0.1915  0.1938 -0.1989
10109W        W26370   6.605   6.995   9.871  0.4696  0.3243  0.3525
10110W        W26371  10.096  13.429   2.078 -0.0846  0.0931 -0.2001
10111W        W26372  12.894   7.352   3.603 -0.2116  0.0754  0.0988
10112W        W26373  19.430  15.074  12.550 -0.2694 -0.2560 -0.2357
10113W        W26374  13.830   6.819   1.375 -0.1710 -0.1000  0.0350
10114W        W26375   5.627  14.943   1.958 -0.1067  0.0904  0.3038
10115W        W26376  17.850   1.819   5.221  0.0231 -0.0606  0.0786
10116W        W26377   3.880  12.240  13.373 -0.0263  0.1288 -0.0286
10117W        W26378  16.346  15.837   5.240 -0.1655 -0.1573 -0.1797
10118W        W26379   5.763  14.372  11.225  0.2888 -0.2433  0.1069
10119W        W26380  19.463   6.044   0.156  0.0581  0.2023 -0.1476
10120W        W26381  13.354  16.365   4.193 -0.1171  0.2557  0.4194
10121W        W26382  12.259   4.756   1.186 -0.1282  0.2440  0.0825
10122W        W26383  18.939  15.215   5.398 -0.2266  0.2086  0.3705
10123W        W26384  11.164   7.760  10.286  0.0931 -0.2400 -0.1431
10124W        W26385  13.443   8.618  12.118  0.0053  0.0170  0.0155
10125W        W26386  12.492  13.775  13.078 -0.1006  0.1467 -0.1621
10126W        W26387  12.296   0.160  13.076 -0.0514 -0.0532 -0.1985
10127W        W26388  16.391   3.256   1.051 -0.2117  0.1481 -0.2750
10128W        W26389   7.712   5.561  14.303 -0.1803  0.0577 -0.0094
10129W        W26390  14.126   9.637   0.593 -0.1728  0.0041  0.1060
10130W        W26391   4.626  12.566   2.386 -0.1399  0.4120  0.1941
10131W        W26392   1.663  13.873  12.584 -0.0310  0.1768 -0.0836
10132W        W26393  13.180   4.166   0.875 -0.1300  0.0819 -0.1513
10133W        W26394  17.519   5.288  10.377 -0.1466 -0.0128  0.1287
10134W        W26395   9.502   0.912   9.630  0.1078  0.0399 -0.1689
10135W        W26396  15.471  15.704   0.945  0.1891 -0.2009  0.3187
10136W        W26397   5.529  14.617  13.941  0.3141 -0.0730  0.3003
10137W        W26398  11.563  18.454  12.633 -0.1150 -0.2004  0.1381
10138W        W26399   5.639   4.802   1.587  0.1922 -0.0507  0.0952
10139W        W26400   4.034   7.871   0.719 -0.1967  0.1954 -0.0388
10140W        W26401  10.898  16.581   2.015  0.2760  0.1523 -0.0414
10141W        W26402  11.182   9.775   5.510 -0.1074 -0.1241  0.1469
10142W        W26403  14.088   6.815   0.463  0.1263  0.0532 -0.0379
10143W        W26404   6.214  14.099  11.022 -0.0561 -0.0393  0.1082
10144W        W26405   1.873   7.395  10.160  0.1725  0.0427  0.1144
10145W        W26406   3.463   8.021   3.840 -0.0916  0.1363  0.2436
10146W        W26407   3.690   7.418   4.476 -0.1669  0.0936  0.0661
10147W        W26408   2.218   7.679  10.928  0.0696  0.0093  0.1362
10148W        W26409   4.446  12.298   3.888 -0.2587  0.0591  0.0662
10149W        W26410  11.828  10.172  10.891  0.3465 -0.0003 -0.4115
10150W        W26411  13.784  17.458   2.580  0.2751  0.1644  0.2829
10151W        W26412   7.468  10.861   0.963  0.1551 -0.1566 -0.0366
10152W        W26413  12.125  17.156   2.630  0.0489  0.2085 -0.4658
10153W        W26414  19.245  16.359  11.819 -0.1318 -0.0114  0.0859
10154W        W26415  19.308  10.209  10.330 -0.1062  0.1484 -0.4458
10155W        W26416  14.607   3.397   1.146  0.1877  0.3560  0.1481
10156W        W26417  12.721   8.598  14.031  0.1093 -0.1567 -0.2352
10157W        W26418  14.188   7.339   4.789 -0.3139 -0.1342 -0.0700
10158W        W26419  11.151  10.086  12.216  0.1792 -0.1050  0.0767
10159W        W26420   8.057  10.755   0.345  0.1083 -0.1139  0.0646
10160W        W26421  13.430   1.501  11.061 -0.2028 -0.0573  0.1613
10161W        W26422   5.328  10.494   0.030 -0.0123 -0.0365  0.3314
10162W        W26423  11.839  16.797   1.472 -0.2165  0.0929 -0.1352
10163W        W26424   3.074   4.668  11.553  0.1579  0.0031 -0.0898
10164W        W26425   9.530   0.369   1.481 -0.0354  0.1355 -0.1139
10165W        W26426  10.134  11.804   3.018  0.1399 -0.1074  0.2830
10166W        W26427   5.900  14.769  14.761  0.0486 -0.0710  0.1909
10167W        W26428  16.203   3.032   2.470 -0.2382 -0.2219 -0.1849
10168W        W26429   5.080  10.996  12.122 -0.0239  0.1560  0.2343
10169W        W26430   5.033  17.866   1.290 -0.2586 -0.0403 -0.1314
10170W        W26431   1.440   2.963  13.491  0.1271  0.2510 -0.1924
10171W        W26432  17.042  11.464  13.302  0.2861  0.1407  0.2997
10172W        W26433   8.286   5.491   3.895  0.1030  0.0173  0.3696
10173W        W26434  17.260  15.667  12.045 -0.0682 -0.2072 -0.1419
10174W        W26435   9.042  14.577  14.563 -0.2005  0.1405 -0.1484
10175W        W26436   4.700   1.618   0.193 -0.3377  0.1095  0.2186
10176W        W26437  19.210   2.827  10.250  0.4126  0.0407 -0.1601
10177W        W26438   2.805  17.649   1.102 -0.4242 -0.0420 -0.1479
10178W        W26439   4.563   9.183   1.642  0.4425 -0.0346 -0.0434
10179W        W26440   2.026  10.267   4.700  0.2682 -0.2206  0.4060
10180W        W26441  16.795   5.646   3.943 -0.2257  0.0851  0.0686
10181W        W26442   4.260   6.787   8.931 -0.1729  0.0416 -0.1487
10182W        W26443   2.404   8.238   0.558 -0.2674  0.2910  0.0459
10183W        W26444   2.398   7.659   3.102  0.2668  0.1745 -0.1515
10184W        W26445   7.298   2.728   4.108  0.1519  0.0419  0.0710
10185W        W26446  18.845  17.683   0.453  0.1832 -0.2203 -0.0680
10186W        W26447  14.008  13.033   2.474  0.0831 -0.0627  0.2490
10187W        W26448   4.812   4.632  10.367  0.1893 -0.1170 -0.2395
10188W        W26449   2.691  12.360  11.113 -0.0582  0.0619 -0.0218
10189W        W26450  16.161   1.203   0.880 -0.0340 -0.2370 -0.0885
10190W        W26451   3.913  10.426   2.115 -0.4614  0.1875  0.4905
10191W        W26452  15.562  15.831  11.763 -0.0555 -0.4301 -0.1101
10192W        W26453   9.091   6.286  14.271  0.1472 -0.3608  0.0959
10193W        W26454   1.819  15.424   3.076  0.1539  0.1579 -0.1492
10194W        W26455  13.003   1.970   1.049  0.2694  0.1248  0.1095
10195W        W26456   9.140   5.487  13.416 -0.0838  0.1436 -0.1649
10196W        W26457  10.485   2.007   0.541  0.2539 -0.2472  0.3326
10197W        W26458   7.856  13.729  11.149 -0.0881  0.0181 -0.1147
10198W        W26459  18.133  19.310   3.776  0.2160 -0.0712  0.1549
10199W        W26460   9.456  10.265  12.354  0.0536  0.1923  0.2934
10200W        W26461  18.103  13.183  14.620 -0.0913  0.0105  0.2024
10201W        W26462  11.452  18.483   1.122 -0.2034  0.3691  0.0448
10202W        W26463  13.039  11.812   2.256 -0.0670 -0.3472 -0.0336
10203W        W26464   2.660   9.752   9.932  0.1071  0.3532  0.1424
10204W        W26465   3.227  18.360   1.525  0.2522 -0.0848  0.0926
10205W        W26466   6.791  16.050  14.234 -0.3942  0.1487  0.1182
10206W        W26467  16.370  14.628   1.162 -0.4086  0.4859  0.2081
10207W        W26468   4.595  17.893   0.703  0.0777  0.0519  0.2359
10208W        W26469  19.318   1.773  10.824 -0.0359 -0.1901  0.0371
10209W        W26470  16.483  10.995   1.291  0.2718 -0.2597  0.0406
10210W        W26471  17.868  10.766   0.695 -0.1559 -0.0267 -0.0405
10211W        W26472  12.782   5.027  12.703  0.0977 -0.1912  0.1892
10212W        W26473   6.379  18.443  14.240  0.0814  0.3005  0.1867
10213W        W26474  15.071  13.102  13.895 -0.2454 -0.0867  0.3639
10214W        W26475  12.430  16.227   5.121  0.2235  0.0026 -0.0205
10215W        W26476  13.880   5.425  12.600  0.0072 -0.1117 -0.3411
10216W        W26477  15.929   3.608   3.847 -0.0611  0.0971  0.2021
10217W        W26478   3.766  12.777   2.588  0.1254  0.3769 -0.2791
10218W        W26479   1.977  17.818  13.376  0.1917 -0.0771  0.1082
10219W        W26480  16.688  18.888  13.137  0.0832 -0.1298 -0.1409
10220W        W26481   3.498   1.838   0.003  0.0036 -0.0338 -0.0406
10221W        W26482  12.815  10.242   2.619 -0.3853 -0.2371  0.1902
10222W        W26483   4.387   3.294  10.504  0.0092  0.2756  0.3541
10223W        W26484   2.131  10.157   5.141 -0.1117 -0.2805  0.0668
10224W        W26485  14.531   4.937  10.760 -0.0378 -0.2725  0.1604
10225W        W26486  10.187  17.136  14.750 -0.1217 -0.0648 -0.1500
10226W        W26487  15.938  17.988   2.168  0.2972  0.0353  0.2489
10227W        W26488   5.551  10.183  12.781  0.0972  0.2399 -0.0246
10228W        W26489  13.138  16.583  12.682  0.1636  0.1153  0.2203
10229W        W26490   8.771  17.418   1.672  0.2807 -0.2076  0.1751
10230W        W26491   6.541   9.111   4.138 -0.2275  0.1217  0.0232
10231W        W26492  16.046   3.126   2.995 -0.1318  0.2554 -0.0496
10232W        W26493  11.025   0.946  12.834  0.0007  0.1040 -0.1208
10233W        W26494  17.817  12.316   5.195  0.0327 -0.0761 -0.1018
10234W        W26495   2.618  17.707  14.045  0.1208  0.4608  0.0070
10235W        W26496   7.550   1.232  10.796  0.0595  0.1065 -0.1424
10236W        W26497  17.492   5.547   5.285 -0.0490  0.2900 -0.0367
10237W        W26498  17.245   5.926   3.775  0.2438  0.0462 -0.0331
10238W        W26499   2.457   2.954   3.655 -0.1686 -0.1025 -0.2397
10239W        W26500  19.475   9.888  14.542  0.0714 -0.0860 -0.6309
10240W        W26501   1.983  16.089  10.634  0.2850 -0.0100  0.0918
10241W        W26502   5.268   9.615  10.577  0.0576  0.1049  0.2183
10242W        W26503   4.828   2.653  11.214  0.1401 -0.0819 -0.0071
10243W        W26504   3.615  15.044   3.350  0.1482  0.2771 -0.0842
10244W        W26505  11.638   2.267  13.916 -0.2287  0.0012 -0.1114
10245W        W26506  10.040  14.350  13.095 -0.3427  0.0884 -0.3086
10246W        W26507  11.834  11.236  10.807 -0.0617  0.3393 -0.1187
10247W        W26508  12.014  10.499   3.546  0.0968 -0.3169  0.0136
10248W        W26509   1.285  18.047  11.472 -0.0203  0.3699 -0.0275
10249W        W26510  18.394   3.750  12.934 -0.0763 -0.0704 -0.0136
10250W        W26511  12.995  13.900  10.947  0.1880  0.2456  0.3259
10251W        W26512  15.538  11.858   0.559 -0.3013 -0.0177  0.0527
10252W        W26513  13.898  11.078   1.375  0.0673  0.4197  0.0415
10253W        W26514  10.667   5.264  12.190  0.0422 -0.1178 -0.0886
10254W        W26515   3.807  14.837   1.974 -0.0611  0.0956 -0.1673
10255W        W26516   8.198   5.439  14.464  0.1928  0.0749 -0.1316
10256W        W26517   6.351   3.365  14.802  0.1475 -0.2436 -0.3984
10257W        W26518   4.733   2.232   2.829  0.0187 -0.0113  0.0648
10258W        W26519   5.442  16.340   5.014 -0.0342  0.1997  0.1511
10259W        W26520   1.860   9.805   4.590  0.0208  0.3620  0.4207
10260W        W26521   5.016   2.380  12.771 -0.1748  0.2984  0.0716
10261W        W26522   5.898   2.097   1.094  0.0252 -0.2403 -0.2615
10262W        W26523  18.729  12.144  13.118 -0.1636  0.1763 -0.0352
10263W        W26524   1.727  10.800  10.937  0.3465 -0.1929  0.0620
10264W        W26525  14.685   6.396   3.539  0.1603 -0.0113 -0.0904
10265W        W26526  18.738  16.214   2.091 -0.0512 -0.0565 -0.2258
10266W        W26527  18.851  16.797   0.018  0.0924  0.0259 -0.1644
10267W        W26528  14.025  13.533  11.167 -0.0158 -0.0142  0.0113
10268W        W26529   2.591  18.706  13.731 -0.2661  0.0679 -0.1861
10269W        W26530  17.410   0.927   5.081 -0.3707  0.0215 -0.1276
10270W        W26531  16.034  14.214   2.733  0.0236  0.4698  0.0191
10271W        W26532  15.744   5.182  13.309 -0.0411 -0.0403  0.1517
10272W        W26533  10.448  16.102  12.708  0.1752 -0.1533  0.0372
10273W        W26534  18.357  12.338  11.594 -0.1351  0.1187  0.3625
10274W        W26535  12.688  13.721   9.650 -0.3745 -0.1471 -0.0215
10275W        W26536   4.897  16.763   4.503 -0.1544 -0.0427  0.0854
10276W        W26537   4.145   3.457   3.686  0.0118 -0.1304 -0.0399
10277W        W26538  17.041   8.039   5.098 -0.0399 -0.0078 -0.0163
10278W        W26539   1.416   2.726  10.757  0.4934  0.3516 -0.3602
10279W        W26540   5.921  10.400   0.900 -0.1734  0.1211 -0.0750
10280W        W26541   6.148  12.642  11.384  0.4435  0.1017  0.4642
10281W        W26542  19.018   5.029  13.477 -0.1951  0.1088 -0.0655
10282W        W26543   4.314  16.051   2.220  0.1531  0.2255  0.1141
10283W        W26544  15.514   0.844   4.223 -0.2222  0.1702 -0.6246
10284W        W26545  10.335  16.623   1.162  0.4934  0.0953  0.0762
10285W        W26546  15.201   1.880  12.650  0.3345  0.0894 -0.0698
10286W        W26547  12.897  13.075  12.330 -0.4250  0.3178 -0.0802
10287W        W26548  16.308  16.349   3.475  0.1330  0.0484 -0.2200
10288W        W26549  10.261   4.477  14.041  0.0490  0.2552 -0.3236
10289W        W26550  14.806   4.879   0.600 -0.1965  0.0379  0.3073
10290W        W26551   0.603   0.804  11.097  0.5157  0.0307  0.0316
10291W        W26552  12.909   9.602  12.519  0.1860 -0.0429 -0.2718
10292W        W26553  11.119  19.308  11.629  0.1348  0.0940  0.0837
10293W        W26554   7.361   6.324  13.145 -0.1334  0.3257 -0.0464
10294W        W26555   7.158   4.589  12.331 -0.1131 -0.1111  0.2387
10295W        W26556   2.140  13.208   3.735  0.1386  0.0675  0.3003
10296W        W26557   0.144  10.530   4.474  0.1451 -0.2148 -0.2505
10297W        W26558   1.465  15.060   3.310 -0.2727  0.1377 -0.0194
10298W        W26559   9.042  18.151   4.490 -0.0110  0.1719 -0.3008
10299W        W26560  14.336   7.483   5.280 -0.0134 -0.0191  0.0363
10300W        W26561   9.485   0.906   4.819 -0.0422  0.0889 -0.1558
10301W        W26562  14.948  18.902   0.784  0.0160 -0.3023  0.1609
10302W        W26563   4.367   0.042  13.618 -0.1142  0.1142 -0.0372
10303W        W26564  12.288   8.118  13.583 -0.1578 -0.2355  0.3209
10304W        W26565   6.960  16.855   1.569  0.0964  0.1692  0.1561
10305W        W26566  15.498   0.235  13.912 -0.5528 -0.0002 -0.0094
10306W        W26567   7.429   5.634  12.398  0.1176 -0.2052  0.1363
10307W        W26568  15.705  13.267   3.428  0.0371  0.5269 -0.2285
10308W        W26569  15.493   0.261   1.222  0.1368 -0.1117 -0.1789
10309W        W26570   0.742  13.089   2.763  0.1482  0.2664  0.0591
10310W        W26571   1.563  16.691   4.823 -0.0956  0.0148  0.0309
10311W        W26572   4.341   8.056  13.619  0.2742 -0.0112  0.2362
10312W        W26573   6.810  16.894   3.697  0.0198 -0.1286  0.1047
10313W        W26574   2.526   9.821   1.024  0.0259  0.2600 -0.0863
10314W        W26575   7.006  12.228   3.044  0.0360  0.1612  0.1127
10315W        W26576  17.571   5.601  14.269  0.0598 -0.1075  0.0888
10316W        W26577   9.288  10.890  10.033  0.2285  0.1547  0.0333
10317W        W26578   4.714   7.712   1.841  0.0818  0.1850 -0.0955
10318W        W26579   0.559   6.881  10.168 -0.2565  0.3596 -0.0764
10319W        W26580   2.292  18.152   2.570  0.2029 -0.0157 -0.3693
10320W        W26581   0.809   6.258   5.492 -0.0675 -0.2791 -0.0202
10321W        W26582   4.841  13.494  10.381  0.1294 -0.3131  0.0073
10322W        W26583   2.571  12.189   0.033 -0.1211  0.1489  0.2802
10323W        W26584   2.376   9.465  12.312 -0.0596  0.3939  0.2104
10324W        W26585  14.124   1.051   3.415 -0.1388  0.0445 -0.1309
10325W        W26586   3.295   1.074   1.357 -0.2471 -0.2211 -0.0539
10326W        W26587   5.845  17.564   4.339 -0.2025  0.0160 -0.0779
10327W        W26588   0.732  13.452   4.505  0.0065  0.1058  0.1537
10328W        W26589  15.611   1.921   0.588  0.0655 -0.0818  0.1133
10329W        W26590  12.976   5.773  13.283 -0.2070  0.1379  0.0023
10330W        W26591   7.731  18.892   0.398  0.0507  0.0465 -0.1651
10331W        W26592  15.468   4.998   5.282  0.0985 -0.2023 -0.0250
10332W        W26593   6.153   9.429  13.083  0.0140  0.0831 -0.0019
10333W        W26594   3.934   2.101  11.884  0.0494 -0.1274  0.1279
10334W        W26595   2.707   3.251   2.364  0.1508  0.3799 -0.0851
10335W        W26596  14.175   5.567  14.387  0.0799  0.1964  0.1248
10336W        W26597   8.613   8.903  11.258  0.3188 -0.0022  0.1407
10337W        W26598  15.502  13.806   0.014 -0.3091 -0.0544  0.2813
10338W        W26599   3.714  14.940   0.339 -0.1121  0.2220 -0.3527
10339W        W26600   1.946   5.253   9.979  0.2568 -0.0098 -0.2337
10340W        W26601   4.954  13.009   5.222 -0.0885  0.2639  0.1511
10341W        W26602  10.413  16.741   3.508  0.1660  0.1028  0.1316
10342W        W26603   9.340  17.357  10.638  0.0786 -0.0961  0.0256
10343W        W26604  15.754  11.271  12.044 -0.1552 -0.0512 -0.2651
10344W        W26605   4.122   9.977  10.646 -0.3136  0.1464  0.3036
10345W        W26606   0.642  15.721  12.003 -0.0517 -0.0163 -0.0035
10346W        W26607   6.932   7.532   0.496  0.1034 -0.0712  0.0810
10347W        W26608  10.168  10.863  10.871  0.0754 -0.1727 -0.1270
10348W        W26609   2.265   1.855   9.630 -0.3254 -0.0577  0.2906
10349W        W26610  18.596  17.006  11.521 -0.0597 -0.5129  0.2519
10350W        W26611   8.886  17.375  10.421  0.1984  0.2279  0.1387
10351W        W26612  16.208  12.904  14.558 -0.2158  0.2470  0.1419
10352W        W26613  15.534   1.242   2.989  0.0420  0.1312  0.0042
10353W        W26614   5.363  17.091  14.335  0.3127  0.2345  0.1995
10354W        W26615  19.208  19.071   1.773  0.0418  0.1308  0.1008
10355W        W26616  10.772   6.445   1.802 -0.0098 -0.0865  0.0039
10356W        W26617  18.691  18.158  11.520 -0.0731 -0.6674 -0.0083
10357W        W26618   1.845  18.278  13.201  0.2525 -0.1020 -0.1990
10358W        W26619  12.958   3.087  12.020  0.0353  0.2194  0.0150
10359W        W26620   1.767   2.790  13.128 -0.0478 -0.0765  0.3110
10360W        W26621   4.738   7.863  14.378 -0.1338 -0.1467 -0.0960
10361W        W26622  11.990   8.706  11.186 -0.1896  0.0827  0.0201
10362W        W26623  15.414  16.142  13.391  0.0351 -0.1175 -0.0784
10363W        W26624  11.970   9.066  12.602 -0.5009 -0.1262  0.4210
10364W        W26625   2.185  13.241   1.032 -0.0285 -0.1802  0.1620
10365W        W26626  12.213  14.582  11.150  0.0682 -0.1058 -0.0433
10366W        W26627   0.264   6.057   4.538 -0.0001  0.0761  0.2260
10367W        W26628   9.561   9.722   4.258  0.2511 -0.0282 -0.0079
10368W        W26629  17.317   3.973  13.571  0.3875  0.0377 -0.0852
10369W        W26630  16.788  15.655  13.852 -0.2226  0.1470 -0.0565
10370W        W26631  13.677   6.795   2.618  0.1635 -0.0672 -0.0519
10371W        W26632  13.192   3.676   2.780 -0.0117 -0.0265  0.0997
10372W        W26633  15.237  11.888   1.684  0.3117  0.0088  0.2108
10373W        W26634   4.010   0.163  14.041 -0.0189 -0.0089 -0.0004
10374W        W26635   2.174   6.217  14.597 -0.0091 -0.2798 -0.1031
10375W        W26636  11.769  12.259  12.651  0.0217 -0.2008 -0.0121
10376W        W26637  15.375   3.203  12.260  0.4600 -0.0543  0.5242
10377W        W26638   4.871   5.232   4.288  0.2024  0.3529  0.0842
10378W        W26639   4.949   3.119   4.095 -0.0955 -0.0401  0.1612
10379W        W26640  19.339   9.540   3.271 -0.1249  0.2961  0.0810
10380W        W26641   0.232  15.663   3.868 -0.0705  0.0607  0.0672
10381W        W26642   0.005  13.691  14.717 -0.1981 -0.2747 -0.2525
10382W        W26643  13.713   1.076   3.758  0.2225 -0.1116  0.1163
10383W        W26644   0.075   6.950  11.425  0.1832 -0.0603  0.0931
10384W        W26645   5.068   5.448   1.341 -0.2373 -0.0792  0.1897
10385W        W26646   0.654   8.808   0.249 -0.1447 -0.1522 -0.0367
10386W        W26647  12.029  16.487   5.338 -0.1782 -0.1854 -0.2764
10387W        W26648  10.573  10.337   5.041 -0.1241 -0.1939 -0.3095
10388W        W26649  14.160   9.598   2.708  0.1792 -0.1428  0.0551
10389W        W26650   0.348  13.490   2.665 -0.1007 -0.0840 -0.0667
10390W        W26651   8.631  15.871   2.656 -0.2888 -0.0968 -0.0701
10391W        W26652   8.489  18.094  12.660 -0.0411 -0.1747 -0.2770
10392W        W26653  16.487  11.399   2.068  0.2122 -0.1254 -0.1453
10393W        W26654   6.511  14.077  11.480 -0.2414  0.1329 -0.0221
10394W        W26655  11.114   5.885  14.392 -0.0123 -0.1274  0.1948
10395W        W26656  11.651  13.317   4.913  0.0294 -0.3126 -0.0363
10396W        W26657   3.229  10.306  10.596  0.1682  0.1956  0.6040
10397W        W26658   2.400   9.050   4.807  0.2017  0.2677  0.3113
10398W        W26659   7.761   7.861  13.365  0.1392 -0.0760 -0.3243
10399W        W26660   7.708   7.012   0.078  0.0486  0.1675  0.0746
10400W        W26661  15.366  17.363  14.510  0.3191  0.2915 -0.3367
10401W        W26662   4.436  19.414  10.663  0.1550  0.1671 -0.0885
10402W        W26663  18.426  12.499   0.199 -0.0621 -0.2489 -0.0709
10403W        W26664   8.978  10.380   0.647 -0.1474  0.1391  0.2271
10404W        W26665   9.831  14.772  11.251 -0.5186 -0.1156  0.0588
10405W        W26666   8.391  17.607  10.525  0.3802  0.0888 -0.0966
10406W        W26667   9.186  16.700  11.363  0.0182 -0.2190  0.3484
10407W        W26668   8.269  13.701   5.084  0.2041 -0.1816 -0.4246
10408W        W26669  19.199  12.174  12.888  0.2414  0.0174 -0.1184
10409W        W26670   6.928   8.065  11.303  0.2487 -0.3217  0.1139
10410W        W26671   0.348  17.178  14.715  0.0263 -0.2974 -0.1523
10411W        W26672  15.528   9.620   0.675 -0.2595  0.1602  0.0735
10412W        W26673  12.981  13.753   5.398 -0.6253 -0.1811  0.3360
10413W        W26674  10.756  12.367   9.476 -0.4449 -0.2258  0.2371
10414W        W26675   8.729   2.724  11.010  0.2532  0.1825 -0.0805
10415W        W26676   0.378  11.621  13.659  0.3463 -0.3880 -0.1690
10416W        W26677  13.489  10.718  12.846  0.1469  0.0374  0.0046
10417W        W26678  13.851  13.974   4.570  0.1678 -0.0710 -0.0391
10418W        W26679   3.262  14.545   0.565 -0.0759 -0.2386 -0.3718
10419W        W26680  15.078   2.923  12.937  0.0940 -0.3396 -0.1620
10420W        W26681   8.413  12.520  12.228 -0.0928 -0.0862 -0.0872
10421W        W26682   4.415   2.441   1.250  0.0323 -0.4281  0.0520
10422W        W26683  18.612  14.269  10.937  0.3654  0.4280 -0.1779
10423W        W26684  17.699   8.854  12.859  0.2444 -0.1726 -0.1551
10424W        W26685  17.927   7.334  14.384  0.2774  0.3607 -0.2702
10425W        W26686   7.526   8.714   9.321  0.0591 -0.0627 -0.2506
10426W        W26687   0.514  17.271   3.112 -0.1092  0.3844 -0.1871
10427W        W26688  19.250   8.589   0.760  0.0140  0.0749 -0.0480
10428W        W26689   3.318  18.414   3.069 -0.0931  0.4109 -0.1523
10429W        W26690   8.975   7.291  12.682 -0.4426  0.1165 -0.2813
10430W        W26691   3.609  16.198  11.126 -0.4016 -0.1516  0.1337
10431W        W26692   1.042   2.483  13.540  0.0789 -0.2219 -0.0881
10432W        W26693  15.022  11.454   5.065  0.1099  0.3213  0.0249
10433W        W26694  17.916  10.625   0.125  0.1701  0.2147  0.1340
10434W        W26695   3.952   1.687   0.861 -0.1304 -0.2147  0.4040
10435W        W26696   3.559  14.871   4.832  0.0206 -0.2840  0.1777
10436W        W26697   0.537  11.154  12.380 -0.3665  0.2609 -0.2713
10437W        W26698   0.864   4.671  13.042 -0.1653 -0.0753  0.0631
10438W        W26699  13.595   7.132  13.377  0.1909 -0.2532 -0.0963
10439W        W26700  10.569  12.285   0.496 -0.2769 -0.1864 -0.2586
10440W        W26701   8.819   1.709   2.422  0.0323  0.4518  0.0388
10441W        W26702   6.310  12.964   5.699  0.0187  0.0253 -0.2479
10442W        W26703  14.212  16.826   2.572  0.0605  0.1452 -0.1127
10443W        W26704   1.484   7.495  13.047  0.0038 -0.1973 -0.2901
10444W        W26705  13.169   9.247   0.219  0.0843 -0.0669  0.3044
10445W        W26706  16.485   9.150   1.543 -0.2247  0.0071  0.0402
10446W        W26707  15.110  17.217  14.117 -0.3128  0.0940 -0.3610
10447W        W26708   2.722   3.011  13.627 -0.0186 -0.0168  0.0077
10448W        W26709  15.178   5.185   4.367  0.0491 -0.0719 -0.1075
10449W        W26710  15.096  14.514   2.988 -0.3121 -0.1204  0.1184
10450W        W26711  12.222   9.182   0.208 -0.0041  0.1007  0.0788
10451W        W26712  12.457   1.273   4.001  0.1187  0.5999  0.2041
10452W        W26713  16.736   1.100   3.948 -0.0790 -0.0383  0.1231
10453W        W26714   1.884   3.105   2.207 -0.0087  0.2757  0.2548
10454W        W26715   9.299   7.592  11.121  0.0945  0.1808  0.0712
10455W        W26716   9.283   8.851   5.250  0.1430  0.0072  0.0267
10456W        W26717  15.591  19.251   1.406  0.1223  0.3697  0.0798
10457W        W26718   8.038  15.055  11.575 -0.0905  0.1527  0.0005
10458W        W26719   1.964   1.805  14.274  0.0563 -0.2240  0.3156
10459W        W26720   3.188  10.439  12.765  0.2581  0.0909  0.2606
10460W        W26721   7.402   5.527   3.613 -0.1542  0.1007 -0.2048
10461W        W26722  12.125   3.373   0.078 -0.0298  0.0955 -0.2652
10462W        W26723   4.609  10.554   9.508 -0.0741 -0.0230 -0.3114
10463W        W26724  10.663   2.700   0.459 -0.1776 -0.0854 -0.0042
10464W        W26725   5.349  12.638   0.406  0.0690 -0.0096 -0.1748
10465W        W26726  11.237  12.336   9.775  0.0012 -0.5827  0.3402
10466W        W26727   9.623  10.927   5.693  0.2269 -0.1024 -0.0930
10467W        W26728  17.516  19.458  14.240  0.1490 -0.3499  0.1270
10468W        W26729  15.038   1.500  11.128  0.1563 -0.1525  0.2126
10469W        W26730  19.233   9.482   2.749 -0.2815 -0.3892 -0.3697
10470W        W26731  12.960  12.165   1.914 -0.2054 -0.3077  0.3170
10471W        W26732   4.956   0.324  11.166  0.0351  0.1467  0.2399
10472W        W26733   7.524   3.802   3.592 -0.1062  0.2480 -0.2496
10473W        W26734   6.591   0.404  11.579  0.0511 -0.0079 -0.0259
10474W        W26735  19.159  15.252   3.535 -0.0884  0.0035 -0.2391
10475W        W26736   4.248  10.706   2.448 -0.1660 -0.1315  0.1699
10476W        W26737  11.540   1.109   1.854  0.2244 -0.0001  0.0024
10477W        W26738  10.507  17.324   2.521 -0.2000  0.1521 -0.0961
10478W        W26739   3.433  16.462   0.747 -0.1094 -0.5498  0.0682
10479W        W26740   0.445   1.797   9.885  0.1435 -0.0309  0.1096
10480W        W26741   8.774  14.503   0.162 -0.0097  0.2816 -0.3091
10481W        W26742   6.917  17.702  10.311 -0.1561  0.0912 -0.0932
10482W        W26743   7.086  15.040   2.318 -0.2599  0.1846  0.3698
10483W        W26744   9.545   5.310  11.145 -0.2541 -0.1428 -0.3301
10484W        W26745   4.063   8.677  14.672  0.1082  0.0221 -0.3661
10485W        W26746   0.704   2.057   3.395  0.0151  0.4150 -0.0342
10486W        W26747  12.007  11.448   2.262  0.2027  0.3734  0.1196
10487W        W26748  17.562  13.720   4.920  0.0724  0.2352  0.1984
10488W        W26749  13.467   0.986   0.964  0.1560 -0.2494 -0.1822
10489W        W26750  15.076   9.632   4.053  0.1370 -0.0146 -0.1660
10490W        W26751  16.789   7.138   1.079  0.1497 -0.0978 -0.1430
10491W        W26752   4.775  15.961   2.394 -0.0954  0.0975  0.2301
10492W        W26753   0.571  15.075   3.739 -0.0693 -0.0632  0.3051
10493W        W26754   4.455  17.141   1.820 -0.2139 -0.1833  0.1374
10494W        W26755  10.644  13.126   4.316 -0.1453 -0.1416  0.0704
10495W        W26756  17.924   7.073   5.028  0.1450 -0.0967  0.0751
10496W        W26757  12.712  12.968   1.175  0.0981 -0.0511  0.0610
10497W        W26758  16.363  13.229  12.687  0.1059  0.4122  0.0005
10498W        W26759   4.696   3.408  12.769  0.2288 -0.1725 -0.2796
10499W        W26760   7.270   6.397  14.481 -0.0104 -0.0583 -0.0316
10500W        W26761  14.764  15.267   2.307 -0.0723  0.3247  0.0455
10501W        W26762  12.410   4.855   5.024  0.1224 -0.1049 -0.2329
10502W        W26763  12.618   2.522   0.271  0.4406  0.1456  0.1339
10503W        W26764   4.693   6.089   3.029  0.0165  0.2045  0.3969
10504W        W26765  14.543   6.223   2.478  0.0237 -0.1130 -0.1767
10505W        W26766   6.248  13.945   0.299 -0.3689 -0.2365  0.2201
10506W        W26767  10.628  11.858   3.158  0.2808 -0.0913 -0.1584
10507W        W26768  14.446   0.016   4.818  0.1289  0.2153 -0.2549
10508W        W26769  18.839   4.391  11.496  0.0692 -0.0913 -0.0490
10509W        W26770   3.837  14.042   2.241 -0.4263 -0.0536  0.0339
10510W        W26771  12.335  14.830  12.374  0.2949 -0.0177 -0.2804
10511W        W26772  18.840   3.302   5.374 -0.0601 -0.0941  0.0172
10512W        W26773   6.122  14.706   4.521 -0.6560  0.1573 -0.1353
10513W        W26774  18.977   8.622   0.110 -0.2051 -0.3056  0.1104
10514W        W26775   8.441  11.787   2.335  0.0417 -0.1178 -0.2712
10515W        W26776  18.157  10.731  13.885 -0.1005  0.0288 -0.2896
10516W        W26777   2.557  10.243  11.088  0.1066 -0.2093 -0.1895
10517W        W26778  17.764   4.478   1.210  0.0234  0.0299 -0.2044
10518W        W26779  19.451  16.325   1.519  0.1449  0.0226 -0.0697
10519W        W26780   5.056  16.799  12.109  0.3152 -0.1875  0.1672
10520W        W26781  16.954  12.283  11.404  0.1194 -0.2905  0.0810
10521W        W26782  18.091   7.817  14.540 -0.2968 -0.2048  0.0389
10522W        W26783   8.258  13.489   0.901 -0.0593  0.0142  0.1937
10523W        W26784   1.125   9.132   2.631 -0.0401  0.0864 -0.0879
10524W        W26785   0.440   2.594  11.497  0.1438 -0.2076 -0.0783
10525W        W26786  13.680  12.043   1.099 -0.0405 -0.1395 -0.3635
10526W        W26787   6.133   0.691   0.367  0.1891  0.0364  0.0888
10527W        W26788   4.347  17.628  13.880 -0.0125 -0.3377  0.0027
10528W        W26789  16.079   2.885  13.542  0.3053  0.0135  0.0582
10529W        W26790   9.741   0.642  11.727  0.0765  0.0161 -0.0446
10530W        W26791  17.020   7.998   1.760  0.2081  0.0885  0.2621
10531W        W26792  18.934   7.804   5.759  0.0602  0.1953  0.1974
10532W        W26793   9.507   8.919   4.512 -0.0811  0.2706 -0.0795
10533W        W26794   7.253   3.801   1.066  0.0467 -0.2205 -0.0166
10534W        W26795   4.011   0.815  14.402 -0.1891  0.1867 -0.2007
10535W        W26796   7.518  15.032   2.057 -0.1794  0.0700 -0.2337
10536W        W26797   4.992   8.028  10.326 -0.0778 -0.3214 -0.1288
10537W        W26798   2.697   4.642   1.342  0.0119  0.2984  0.1908
10538W        W26799  13.741  10.373   0.683  0.1048 -0.1642 -0.0852
10539W        W26800   4.087   4.886  13.367  0.0725 -0.3484 -0.0361
10540W        W26801   7.898   3.246   3.559 -0.1514  0.3656  0.0733
10541W        W26802  12.512  13.532   5.395 -0.2603  0.1793  0.0828
10542W        W26803   6.302  15.163   9.284  0.0779  0.1476 -0.2126
10543W        W26804  16.618   6.270  11.588 -0.0318 -0.0360  0.2647
10544W        W26805   1.695   2.755   0.207 -0.1664 -0.0405  0.0670
10545W        W26806   0.734  14.138  11.416 -0.5129 -0.1367 -0.2278
10546W        W26807   6.221   6.834   3.399 -0.0654  0.0882 -0.0727
10547W        W26808   5.011  17.287  12.184 -0.1408  0.0097  0.1643
10548W        W26809   3.290   4.800  12.350 -0.0594 -0.3561 -0.0129
10549W        W26810  18.792   2.739  10.577  0.1376  0.2442  0.1828
10550W        W26811   4.502  16.259   1.741  0.1791  0.0811 -0.2850
10551W        W26812   3.207   1.105  11.748 -0.2642  0.1777  0.0723
10552W        W26813  13.474   3.074  12.173  0.1187 -0.0560  0.0430
10553W        W26814  16.080  10.572  12.748 -0.2747 -0.1817  0.3590
10554W        W26815   5.339   6.354  11.254 -0.0718 -0.0298 -0.3335
10555W        W26816  10.743   7.066  12.138 -0.0514  0.2973 -0.1693
10556W        W26817  13.786   4.993  11.079  0.0905 -0.0718 -0.4481
10557W        W26818  17.715   5.162  14.381  0.1370  0.0114  0.0446
10558W        W26819  17.575   1.392   5.213 -0.1628  0.0748 -0.0686
10559W        W26820  17.496   9.994   2.093 -0.1439  0.0786  0.0076
10560W        W26821  14.195  12.814   5.187  0.1502  0.3286 -0.1186
10561W        W26822  15.526  13.274   2.968 -0.3688  0.1636  0.1053
10562W        W26823  14.830  12.139  12.753 -0.0116 -0.1361  0.1711
10563W        W26824  17.133  11.664   2.358  0.5756 -0.1199  0.4431
10564W        W26825  15.930  12.421  12.347  0.1009  0.0639  0.3727
10565W        W26826  18.663   7.670   0.640 -0.0448 -0.0572 -0.3243
10566W        W26827   6.730   3.252   9.803 -0.2340 -0.1494 -0.1818
10567W        W26828   0.680  10.377   1.276 -0.0954 -0.0813  0.0676
10568W        W26829   4.563   9.778   1.543 -0.0807  0.1501  0.1547
10569W        W26830   3.356   5.897   0.517  0.3590 -0.1746 -0.0024
10570W        W26831   5.328   8.889   1.870 -0.2111  0.1039 -0.1060
10571W        W26832   1.976   3.581   9.864 -0.0034 -0.0942  0.1925
10572W        W26833  19.080  12.764   1.212 -0.5170 -0.1645  0.0180
10573W        W26834  12.884   0.501   5.191  0.3332 -0.2230  0.1818
10574W        W26835  17.396   2.046  11.253  0.1529  0.0972 -0.4516
10575W        W26836  11.042   7.959   1.070 -0.2553 -0.2601 -0.0186
10576W        W26837   1.157  14.889   1.811  0.4015 -0.1937 -0.2223
10577W        W26838  18.628   0.708   4.263 -0.0629 -0.2174 -0.0978
10578W        W26839  15.243  11.204  12.137  0.1930  0.0001  0.0913
10579W        W26840   2.264  18.285  11.298  0.3474 -0.0201 -0.2752
10580W        W26841  11.263  10.913  14.442 -0.1841  0.0886 -0.0673
10581W        W26842   8.052  10.294   1.393 -0.2716 -0.0841  0.2703
10582W        W26843   3.999   3.234  10.937  0.0098  0.1623 -0.1426
10583W        W26844   1.954  15.350  12.385  0.0433  0.1595 -0.2897
10584W        W26845   7.277  17.629   2.283 -0.3898  0.0589 -0.3170
10585W        W26846   1.072   6.582   2.032 -0.2204  0.0150  0.2149
10586W        W26847   9.133   6.763   2.321 -0.0203  0.1876 -0.1077
10587W        W26848  14.587  14.099   3.951  0.5377 -0.2775 -0.3113
10588W        W26849  11.070  10.502   1.855 -0.1311  0.1120 -0.0806
10589W        W26850  14.304   3.653   3.291  0.0956  0.0634 -0.0519
10590W        W26851  12.516  12.242   2.562  0.3861 -0.0308 -0.2669
10591W        W26852   3.033  14.764   4.899  0.1139 -0.1468  0.0502
10592W        W26853   2.233  13.063   2.024 -0.2595 -0.0318  0.1700
10593W        W26854  12.726  12.587   1.921  0.0088  0.0450 -0.0840
10594W        W26855  18.332  14.683   5.276  0.0050  0.0144  0.0649
10595W        W26856  10.940   1.377  14.769  0.1354 -0.4259  0.2395
10596W        W26857  12.061  17.478   5.681 -0.0240  0.1700  0.1249
10597W        W26858   5.274   2.886  10.451  0.0122  0.1509  0.0699
10598W        W26859  18.135   9.610   0.332 -0.0850 -0.3158 -0.2056
10599W        W26860   5.113   8.832  13.073  0.1311 -0.3496  0.0658
10600W        W26861  17.972   4.839   3.280  0.1442  0.1525  0.2841
10601W        W26862   6.214   3.897  10.092  0.1595  0.1589  0.3880
10602W        W26863   1.585   4.864  11.297  0.1283  0.1402 -0.1493
10603W        W26864   6.346   3.296  12.399 -0.3222 -0.1404 -0.1240
10604W        W26865  17.016  11.817   5.269 -0.0115  0.3949 -0.1089
10605W        W26866  14.878   2.039   2.781 -0.1110 -0.0040  0.2429
10606W        W26867  15.387  16.806   1.746 -0.2166 -0.0098 -0.3150
10607W        W26868   3.446   1.694   4.583  0.2881  0.0736  0.2225
10608W        W26869  10.431  10.724  11.717 -0.1991  0.1488 -0.2020
10609W        W26870   7.498   0.869  11.781  0.2330  0.1806 -0.1212
10610W        W26871  15.702  15.907  10.881  0.0647 -0.1204 -0.0147
10611W        W26872   1.319   2.741   2.966 -0.0148 -0.1873  0.0912
10612W        W26873  10.651   9.790   5.339  0.1411 -0.1505  0.1062
10613W        W26874  15.057  16.879   2.187  0.0755 -0.3719 -0.0652
10614W        W26875   1.463  18.580   5.284  0.1754 -0.2991  0.1731
10615W        W26876   0.924   9.329  13.260  0.0741 -0.2542  0.1606
10616W        W26877   1.819   6.093   0.647  0.2422  0.1840 -0.2258
10617W        W26878   2.357   0.773  11.343  0.2820  0.3249 -0.1717
10618W        W26879   4.122   5.481  14.500  0.0283 -0.0417  0.2642
10619W        W26880   1.615  11.023  12.286 -0.1684  0.1843  0.2460
10620W        W26881  12.465   7.188  14.369 -0.3904  0.1821  0.1545
10621W        W26882   9.776   4.441  12.031 -0.0084  0.2895 -0.3419
10622W        W26883   1.880  15.356   1.521  0.2053  0.0211 -0.1208
10623W        W26884  18.757   8.282  10.380 -0.2211 -0.2932  0.2147
10624W        W26885   6.757  18.007  13.003 -0.0660 -0.6042 -0.1934
10625W        W26886   1.028   2.521   3.344  0.0440 -0.2926 -0.2362
10626W        W26887   2.494   6.069   3.711 -0.1839 -0.3697  0.3682
10627W        W26888   6.118   4.899  11.480 -0.4204 -0.0592 -0.0593
10628W        W26889  14.788   1.090  13.239 -0.1374 -0.3791 -0.2624
10629W        W26890  12.754   7.242   4.433  0.2842  0.1318 -0.0609
10630W        W26891   1.728  16.004   9.678  0.0562  0.0058 -0.3425
10631W        W26892  18.845   1.825   2.435 -0.0722  0.1167  0.0764
10632W        W26893   2.188   8.372   3.758  0.0100 -0.1105  0.5042
10633W        W26894  17.650   4.186   4.890 -0.2949  0.3273 -0.2668
10634W        W26895   2.311  18.751  11.492  0.0548  0.1218 -0.1747
10635W        W26896   0.079   0.308   2.581 -0.0863 -0.2832 -0.4184
10636W        W26897   6.909   3.623  13.947 -0.1957 -0.4280  0.0004
10637W        W26898  10.731   8.889   2.707  0.1993  0.0606  0.2276
10638W        W26899  14.315  17.812   1.306  0.2840 -0.1344 -0.1523
10639W        W26900  14.405   8.206   0.119  0.1313 -0.3190 -0.0743
10640W        W26901   3.287  10.891  12.998  0.1745 -0.0876  0.0923
10641W        W26902  16.954   1.713  12.116  0.1328 -0.1808 -0.3345
10642W        W26903  18.304  17.977  10.221  0.0769 -0.3753 -0.0265
10643W        W26904   8.703   6.223  10.839 -0.5491  0.0360 -0.1081
10644W        W26905  10.250   4.995  13.031 -0.3044  0.2712  0.2692
10645W        W26906   6.541   2.797   3.619 -0.4670 -0.0464  0.1440
10646W        W26907  18.915   7.639  14.468 -0.1372  0.0546 -0.1520
10647W        W26908  13.520   7.902   2.485  0.1663 -0.2498 -0.2408
10648W        W26909  14.234   2.518  14.192 -0.2333  0.3137  0.2697
10649W        W26910   0.146  10.909   0.267  0.2775  0.3556 -0.1582
10650W        W26911  17.647   5.167  11.001  0.4551  0.2392  0.1109
10651W        W26912  16.961   3.792   1.510  0.0438 -0.0535 -0.0591
10652W        W26913   3.495   6.492   3.764  0.1020  0.0259  0.2337
10653W        W26914   7.240   6.768   4.265 -0.0372 -0.0128  0.2127
10654W        W26915   9.024   1.430   1.491 -0.0398  0.2339 -0.2422
10655W        W26916  17.822  13.059  11.664  0.1571 -0.2540 -0.0175
10656W        W26917   4.963   2.707   2.818  0.2784  0.6063  0.0742
10657W        W26918   5.837   3.373   0.031 -0.0576 -0.1847  0.3410
10658W        W26919  10.881  11.520  11.737  0.1170  0.0606  0.0918
10659W        W26920   0.725  15.809  12.973 -0.1937  0.4226 -0.1854
10660W        W26921   4.967  18.909   1.249 -0.0745 -0.0355  0.0295
10661W        W26922   5.529   4.441  11.016 -0.0981 -0.3145 -0.2948
10662W        W26923  11.613   1.492   3.337  0.1494 -0.0373 -0.1634
10663W        W26924   2.024   7.224  11.032 -0.1765  0.0686 -0.2753
10664W        W26925  16.713   2.628   3.225 -0.1326  0.1050 -0.1470
10665W        W26926   3.450  19.266  10.550 -0.1658 -0.0219  0.1491
10666W        W26927   2.721   8.013  12.734  0.1177  0.1871 -0.2274
10667W        W26928   2.211   5.577  11.977 -0.0588  0.1000  0.0057
10668W        W26929  10.856   8.928   4.670  0.1900  0.0379 -0.0458
10669W        W26930  15.216   8.553   0.174 -0.3858 -0.0493  0.1416
10670W        W26931  18.328   8.189   3.611  0.3824 -0.2704  0.0241
10671W        W26932  16.463  10.980   0.238  0.0184 -0.1464  0.1810
10672W        W26933  18.026  16.301   4.945 -0.1568  0.0662  0.1320
10673W        W26934   0.227  12.814  14.458  0.0495  0.3087  0.0262
10674W        W26935   4.352  11.377  14.318  0.2483 -0.0373  0.0204
10675W        W26936   0.081  10.538   2.039 -0.0323  0.1007 -0.0362
10676W        W26937  14.686   0.162   3.191  0.1077 -0.0693  0.1102
10677W        W26938  12.561  17.779   4.354 -0.1200 -0.1000 -0.2672
10678W        W26939   2.677   3.008   2.824 -0.2140 -0.1729 -0.3793
10679W        W26940   0.944  13.794   2.387  0.3021 -0.3813 -0.0526
10680W        W26941   4.375   9.639  10.396 -0.0270  0.1830 -0.0339
10681W        W26942  17.769  11.613   3.265  0.6247 -0.1210 -0.0617
10682W        W26943  16.868  17.056   4.972 -0.1776 -0.4428  0.0253
10683W        W26944  16.592   4.484  11.907 -0.2309 -0.2349  0.0862
10684W        W26945  16.794   8.236  10.230 -0.0752  0.0967  0.0082
10685W        W26946   7.554  16.958   0.869  0.0869  0.1543 -0.1197
10686W        W26947  17.390   2.940   1.743  0.3170 -0.0045  0.0051
10687W        W26948   3.544   5.505   2.038 -0.1071  0.0266 -0.1495
10688W        W26949  14.930   3.971  13.771 -0.1317  0.0940 -0.1874
10689W        W26950   5.325  12.716   2.987 -0.2514  0.0876 -0.1622
10690W        W26951  17.456  15.105   3.902  0.0171 -0.1501 -0.1485
10691W        W26952  14.230  19.305  14.702  0.1513  0.0138 -0.0901
10692W        W26953  13.405  13.019  12.083  0.2721  0.0469  0.1731
10693W        W26954  14.445   4.702   3.952 -0.0854  0.1089  0.0213
10694W        W26955   4.146  15.272   0.174 -0.0339 -0.2096 -0.1675
10695W        W26956  12.700   4.301  13.369 -0.2896  0.1392  0.0479
10696W        W26957   5.868  16.563   3.627 -0.0831 -0.0521 -0.3547
10697W        W26958  16.486   7.643   2.954  0.0684  0.1762  0.0776
10698W        W26959   4.851   5.993   0.708 -0.1270 -0.0604 -0.1412
10699W        W26960   7.521  10.872   2.756  0.2503  0.1039  0.0807
10700W        W26961  19.369   8.864   0.274 -0.1052 -0.2637  0.0361
10701W        W26962  11.689   9.263  10.676  0.2902 -0.1975  0.0325
10702W        W26963   8.241  12.567   3.501  0.0661  0.2280 -0.2107
10703W        W26964  12.704  13.581   1.787 -0.3169 -0.0689  0.3277
10704W        W26965  11.094   5.506  12.230  0.0794 -0.1636  0.0968
10705W        W26966  17.956  11.608  14.085  0.1995  0.4465  0.5223
10706W        W26967   7.998  16.066   0.747  0.1239 -0.0700  0.3439
10707W        W26968  15.425   6.173  14.763 -0.0934  0.0920  0.0326
10708W        W26969  14.187  15.089   0.710  0.0013 -0.0777  0.1864
10709W        W26970  15.372   9.687  13.286  0.0033  0.0344  0.1149
10710W        W26971  13.717   4.438   1.783  0.0343 -0.2935  0.2865
10711W        W26972   9.405  17.900   9.475  0.1307  0.3780  0.0245
10712W        W26973   6.256   2.749   1.822 -0.1090 -0.0010 -0.0795
10713W        W26974  16.588  12.858   2.935 -0.0575 -0.0512 -0.2112
10714W        W26975   5.267   8.556  10.614 -0.1737 -0.2203 -0.1265
10715W        W26976  17.263   1.323   3.843  0.0313 -0.1533 -0.1069
10716W        W26977  16.956   2.394   1.064 -0.2728 -0.1403 -0.1129
10717W        W26978  13.078  10.634  11.842 -0.3315  0.1690 -0.0778
10718W        W26979  10.484   7.764   9.320 -0.3065 -0.0573  0.0555
10719W        W26980   5.794  18.574  13.044 -0.2346  0.1665  0.0560
10720W        W26981   1.118  13.777   4.379  0.1545 -0.2000 -0.1248
10721W        W26982  15.502   3.781   3.977  0.1704  0.2019 -0.0684
10722W        W26983  19.347   7.696  10.080 -0.3432 -0.0092  0.0141
10723W        W26984   4.763   3.305  10.111 -0.3799 -0.2832 -0.0382
10724W        W26985   7.772  18.445   5.315 -0.0356  0.1651 -0.0807
10725W        W26986   3.579   7.191   4.966 -0.1480  0.1595 -0.1301
10726W        W26987   0.313  10.133  12.616  0.2757  0.5367 -0.2246
10727W        W26988   0.826  14.428  11.949 -0.0530 -0.0382  0.1132
10728W        W26989   6.437  18.344   1.417 -0.1415 -0.0101  0.0387
10729W        W26990  19.424  13.972   5.409  0.0585  0.4315  0.1680
10730W        W26991  15.530  19.140   0.528 -0.3632 -0.1778 -0.0015
10731W        W26992  16.916   4.061   3.163  0.2442 -0.1200  0.1628
10732W        W26993  14.552   8.103  13.620 -0.1302  0.1004 -0.0804
10733W        W26994   6.453  12.464  13.061  0.3115 -0.1879 -0.2605
10734W        W26995  15.401  12.932   0.432 -0.4198 -0.0937  0.0459
10735W        W26996   9.502   7.609   4.864  0.0380 -0.4187 -0.0320
10736W        W26997   1.432   7.525  14.261  0.2888 -0.0158 -0.1701
10737W        W26998   0.212   3.870  14.744  0.1491  0.3141  0.2158
10738W        W26999   6.152  14.919  10.638  0.3240 -0.3711  0.0973
10739W        W27000   0.672   8.910  11.686  0.1272 -0.2407  0.0772
10740W        W27001   1.777  13.794  10.851  0.2628  0.1560  0.0578
10741W        W27002   5.736   9.554  11.873 -0.2040  0.1980  0.3247
10742W        W27003   0.832  18.062  11.100 -0.1400  0.1251  0.0832
10743W        W27004  11.643   1.952   1.276 -0.1338  0.3081 -0.0941
10744W        W27005   7.701  16.238   1.163 -0.4011  0.0772  0.1195
10745W        W27006   8.682  11.080   4.594  0.4487  0.1754 -0.2189
10746W        W27007   8.942  17.139   2.563  0.0300 -0.1616 -0.0147
10747W        W27008   0.943   8.671  10.944 -0.1598  0.0602  0.0520
10748W        W27009  16.018  16.722  11.311 -0.2102  0.1222  0.1894
10749W        W27010  11.059   0.933   0.966 -0.0988  0.1676 -0.2767
10750W        W27011   1.923   6.674   0.767  0.1743 -0.2596  0.1596
10751W        W27012   1.984   1.456  13.484  0.1208  0.0837  0.1132
10752W        W27013   6.601   0.980  12.118 -0.0149 -0.4033 -0.0173
10753W        W27014  13.239  16.003   3.325 -0.0720 -0.1579 -0.4688
10754W        W27015   5.915   9.689  13.595 -0.0426 -0.0726 -0.0384
10755W        W27016  15.842   8.596   2.553  0.1761  0.0972  0.0866
10756W        W27017   2.329   9.931   3.618 -0.2235 -0.2431 -0.0364
10757W        W27018   7.594  16.073   4.248  0.1676 -0.4079 -0.3528
10758W        W27019   5.561  15.971  12.473 -0.2413  0.0917 -0.3592
10759W        W27020  15.807   6.338   4.205  0.0213  0.1860  0.0812
10760W        W27021   8.873   3.519   1.030 -0.2135  0.0704 -0.1487
10761W        W27022  10.619   6.884   2.504  0.0175 -0.2613  0.1407
10762W        W27023   5.493  14.892   4.308  0.3854  0.1503  0.3570
10763W        W27024  13.289  18.356   3.932  0.0320 -0.0535 -0.2145
10764W        W27025   3.485  11.455  11.579 -0.1018  0.3398  0.0125
10765W        W27026  10.940   1.876   0.025 -0.0407  0.2080  0.2903
10766W        W27027  13.299   1.973  11.205 -0.1808 -0.1521  0.2743
10767W        W27028  18.625  12.972   1.210 -0.0550  0.2644  0.1995
10768W        W27029   5.216   9.600   2.452 -0.1531  0.0754 -0.0952
10769W        W27030  14.552  18.958  12.839  0.0080  0.1943 -0.2371
10770W        W27031   1.949  17.823  12.074 -0.2276 -0.1313 -0.1121
10771W        W27032   6.120   1.222  12.217 -0.4375  0.4482 -0.1543
10772W        W27033   1.104  13.229  10.858 -0.0853 -0.0302 -0.0489
10773W        W27034   2.560  17.928   2.163 -0.3971 -0.0674  0.4487
10774W        W27035   2.592  12.533   1.102 -0.0100  0.3678 -0.2698
10775W        W27036  10.992   4.981   3.749 -0.4979 -0.2123  0.0886
10776W        W27037  11.986   6.096   3.047 -0.0515  0.0658 -0.0724
10777W        W27038  13.375  11.164   1.402 -0.0568  0.0964 -0.0616
10778W        W27039   6.182   1.008  10.749 -0.1351  0.2468 -0.3569
10779W        W27040   0.339   9.845   0.561 -0.1907 -0.0013  0.0243
10780W        W27041   8.409   9.261   2.318  0.0374 -0.0190 -0.3248
10781W        W27042  15.757   6.590   3.745 -0.0093 -0.0890  0.0763
10782W        W27043   4.422  16.350  13.591  0.1218  0.1740 -0.3693
10783W        W27044  13.987  10.774  14.283 -0.1641  0.2689 -0.0804
10784W        W27045  15.684  18.434  11.432 -0.3222 -0.0145 -0.0394
10785W        W27046  18.339   1.247  13.562 -0.3821 -0.1899  0.0738
10786W        W27047  17.447  10.539  10.185 -0.3448  0.1640  0.1034
10787W        W27048  13.233   6.684   2.564  0.0090 -0.0639 -0.1154
10788W        W27049   3.467   6.269   1.356 -0.0409  0.0812 -0.3519
10789W        W27050  18.189  16.557   1.614  0.2829  0.0536  0.0925
10790W        W27051   8.970   8.511  11.192 -0.1035 -0.2481 -0.1740
10791W        W27052   2.718  16.515   1.220 -0.0286  0.2159 -0.0765
10792W        W27053  14.017  13.639   0.644  0.1594 -0.3687  0.0995
10793W        W27054  12.943   2.155   0.559 -0.3263  0.0697 -0.1719
10794W        W27055   5.878  16.085  14.340  0.0847  0.3030  0.1749
10795W        W27056  17.246   0.358   2.512  0.0955 -0.0992 -0.3565
10796W        W27057  11.272  12.633   5.492  0.1055  0.0388 -0.1377
10797W        W27058  13.058   7.359  11.085 -0.0093  0.1241  0.2311
10798W        W27059   9.276  10.073  14.421  0.2527 -0.0867 -0.0728
10799W        W27060   3.708   6.708  10.709  0.0834 -0.3215  0.0560
10800W        W27061   3.174   8.139   9.688  0.2179 -0.0108  0.2387
10801W        W27062   8.119  16.087   4.529 -0.0502  0.2872 -0.0113
10802W        W27063  18.724   7.288   9.440  0.0841 -0.4428  0.0231
10803W        W27064   0.429  14.511   0.185  0.2047 -0.2526 -0.6175
10804W        W27065  12.100   5.048   4.696  0.1607  0.0489 -0.0090
10805W        W27066  13.174  18.629  10.616 -0.3315 -0.1068  0.3644
10806W        W27067  17.961  17.230   4.343  0.0907  0.0645 -0.0222
10807W        W27068  11.465  12.917  11.046 -0.1687 -0.3054  0.0654
10808W        W27069   5.630  10.834   2.524 -0.1207  0.0462  0.0341
10809W        W27070   2.741   6.227  11.626 -0.0270  0.0441  0.0692
10810W        W27071   9.081  18.562   2.049  0.1615 -0.0256  0.0356
10811W        W27072  16.610  12.184  11.813 -0.0872  0.1377  0.2048
10812W        W27073   8.152   9.911  11.421 -0.1710  0.0095  0.1792
10813W        W27074   4.803  14.513   4.473  0.0631  0.0611  0.0490
10814W        W27075  12.196   3.799   9.807  0.0725  0.0646 -0.0252
10815W        W27076   2.313   5.147  12.513 -0.0616  0.1017  0.0222
10816W        W27077  17.760   4.088  11.028  0.1380 -0.1271 -0.0151
10817W        W27078  17.242  17.134  11.073 -0.0278  0.0399 -0.2274
10818W        W27079   1.013   9.858   5.038 -0.1563 -0.1755  0.1759
10819W        W27080  11.664  15.726  11.600  0.1600  0.2035  0.2074
10820W        W27081   6.168   1.107   3.354 -0.1363 -0.2908  0.2002
10821W        W27082  13.883  16.230  11.524 -0.1688 -0.2265  0.0861
10822W        W27083   4.111   8.007   2.915 -0.0688 -0.1643 -0.1854
10823W        W27084  14.331  15.473   1.936  0.3252 -0.0088 -0.1748
10824W        W27085  17.023  18.695  14.364 -0.0264  0.1286 -0.1578
10825W        W27086  18.781   2.498  11.002  0.2007 -0.1160  0.0431
10826W        W27087   0.662   1.439   4.078 -0.1069 -0.0483  0.2473
10827W        W27088  16.630   8.264   0.824 -0.2455 -0.0443  0.0054
10828W        W27089   3.449  12.350  11.026 -0.1138 -0.1239 -0.0146
10829W        W27090   5.711   0.693  11.262 -0.0993  0.1257  0.0222
10830W        W27091   8.142  11.482  14.614  0.0471 -0.2934 -0.0222
10831W        W27092   2.442  11.301  14.043 -0.1437 -0.2051 -0.1656
10832W        W27093   8.345   4.237  12.034 -0.1353 -0.1338  0.1043
10833W        W27094  11.174  16.053   3.866 -0.1893 -0.0694 -0.0172
10834W        W27095   6.183  15.086  13.935 -0.0824  0.0558  0.1477
10835W        W27096  11.438  10.592   0.608  0.2238 -0.1514  0.0019
10836W        W27097   9.156   8.339   3.223 -0.2797  0.0059  0.1139
10837W        W27098   8.048  17.144  13.292 -0.0745  0.1002  0.0822
10838W        W27099  16.366  10.783   2.342  0.1681  0.1110 -0.2120
10839W        W27100  14.422   3.927   0.834  0.3007 -0.1330  0.4557
10840W        W27101   3.021   8.604  13.820  0.1482  0.0980 -0.1800
10841W        W27102   7.894   1.475  11.493  0.2031 -0.0335 -0.2156
10842W        W27103  12.335  12.610   0.247 -0.2249 -0.0618  0.1182
10843W        W27104  13.163  14.556   4.807  0.2524 -0.1762  0.2099
10844W        W27105  19.124   0.303  10.668 -0.1236  0.1996  0.2337
10845W        W27106  13.322   5.797  11.162 -0.0357  0.1325 -0.0719
10846W        W27107   9.351   2.996  13.047  0.1202 -0.1418 -0.0506
10847W        W27108   6.004   8.722  13.225 -0.1393 -0.0441 -0.1232
10848W        W27109  11.767   0.476   2.511  0.0525  0.1743  0.0922
10849W        W27110   8.853  11.269  14.136  0.0299 -0.2669 -0.1497
10850W        W27111   2.185  11.033   0.372 -0.0714  0.0753  0.0160
10851W        W27112  13.566  19.200   1.746 -0.0556 -0.0557  0.1308
10852W        W27113   3.898   9.900   1.227  0.3657  0.1787 -0.3450
10853W        W27114   0.715  10.934  14.231 -0.2347  0.0953  0.4118
10854W        W27115   5.753  16.292   5.391  0.0104 -0.0574  0.1207
10855W        W27116   8.855   1.317  10.770  0.1175 -0.0760  0.1461
10856W        W27117   8.255  16.524  11.020 -0.3405  0.3644 -0.0510
10857W        W27118   1.311   4.887   3.512  0.1646 -0.0743 -0.0204
10858W        W27119  11.220  14.173   3.569  0.0809 -0.0318 -0.0304
10859W        W27120  18.639   5.267   1.991 -0.2534 -0.0058 -0.4920
10860W        W27121   6.370  15.538  10.483 -0.4122 -0.1388  0.4048
10861W        W27122   7.389  12.755   5.078 -0.0391  0.1181 -0.0550
10862W        W27123   4.402  17.892   2.015 -0.1751  0.0823  0.1250
10863W        W27124  13.522   2.497  14.721  0.1056  0.2950  0.1332
10864W        W27125   7.077  11.542  10.981  0.0615  0.4257  0.3145
10865W        W27126   7.770  10.659  13.406  0.1808  0.0816  0.2827
10866W        W27127  17.792  11.339   0.800 -0.0930  0.1600 -0.1676
10867W        W27128  19.034   8.255   5.249  0.1478 -0.0333 -0.4629
10868W        W27129   3.925  14.914   5.217 -0.0396 -0.0168  0.0826
10869W        W27130   6.480   7.731   2.586  0.1672  0.2138  0.1173
10870W        W27131   9.273  15.243  12.265  0.0764  0.0290  0.1721
10871W        W27132  13.697  18.268   4.307 -0.3497  0.0441  0.0998
10872W        W27133   6.977   2.471  10.508 -0.0827 -0.2106 -0.1574
10873W        W27134  11.904  15.930   1.362 -0.0701  0.2795  0.1183
10874W        W27135  16.983   4.534  11.266  0.0499  0.0955 -0.1170
10875W        W27136  14.974  17.749  13.062 -0.0489 -0.1626 -0.0411
10876W        W27137   6.853   9.902  11.076  0.2379  0.1360 -0.0438
10877W        W27138  12.707  12.106   3.425  0.0915 -0.3879 -0.1204
10878W        W27139  11.696  17.060  12.641 -0.0366  0.2643 -0.0212
10879W        W27140   2.201   5.023  14.781 -0.1216 -0.2078  0.1391
10880W        W27141   7.633  10.763   3.291 -0.2790  0.1571  0.0788
10881W        W27142   1.935  16.818  13.161  0.0683 -0.2966  0.1615
10882W        W27143   0.255  18.793   4.888  0.0232  0.3253  0.2885
10883W        W27144   1.276   7.676  11.240  0.1284  0.1556  0.1284
10884W        W27145   3.287  12.431   4.701 -0.1542 -0.1441  0.3925
10885W        W27146   2.992  18.578   1.169  0.0563 -0.0769 -0.0983
10886W        W27147   1.900  18.636   1.207 -0.1364  0.0996  0.1516
10887W        W27148   3.530   2.688   9.865 -0.0830  0.0949  0.0027
10888W        W27149  11.289  12.335   1.441  0.1851 -0.1667 -0.3655
10889W        W27150  15.751   3.396   0.224  0.1797 -0.0315  0.0601
10890W        W27151  11.477  12.558  14.287 -0.3564 -0.3383 -0.2694
10891W        W27152  11.791   9.355   3.486 -0.2112 -0.0830 -0.1699
10892W        W27153  14.630  16.415  14.691  0.1424 -0.1027 -0.0299
10893W        W27154  11.802  15.656  11.121  0.0548 -0.0552  0.0066
10894W        W27155  10.351   5.287  13.429 -0.1071  0.1242 -0.2882
10895W        W27156   0.113   9.073   2.767  0.0113  0.0944  0.0435
10896W        W27157   0.498  14.356  12.903  0.2427 -0.3719 -0.0921
10897W        W27158  13.154  19.104   2.058 -0.0223 -0.3394  0.1956
10898W        W27159  14.884  10.809   0.586  0.1781  0.1431 -0.2204
10899W        W27160  18.497   1.981  13.135 -0.2041  0.0175 -0.5183
10900W        W27161   0.700  18.910  10.780  0.0727  0.0493  0.2736
10901W        W27162   0.450   4.654   3.599 -0.1226 -0.2938  0.2812
10902W        W27163   3.647  13.329  10.433  0.1463  0.0163 -0.2714
10903W        W27164  10.296   4.113  11.408  0.1317  0.0348 -0.2333
10904W        W27165  13.156   6.613  11.945 -0.1239 -0.0741 -0.4728
10905W        W27166   6.689   0.248  10.543 -0.2331 -0.1146  0.2265
10906W        W27167  15.395   1.129  12.944 -0.4481 -0.0007  0.2085
10907W        W27168   5.144  16.403   0.962  0.2805  0.1003  0.3965
10908W        W27169   6.485  15.169  10.907  0.3224 -0.1588  0.0422
10909W        W27170  14.366  18.748   5.516 -0.1400  0.1916  0.1311
10910W        W27171   6.883  13.366  12.578 -0.2261 -0.2120  0.0488
10911W        W27172   7.029   0.784  10.210 -0.1470 -0.1696  0.1963
10912W        W27173   3.464  19.346   0.581 -0.0009 -0.0171  0.1147
10913W        W27174  18.745   1.727  13.656 -0.1809 -0.2284  0.1796
10914W        W27175  17.582  16.721  11.187 -0.1719 -0.1089 -0.0391
10915W        W27176  10.982   6.015  11.443  0.1275 -0.0133  0.1547
10916W        W27177  16.153  13.866   1.764 -0.1065  0.1102 -0.4400
10917W        W27178  18.837  12.005  11.608 -0.3511  0.2837  0.0008
10918W        W27179   0.268   4.509  11.154  0.0155 -0.0211  0.1021
10919W        W27180   2.739  13.615  14.736 -0.0352  0.2662  0.1492
10920W        W27181  17.512  15.101   3.407 -0.1055  0.7474 -0.2539
10921W        W27182   6.501  11.311   0.956  0.0463 -0.3393 -0.0469
10922W        W27183   0.865  17.071  13.390 -0.2763 -0.1999 -0.1575
10923W        W27184   4.730  13.850  11.960  0.1155 -0.1660  0.1996
10924W        W27185   0.614   1.943   3.909 -0.3365 -0.0411 -0.1455
10925W        W27186  12.290   8.525   0.018  0.0321  0.0352  0.1150
10926W        W27187  14.441  10.931  14.070 -0.1641 -0.5171 -0.1817
10927W        W27188  16.294   8.176   4.645 -0.0086  0.1211 -0.1290
10928W        W27189  19.160   0.883  11.117  0.1025 -0.1488 -0.1689
10929W        W27190   6.477  16.949  13.526 -0.1513 -0.0509 -0.1138
10930W        W27191  17.546   6.838  13.735 -0.0884 -0.2290 -0.5646
10931W        W27192  16.375   2.077   0.458 -0.4045  0.0068 -0.0117
10932W        W27193   0.186   7.727  10.771  0.2943 -0.0921 -0.2440
10933W        W27194   3.897  17.203   3.939  0.1254  0.0797  0.2675
10934W        W27195  14.019   9.963  11.500  0.1597 -0.2104  0.0716
10935W        W27196   7.311   0.579   0.223 -0.1433  0.1336  0.1947
10936W        W27197  14.205  10.837  11.984 -0.0694 -0.1852  0.4063
10937W        W27198  18.980  17.260  11.405 -0.1494  0.0155 -0.1023
10938W        W27199   9.085   1.234   4.632 -0.2535 -0.1735  0.3495
10939W        W27200  18.855  16.121   5.344 -0.3475 -0.1153  0.0772
10940W        W27201  10.974  15.742   4.224  0.2075 -0.1480  0.0460
10941W        W27202   3.661   6.746  10.215 -0.0359 -0.0410  0.0058
10942W        W27203  12.862   0.313   4.652 -0.1773 -0.3036  0.1511
10943W        W27204   3.135   0.434   3.903 -0.0390 -0.2443 -0.1325
10944W        W27205   3.978   3.187  11.898  0.1519  0.0991  0.1780
10945W        W27206   5.930   3.484  13.276 -0.0747 -0.2234 -0.1251
10946W        W27207  14.205   5.912  13.420  0.1714 -0.1521  0.1753
10947W        W27208   6.220  18.818  13.250  0.1035 -0.0908  0.1432
10948W        W27209   4.213  11.246   0.877 -0.1604 -0.0725  0.2414
10949W        W27210   7.148  14.241  12.864 -0.1044 -0.0031  0.0719
10950W        W27211   5.606   0.219   9.950 -0.0463 -0.2847 -0.2090
10951W        W27212   7.109   5.428   4.453 -0.1942  0.0627  0.1326
10952W        W27213  12.579  13.087   5.105 -0.1215  0.0358 -0.2371
10953W        W27214  10.470  10.452  14.624  0.2319  0.3735  0.0255
10954W        W27215  17.167  13.978   5.783  0.0078 -0.1777  0.3622
10955W        W27216  10.534  18.277   2.905  0.1120  0.3704 -0.0458
10956W        W27217   8.460   6.200   3.769  0.1990  0.0277 -0.5279
10957W        W27218  18.307  12.920   2.385  0.3791 -0.1348  0.1646
10958W        W27219   8.416  18.857  11.848 -0.0025  0.3014  0.3619
10959W        W27220   0.905   2.120  11.225 -0.0388  0.0271 -0.1341
10960W        W27221   8.293  11.452  11.245 -0.0804 -0.1853  0.2731
10961W        W27222   9.279  11.757  11.106  0.1842  0.0208  0.1988
10962W        W27223  16.255   6.015   3.489 -0.0314 -0.2755 -0.0782
10963W        W27224   3.902   8.194   0.241  0.1444 -0.1283 -0.0692
10964W        W27225  11.993  10.404  11.937  0.0560 -0.0703 -0.1407
10965W        W27226  11.566   6.387   3.259  0.3310  0.0532 -0.1991
10966W        W27227   2.886   2.545  11.422 -0.1821  0.2190 -0.2465
10967W        W27228  12.619   9.425  11.601  0.0611 -0.1029 -0.0406
10968W        W27229  14.141  18.057  13.724  0.0413  0.2553  0.0603
10969W        W27230  18.716   5.913   2.971 -0.0442 -0.1668 -0.0588
10970W        W27231   7.673  12.308  10.987  0.0654  0.3632  0.2000
10971W        W27232   3.803  10.923   0.987 -0.1883  0.2343 -0.0917
10972W        W27233   1.566   9.233   2.839 -0.0708  0.3370 -0.1476
10973W        W27234  14.006  12.974  14.091  0.5348  0.1010 -0.3091
10974W        W27235  17.115   3.318   1.401 -0.0618  0.3294 -0.1721
10975W        W27236   8.129  10.586  11.378 -0.3077 -0.0203 -0.1667
10976W        W27237  12.490   2.763  11.536  0.3556 -0.3643  0.1511
10977W        W27238  13.476  16.257   6.006  0.2945 -0.1301 -0.2337
10978W        W27239  14.667   1.226  11.185  0.2095 -0.1890  0.0464
10979W        W27240  17.455  11.417  13.675 -0.0324 -0.0213 -0.1484
10980W        W27241  17.952   2.248   4.171 -0.1128  0.0813  0.4844
10981W        W27242   5.477   8.172   1.983  0.2521  0.2014 -0.1666
10982W        W27243   3.354  19.232   1.919 -0.0929  0.0707  0.4177
10983W        W27244   9.295   5.350  14.535 -0.1392 -0.0009 -0.1549
10984W        W27245   0.909  11.372  14.046 -0.0819 -0.5066  0.3606
10985W        W27246   7.882  10.817   5.090  0.1628  0.1287  0.0201
10986W        W27247   5.055   9.639   3.741  0.0614  0.0166 -0.0947
10987W        W27248   1.680  11.989  11.178 -0.2124  0.1308 -0.0272
10988W        W27249  16.055  11.464  10.918 -0.0821  0.1708 -0.1625
10989W        W27250  19.194  13.032  12.081  0.0235  0.0005 -0.1194
10990W        W27251  19.203   6.640   9.498 -0.0531  0.1169  0.1477
10991W        W27252   8.489  16.246  13.109  0.1008  0.1881 -0.0678
10992W        W27253   5.815  14.765  13.569  0.5672 -0.0279 -0.0689
10993W        W27254   6.885  17.600   3.797 -0.0112 -0.0744 -0.0426
10994W        W27255  11.200  17.340  13.649 -0.0812  0.0046 -0.0385
10995W        W27256   6.361  15.308  11.782  0.1436  0.0942  0.0079
10996W        W27257   2.664  17.119   1.368  0.0618 -0.1724  0.0902
10997W        W27258  15.340   6.095   4.030  0.1059 -0.1109  0.0140
10998W        W27259   9.130  19.427   0.327  0.3081  0.1185 -0.3088
10999W        W27260  14.065   1.893   2.551 -0.0691 -0.0178  0.2063
11000W        W27261  10.477  17.070   4.719  0.1359 -0.0415 -0.3065
11001W        W27262  17.237   3.836  11.579  0.0793 -0.1065 -0.4974
11002W        W27263  14.286   0.584  10.770  0.0683  0.0683 -0.0740
11003W        W27264  18.510   7.237   0.393  0.0813  0.3311 -0.3634
11004W        W27265   9.449   1.291   1.855 -0.1843 -0.1181  0.3259
11005W        W27266  16.843  18.341  13.462  0.1207  0.2116 -0.2579
11006W        W27267  13.602   6.923  13.841 -0.0825  0.0039  0.2499
11007W        W27268   8.926  17.712  11.944  0.1642  0.0480 -0.0250
11008W        W27269  15.970   6.001  12.288 -0.1146 -0.3999 -0.0965
11009W        W27270   1.311  10.781  11.168 -0.0675  0.2383 -0.0499
11010W        W27271   2.019   4.374   0.801 -0.0764  0.1061  0.2231
11011W        W27272  18.898  12.913   0.456  0.2285  0.1024  0.2104
11012W        W27273  17.141  13.867  14.381 -0.1125  0.0826  0.2036
11013W        W27274  13.261  12.190  11.137 -0.0218  0.1743  0.1166
11014W        W27275   7.099   7.631  14.692 -0.1398  0.2289 -0.2053
11015W        W27276   0.696  16.215  13.818 -0.1207  0.2950 -0.1958
11016W        W27277   1.724   3.067  10.611 -0.3238 -0.0423  0.0216
11017W        W27278  12.705  18.656   4.117  0.0883  0.0291 -0.0802
11018W        W27279  16.432   9.709   0.699 -0.2063 -0.2054  0.0257
11019W        W27280  15.734   2.569  11.710 -0.2804  0.1783  0.4385
11020W        W27281   8.617  13.239   0.992  0.2176  0.2844  0.1221
11021W        W27282   5.088   7.295  11.074  0.0292 -0.0679  0.0397
11022W        W27283  14.536  18.998   2.859  0.1717 -0.1270  0.0839
11023W        W27284   8.346  11.931   1.513 -0.1036  0.0659 -0.1274
11024W        W27285  14.070  15.239   4.442 -0.1710 -0.0381  0.0337
11025W        W27286   6.848   4.303   3.906  0.0112  0.0616  0.0346
11026W        W27287  12.045   7.083  11.810 -0.3114 -0.2678 -0.1790
11027W        W27288   8.192   3.825   1.358  0.1512 -0.2084 -0.0447
11028W        W27289  14.166  10.604   4.389  0.1453 -0.5447 -0.0538
11029W        W27290  12.296  18.994   1.373 -0.0519 -0.2539 -0.0407
11030W        W27291   7.229   3.816   4.007  0.2174 -0.2429  0.1070
11031W        W27292   4.104   1.055  11.587 -0.1956  0.2544 -0.0927
11032W        W27293  13.696  15.689   3.167  0.0711 -0.1656 -0.3698
11033W        W27294  12.584  15.887   0.858  0.1437  0.0137 -0.2448
11034W        W27295   0.985  12.448   4.020  0.2947 -0.1246  0.2673
11035W        W27296  10.056   9.592   4.076 -0.2597 -0.2253 -0.0385
11036W        W27297   4.735  11.712  11.721  0.1144 -0.1084 -0.0412
11037W        W27298  11.889   0.804  13.393  0.2097  0.1527 -0.1121
11038W        W27299  16.934  16.190  13.864  0.4336  0.2505 -0.2828
11039W        W27300   4.459   7.924  11.689 -0.1532 -0.0276 -0.0491
11040W        W27301   8.689   2.364  13.173  0.0074  0.0174  0.2915
11041W        W27302   8.127  13.791   1.273  0.2454 -0.0082  0.0619
11042W        W27303   2.747  15.213   0.338  0.1912  0.0751  0.0690
11043W        W27304  12.416  10.814   3.217  0.2866 -0.1332  0.1551
11044W        W27305  14.790  16.437  11.076 -0.2172  0.2223  0.2503
11045W        W27306   3.091  11.357   4.270  0.0709  0.1614  0.1622
11046W        W27307   7.320   6.613   1.338  0.1973  0.0232  0.2360
11047W        W27308  16.173  12.315   1.981 -0.0220  0.1555  0.1553
11048W        W27309  17.005   9.955   2.550  0.0261 -0.1113 -0.1824
11049W        W27310  13.245   2.767   4.702 -0.1572 -0.1123  0.3197
11050W        W27311  14.609   6.296  10.572  0.2605 -0.1228 -0.0910
11051W        W27312   8.399   2.931  13.743 -0.0252  0.0296 -0.2244
11052W        W27313   8.253  17.939  11.509  0.0600  0.0119 -0.0816
11053W        W27314  16.961   1.618  14.212  0.2317  0.0950  0.3549
11054W        W27315   0.797   5.418   5.025 -0.3300 -0.0050 -0.2599
11055W        W27316   3.005  12.242   4.343  0.1243  0.2594 -0.2671
11056W        W27317  19.363   3.863  12.797  0.1517 -0.0102  0.0271
11057W        W27318  18.578   8.299   1.904 -0.0010  0.1293  0.1105
11058W        W27319  15.269   3.304   0.307  0.0759 -0.2997 -0.0205
11059W        W27320  19.460   9.176   1.986 -0.0869 -0.1959 -0.0710
11060W        W27321  13.583   2.056   2.529  0.0942 -0.2532 -0.4051
11061W        W27322   3.961  15.843  12.727  0.1935  0.0666  0.1374
11062W        W27323   2.248   3.897   0.680  0.1593  0.1481 -0.0077
11063W        W27324  15.500   5.066  14.310  0.1556 -0.4026 -0.1822
11064W        W27325   4.698   7.103   9.925  0.0400 -0.0684  0.1869
11065W        W27326   7.449  15.219  10.847 -0.0704  0.0374 -0.5462
11066W        W27327   3.314  10.805   1.981  0.3217 -0.0513  0.1597
11067W        W27328  11.565  17.370   0.237 -0.0051 -0.1058  0.2138
11068W        W27329   6.534   4.886   9.547 -0.0613 -0.3113  0.0272
11069W        W27330   4.496   6.203   1.181  0.2224  0.1119 -0.3107
11070W        W27331   2.467  14.391  14.086 -0.0230  0.4723  0.0760
11071W        W27332  10.274  13.982  14.574 -0.0443 -0.0258  0.0859
11072W        W27333   1.374   1.366   3.173 -0.0413  0.3394 -0.5609
11073W        W27334   4.064   6.969  11.953  0.0290 -0.3548  0.2268
11074W        W27335  17.761  17.263   1.623  0.1289 -0.0289 -0.1577
11075W        W27336   1.120  12.503   4.917  0.1388 -0.0460 -0.1328
11076W        W27337   2.834   1.668  10.319  0.0593  0.0383  0.0364
11077W        W27338  16.452  12.164   4.652  0.2826  0.2564 -0.0100
11078W        W27339  11.204   2.800   1.709 -0.0605 -0.0676  0.2082
11079W        W27340   9.884  11.178  10.570  0.0028  0.1385  0.0782
11080W        W27341   0.366  14.771   2.686  0.2553  0.1041 -0.0434
11081W        W27342   8.215  17.451   0.026 -0.0952 -0.0724 -0.5289
11082W        W27343   2.237   9.403   1.031 -0.1908 -0.1645 -0.2301
11083W        W27344  11.587   5.478  10.118  0.0785 -0.1108 -0.4803
11084W        W27345  15.541   6.646   1.448  0.2751  0.0959  0.1583
11085W        W27346   7.903   4.465  12.134 -0.1397 -0.0119  0.1484
11086W        W27347   3.701  16.984  10.863  0.1481  0.2253  0.3326
11087W        W27348   1.559   1.060   0.088 -0.0179  0.0549  0.3054
11088W        W27349   6.878  17.386   0.410 -0.1809  0.1489  0.1445
11089W        W27350   4.945   3.765   4.084 -0.1990  0.0593  0.1637
11090W        W27351  16.831  14.201   3.249  0.0134  0.2955 -0.0289
11091W        W27352   9.396  14.554   2.869 -0.4275  0.4438 -0.2303
11092W        W27353  13.021  13.929   2.470 -0.0406  0.0940  0.4309
11093W        W27354   0.809   1.894   1.620 -0.3328  0.0148 -0.1237
11094W        W27355  12.969  17.035   0.230 -0.2827  0.3299  0.0974
11095W        W27356   1.659   8.514  13.024  0.1100  0.0224 -0.3647
11096W        W27357  15.541  19.108  12.146 -0.1902 -0.0277 -0.2388
11097W        W27358   3.641   6.633   8.841 -0.0899  0.1004  0.2663
11098W        W27359   8.407  10.733   5.157 -0.1740  0.1179  0.5057
11099W        W27360  17.102   5.374  10.726  0.0833 -0.0843  0.0519
11100W        W27361  14.502  14.954   5.396 -0.2127 -0.0048  0.0424
11101W        W27362   5.053  17.540  14.738  0.0319  0.1046 -0.0837
11102W        W27363  11.636   0.823   4.193  0.1960 -0.1568  0.2665
11103W        W27364  15.076  12.801   5.240 -0.0964 -0.1826  0.1784
11104W        W27365   9.567   4.797  12.324 -0.3180  0.0901  0.4578
11105W        W27366   6.256  15.528   1.055 -0.0851 -0.3941 -0.1589
11106W        W27367   2.998   0.021   0.578  0.2389 -0.0625 -0.2510
11107W        W27368   7.746  19.104   3.308  0.1367 -0.0326  0.2601
11108W        W27369   6.274   2.094   2.562  0.0403 -0.3225 -0.1212
11109W        W27370  17.713  17.222  11.262  0.4566  0.3363  0.1295
11110W        W27371  13.794  12.229  14.665  0.1004  0.0239  0.2894
11111W        W27372   0.500   4.182  14.476  0.2752 -0.0490 -0.0196
11112W        W27373  13.131   1.923  11.664  0.1029  0.2304  0.2000
11113W        W27374  17.290   4.046  12.571 -0.2085  0.1290 -0.0399
11114W        W27375  10.990  11.918   1.539 -0.2427 -0.0517  0.4193
11115W        W27376   9.197   3.932   1.741  0.0065 -0.1117 -0.6245
11116W        W27377   3.170  16.279  12.886  0.1078  0.2458 -0.1814
11117W        W27378  15.212  14.052   3.935  0.5478 -0.0309 -0.0046
11118W        W27379  11.565   4.372  12.642  0.0424  0.0760 -0.1691
11119W        W27380  13.939   8.932   5.162 -0.0986 -0.1270  0.1077
11120W        W27381   9.997  17.355   0.725  0.3047 -0.0382 -0.1683
11121W        W27382   7.210   3.467  10.228  0.1545  0.0781 -0.4390
11122W        W27383   3.350  16.325   3.211  0.2292 -0.1743  0.2647
11123W        W27384  14.183   1.981   0.530  0.0331 -0.2482 -0.2396
11124W        W27385   7.238  10.941   3.611 -0.0125 -0.0940 -0.1662
11125W        W27386   0.606   2.058  14.179  0.0499  0.1018  0.0081
11126W        W27387   5.203   8.687   2.701 -0.1208  0.2834 -0.1008
11127W        W27388  12.540   1.448  12.068 -0.3192  0.0491 -0.2824
11128W        W27389   5.704   0.996  10.829  0.1672  0.0426 -0.2469
11129W        W27390  19.103   9.183  10.623  0.3433  0.2977 -0.0818
11130W        W27391   5.443   4.156   0.694 -0.2648  0.1591 -0.1957
11131W        W27392  14.806  19.356   4.429  0.1232 -0.4235 -0.0620
11132W        W27393   0.295  11.027  14.510 -0.0880 -0.3784  0.2655
11133W        W27394  18.840   0.700   1.257 -0.1121  0.1408 -0.0247
11134W        W27395   1.274  19.081   0.695  0.2775 -0.2574 -0.0462
11135W        W27396   1.799   6.597  11.824 -0.2668  0.1337 -0.1022
11136W        W27397   9.564   7.324  10.661  0.0596 -0.1431  0.2736
11137W        W27398   9.906  13.583  11.378 -0.1081  0.1510 -0.0304
11138W        W27399  18.272  10.660  12.081 -0.2180 -0.2600  0.1684
11139W        W27400  14.319   0.635  14.327  0.0309 -0.2651  0.1378
11140W        W27401   9.888   2.950   0.433 -0.1193  0.1095  0.0928
11141W        W27402   4.969  18.274  12.348 -0.1208 -0.3715 -0.2647
11142W        W27403  18.963  13.273  14.762  0.0035  0.4512  0.0287
11143W        W27404  18.626  18.958   3.075 -0.1917  0.2434 -0.0886
11144W        W27405  11.743   3.995  12.383  0.0724 -0.0897  0.0009
11145W        W27406   1.058  10.880   2.491 -0.1461  0.0987  0.0114
11146W        W27407   5.877  17.394  13.240  0.2261  0.2596 -0.0779
11147W        W27408  14.897  12.240   1.155  0.1594 -0.2965 -0.1199
11148W        W27409   2.166  11.761   2.864  0.2277 -0.0929  0.2212
11149W        W27410  14.303  10.036   0.323 -0.1021 -0.2131 -0.1279
11150W        W27411   4.248  16.399   0.083 -0.0102 -0.3298 -0.0814
11151W        W27412   5.296   1.486   0.669  0.3293 -0.0406  0.1216
11152W        W27413   2.867   8.489   1.743  0.1073  0.4259 -0.2404
11153W        W27414  10.103  10.209   0.979  0.2603  0.0468  0.3666
11154W        W27415  19.291  13.219  11.475  0.2086  0.1945 -0.2669
11155W        W27416  15.001   8.672  12.188 -0.0081  0.0703  0.0929
11156W        W27417   9.871   0.319  14.163  0.0168  0.3362  0.0894
11157W        W27418   5.277  11.137  13.169  0.2592  0.2783  0.2432
11158W        W27419  13.859   5.061  11.566  0.2289  0.0194  0.0764
11159W        W27420  11.863  11.844  11.907  0.4066  0.0480 -0.1794
11160W        W27421  19.173   2.492   2.872 -0.0165 -0.1421 -0.1010
11161W        W27422  17.982   1.748   0.065 -0.0363  0.3273  0.0679
11162W        W27423   9.393  18.853   3.920 -0.1534  0.0408 -0.2056
11163W        W27424  11.891   9.245   2.918 -0.0280  0.1197  0.2434
11164W        W27425   0.351  14.605  13.354  0.1423  0.0071  0.2136
11165W        W27426   9.596   4.911   2.395 -0.1541  0.1513  0.0529
11166W        W27427  17.319   0.270   3.855  0.2360 -0.1325  0.0089
11167W        W27428  13.816   0.630  11.627  0.0508  0.0657 -0.1129
11168W        W27429  15.961   9.147   1.718  0.0030  0.2072 -0.0261
11169W        W27430   7.097  13.667  12.208 -0.2066  0.2335  0.2734
11170W        W27431  18.793   4.661  13.216 -0.0280 -0.0832 -0.2046
11171W        W27432  10.722  17.034  11.017 -0.0765  0.1419 -0.1239
11172W        W27433  11.676   5.524   9.174 -0.1572 -0.1631 -0.1139
11173W        W27434   7.829   7.984  14.048  0.2455  0.0535  0.1640
11174W        W27435  12.937  16.602   4.175  0.0585  0.1549 -0.1565
11175W        W27436  15.289   9.936   1.101 -0.0602 -0.2756 -0.2446
11176W        W27437   7.195   5.359  11.980  0.0055  0.1275  0.2274
11177W        W27438   0.129   2.442   4.288  0.2167  0.0970  0.0394
11178W        W27439  14.824  15.792  12.818 -0.1604  0.0057 -0.1525
11179W        W27440  18.513  19.181  11.414  0.1310  0.0706  0.2563
11180W        W27441   6.842   2.949   0.887  0.2783 -0.1495 -0.2096
11181W        W27442   8.081   1.475  13.903 -0.0495 -0.1783 -0.0522
11182W        W27443  13.527   7.938   3.811 -0.0768 -0.0722  0.1507
11183W        W27444   6.223   8.676   1.932  0.0087  0.0025 -0.0331
11184W        W27445  11.822   5.204  14.452 -0.2293  0.3871 -0.0506
11185W        W27446  10.727   1.776   1.391  0.0265 -0.1974  0.3820
11186W        W27447  10.926   0.477   0.849 -0.2186  0.3259 -0.3175
11187W        W27448  13.757   0.823   0.185 -0.0027 -0.0823  0.1207
11188W        W27449   6.039  15.770   1.796 -0.1180 -0.1500  0.1581
11189W        W27450   0.112   7.275   1.906  0.1269 -0.1446 -0.2502
11190W        W27451  16.040  12.233  14.575  0.0365  0.3785 -0.0630
11191W        W27452   6.034  10.188   2.888 -0.1696 -0.2108 -0.0214
11192W        W27453  10.259  18.882   0.803 -0.0119  0.2286 -0.1689
11193W        W27454   7.215  18.499   4.045  0.1296 -0.0107  0.2539
11194W        W27455   3.046  14.534  14.028 -0.0119 -0.2377 -0.0696
11195W        W27456   7.854  12.399  12.298 -0.0676 -0.1085 -0.0507
11196W        W27457   3.183  10.535   3.342  0.0050 -0.1411 -0.1383
11197W        W27458  12.045   3.195   4.120 -0.1719 -0.1872  0.2642
11198W        W27459   4.597  14.652   0.712 -0.0839  0.3478 -0.0699
11199W        W27460   5.046  11.301   3.753 -0.3810  0.1571  0.0435
11200W        W27461  15.953   9.547   2.805  0.0729  0.1173 -0.1999
11201W        W27462  11.293   9.021  10.551 -0.0805  0.1046 -0.3657
11202W        W27463  11.508  18.783   1.668 -0.1224 -0.0512  0.1046
11203W        W27464   9.958  12.395  14.505  0.1479  0.3067 -0.2089
11204W        W27465   0.066   7.306  12.381 -0.1365  0.2837  0.1202
11205W        W27466   5.533  12.204  12.873  0.0688 -0.1907  0.0207
11206W        W27467   3.825  15.969  10.749  0.3665  0.1308 -0.1137
11207W        W27468  17.661  14.193   0.316 -0.1253 -0.0258  0.0843
11208W        W27469  14.966   0.391   0.267 -0.0110 -0.0691  0.2683
11209W        W27470   5.596  12.610  12.468 -0.0924 -0.0112 -0.0470
11210W        W27471   1.322   0.050   0.527 -0.1173  0.1186 -0.2472
11211W        W27472  13.915  13.890  13.971  0.0022  0.0098 -0.0014
11212W        W27473  11.474   0.267  11.830 -0.0031  0.0651  0.1277
11213W        W27474  14.843  17.440  10.768 -0.0705 -0.1772 -0.1989
11214W        W27475  15.540   1.916   1.552  0.3493  0.1446  0.0137
11215W        W27476  14.558   0.832   4.340 -0.3727 -0.1962  0.0291
11216W        W27477  19.299  18.578   9.403  0.0093  0.0584  0.1911
11217W        W27478   7.176   5.688   9.856 -0.0086  0.0922  0.0997
11218W        W27479   8.378   1.259   1.749  0.1347 -0.2254 -0.1791
11219W        W27480   4.187   5.411   2.123  0.3430  0.0196  0.0201
11220W        W27481   1.863   8.552  10.733  0.2302 -0.1387 -0.0921
11221W        W27482  13.762  14.756   0.682  0.1473 -0.2149 -0.2342
11222W        W27483  12.445   3.813   3.417  0.0188 -0.2040 -0.1372
11223W        W27484   7.971   0.121  11.783  0.0384 -0.0655 -0.2195
11224W        W27485   1.345  11.079   0.983 -0.0898 -0.3355 -0.1450
11225W        W27486   2.097   6.388   9.668 -0.1747  0.1921 -0.2446
11226W        W27487  18.465   8.706   0.338  0.2477  0.1482  0.1646
11227W        W27488  16.748  18.525  11.445  0.0872  0.2852  0.0267
11228W        W27489  10.670  17.117   1.902 -0.0729  0.1625  0.0043
11229W        W27490  19.116   3.547   2.894  0.1702 -0.0281 -0.0855
11230W        W27491  11.559  10.815  12.631 -0.2140  0.1200  0.0392
11231W        W27492   0.241  15.251  14.466  0.2660 -0.0561 -0.0372
11232W        W27493   9.502  15.891  10.756 -0.1171 -0.1808  0.0109
11233W        W27494  16.797   5.119   3.743 -0.1369 -0.1328  0.1297
11234W        W27495   9.127  11.198  10.844 -0.0189  0.1691 -0.4954
11235W        W27496  14.514  17.718   3.248  0.0315  0.0595 -0.0425
11236W        W27497   5.788   7.300   2.176  0.2709 -0.2168  0.1561
11237W        W27498  17.421   8.007   0.812  0.2885 -0.0786 -0.0515
11238W        W27499   7.264   1.371   3.741  0.3633  0.1790  0.1870
11239W        W27500  15.600   9.276  12.999 -0.0353  0.1221 -0.1999
11240W        W27501   3.754   0.788   0.504 -0.1776  0.3521  0.2600
11241W        W27502   3.987  10.474  13.195 -0.2167 -0.1908  0.0583
11242W        W27503  10.481   2.330   0.039  0.0531  0.1340 -0.1317
11243W        W27504  15.443   2.078   1.008 -0.0268  0.0024 -0.1697
11244W        W27505  17.048  16.901  14.375 -0.0321  0.1400 -0.0004
11245W        W27506   0.821   6.534   0.167 -0.1687  0.1923 -0.0048
11246W        W27507  10.536  16.591   1.636  0.1526  0.3971 -0.0678
11247W        W27508  17.780   2.502   3.326  0.0639  0.1823 -0.1165
11248W        W27509   5.647  17.456  12.073 -0.2696 -0.1467 -0.1677
11249W        W27510  11.597  10.411   0.203  0.0149 -0.2043 -0.0621
11250W        W27511   7.140  13.127  11.614  0.1504 -0.0134  0.5246
11251W        W27512  18.794   5.514  10.586 -0.3617 -0.1204 -0.0518
11252W        W27513  19.304   5.943  12.254  0.1985  0.2006  0.1607
11253W        W27514  18.888  14.002  10.560  0.2845 -0.2011 -0.0539
11254W        W27515   2.424   3.820   1.896  0.0537  0.0788 -0.1576
11255W        W27516   0.194   0.813   0.001 -0.2056  0.3964 -0.1045
11256W        W27517  13.343   8.377   2.541  0.1647 -0.1402  0.1304
11257W        W27518   3.587   3.764   1.016 -0.0505 -0.0100 -0.2825
11258W        W27519   8.001   0.645  11.666  0.0300  0.1229 -0.1028
11259W        W27520   4.153   6.343   1.969 -0.1164 -0.0973 -0.0908
11260W        W27521  11.049  18.896   5.314 -0.0837  0.0869  0.0913
11261W        W27522   6.405  13.915  10.104  0.1876 -0.2109 -0.2030
11262W        W27523  18.495   1.325   3.023  0.0305 -0.0226 -0.0060
11263W        W27524   4.690   2.773   3.271 -0.0188  0.1063 -0.1586
11264W        W27525  17.392  17.112  14.750  0.2216  0.0301 -0.3705
11265W        W27526   5.324   0.431  13.031 -0.1573  0.2601  0.2472
11266W        W27527   3.699  14.082  10.632 -0.0290 -0.2042  0.2597
11267W        W27528   6.008   6.289  10.283 -0.1833  0.3118  0.1410
11268W        W27529   3.236  16.791   3.358  0.4352 -0.1022  0.0124
11269W        W27530  10.514   9.214  12.142 -0.0329 -0.1742 -0.1078
11270W        W27531  12.278  19.005  13.092  0.2969 -0.1055 -0.0128
11271W        W27532   9.895  14.340  14.187 -0.0599  0.0970 -0.0839
11272W        W27533  13.497  16.757  13.066  0.4183  0.1912  0.0832
11273W        W27534  19.138  13.925  14.360 -0.0422 -0.2356  0.2817
11274W        W27535   8.355  19.195   2.847 -0.2185 -0.2243  0.0242
11275W        W27536  11.830   0.072   2.990 -0.1509  0.0742  0.0269
11276W        W27537   3.965   7.154   2.386 -0.2305 -0.3193 -0.1684
11277W        W27538   6.814   5.003  12.700  0.1996  0.3342 -0.2521
11278W        W27539   6.636  18.836  13.962  0.3808  0.3503 -0.2336
11279W        W27540   0.230   5.221  12.500 -0.2304  0.1906  0.3718
11280W        W27541  12.227  12.547   2.781 -0.0825  0.0909  0.0978
11281W        W27542  15.388  16.931   0.039 -0.0713 -0.1432 -0.2008
11282W        W27543   9.735  12.791   4.263 -0.0415 -0.3691 -0.2330
11283W        W27544   1.813   2.196  11.101  0.0511  0.2425  0.0505
11284W        W27545   0.385   7.387  13.731  0.2673 -0.0312  0.1444
11285W        W27546  13.540   0.910   3.287  0.2153 -0.2493  0.2060
11286W        W27547   0.649  17.337  12.006  0.2376 -0.0846 -0.3873
11287W        W27548   3.130  14.707  11.121 -0.2807 -0.0935  0.0868
11288W        W27549  13.135  13.146  13.830 -0.1593  0.0875 -0.1707
11289W        W27550  11.172   6.079   3.525  0.0821 -0.4191 -0.2414
11290W        W27551  16.553   1.882  12.477 -0.1653  0.1636  0.1122
11291W        W27552  10.197  15.760  12.318 -0.1576  0.6829  0.1849
11292W        W27553  14.171   3.584  11.855 -0.3213 -0.1127  0.3581
11293W        W27554   9.252  10.499  12.830 -0.0303 -0.0562  0.1979
11294W        W27555   6.168  16.586   4.041  0.2382  0.1894  0.0148
11295W        W27556   9.679  12.734  11.184  0.1421 -0.0811 -0.0949
11296W        W27557   0.767   7.708  10.961  0.0013 -0.2898 -0.1612
11297W        W27558  10.537  15.610   2.711  0.1778 -0.0376 -0.0452
11298W        W27559   7.674  10.936   4.676  0.1421 -0.2633  0.2078
11299W        W27560   0.804  18.278  11.544  0.0905 -0.1652 -0.2017
11300W        W27561  12.155  14.537   2.623 -0.1914  0.1919  0.3412
11301W        W27562  14.168   7.462   1.173  0.5645  0.2199  0.0530
11302W        W27563   7.273   4.357   9.606  0.2204  0.0520 -0.3108
11303W        W27564   3.699   0.901  11.845  0.2540  0.1987  0.0312
11304W        W27565  18.653   8.624  12.177  0.0847 -0.0340 -0.1726
11305W        W27566   2.936   0.548  12.978  0.1446 -0.2639  0.1766
11306W        W27567  15.253  19.114   5.167  0.0424  0.2495  0.0605
11307W        W27568   7.072   7.622  11.207 -0.1031 -0.2383 -0.1330
11308W        W27569  14.190  14.723  11.602  0.0678  0.1993  0.1843
11309W        W27570  13.552   7.415  13.912  0.2427 -0.1267  0.0510
11310W        W27571  10.980  18.270   1.151 -0.1645  0.3214  0.3646
11311W        W27572  16.835   8.782   1.549 -0.0199  0.1440 -0.0764
11312W        W27573   0.795   5.984   5.067 -0.0750  0.0131  0.1377
11313W        W27574   4.309  17.007  12.753  0.0619  0.2799  0.0486
11314W        W27575  18.199  19.073   1.568 -0.0559  0.2917 -0.0289
11315W        W27576   2.961   6.329  12.712  0.1910 -0.0818 -0.1442
11316W        W27577   2.880   9.194   3.146  0.0446  0.2112 -0.1943
11317W        W27578   3.287   6.269   4.658  0.0891 -0.3171 -0.0036
11318W        W27579  13.057  10.912   3.564 -0.1520  0.0771 -0.0002
11319W        W27580   6.881   2.019   1.771 -0.2057  0.0702 -0.5358
11320W        W27581  15.994  12.237   4.989  0.0240 -0.0111 -0.1429
11321W        W27582   6.855   0.709  12.743 -0.0159  0.0050 -0.0651
11322W        W27583  10.363  10.902  13.561  0.2599  0.2564 -0.1342
11323W        W27584   1.859   6.242   4.341  0.2240  0.2003  0.1526
11324W        W27585   7.208  18.866  12.716  0.1544  0.1002 -0.1905
11325W        W27586   1.120  10.125   1.856 -0.0365 -0.4261  0.0794
11326W        W27587   3.632   3.362  12.246 -0.3615 -0.2700  0.1270
11327W        W27588   9.943   1.219   4.644  0.1525 -0.0238  0.1345
11328W        W27589   1.766   4.909  14.327  0.1479  0.0661  0.1577
11329W        W27590  15.638   9.139  13.839  0.3207 -0.1369 -0.1949
11330W        W27591  14.898   2.210   5.138 -0.1496 -0.0710 -0.5287
11331W        W27592  12.167   5.105  13.883 -0.2189  0.0404 -0.0163
11332W        W27593   1.544  11.548   0.778 -0.1412 -0.1423 -0.0339
11333W        W27594  11.831   5.408  13.573 -0.0575  0.0922  0.1153
11334W        W27595   1.201   4.619  10.958  0.1425 -0.0436  0.0099
11335W        W27596  13.928   0.383   0.991  0.2233 -0.1407  0.4900
11336W        W27597  18.901  14.790  14.189 -0.3423  0.1558  0.0450
11337W        W27598  13.878  11.686   0.760  0.2453 -0.1393  0.1180
11338W        W27599   4.955  10.856   0.421  0.3074 -0.1144 -0.0386
11339W        W27600   4.278   4.765   0.286 -0.2475 -0.0813  0.2563
11340W        W27601   9.473   9.753  13.210 -0.2585 -0.1327 -0.0133
11341W        W27602  14.896   7.614  10.591  0.2086 -0.1896  0.1189
11342W        W27603   2.484  16.214   2.682 -0.0420 -0.0850  0.0610
11343W        W27604  15.049   4.252  14.128  0.3749 -0.0809  0.2039
11344W        W27605   6.422  16.454   4.618  0.1260 -0.0984 -0.1612
11345W        W27606   0.916  13.892  12.011  0.2293  0.0770 -0.0201
11346W        W27607   2.018   1.430  12.397 -0.1151 -0.0880 -0.0796
11347W        W27608   4.530  13.338   2.803 -0.1707 -0.0117 -0.0073
11348W        W27609  14.242   8.566  13.318 -0.2019 -0.2809  0.3725
11349W        W27610  16.059  10.504  14.264  0.5002  0.0600 -0.4534
11350W        W27611  16.930  11.551  10.912  0.1713 -0.1170 -0.1264
11351W        W27612   8.268  16.463   5.342 -0.0300 -0.0444 -0.1734
11352W        W27613  18.707  16.504  10.567 -0.2512  0.0970  0.0793
11353W        W27614  18.433   3.570   3.464 -0.0621  0.3009 -0.1704
11354W        W27615   3.244  17.389  11.359  0.0832  0.0318 -0.0458
11355W        W27616  16.585  17.399   5.283  0.3356  0.1099 -0.0600
11356W        W27617  18.391  13.307   2.068  0.1427 -0.0522  0.3372
11357W        W27618  12.560  10.453   3.609 -0.1526  0.1699 -0.2504
11358W        W27619   4.255  11.856  13.153 -0.0720 -0.1278 -0.3805
11359W        W27620  17.423   6.939  13.244 -0.1366 -0.0032  0.0490
11360W        W27621  13.412  18.001  12.545 -0.3192 -0.0752  0.1461
11361W        W27622  12.198   2.458   5.050 -0.3440 -0.0556  0.0172
11362W        W27623  14.638   6.202  13.397 -0.1761 -0.1112 -0.0053
11363W        W27624  14.327   9.472  10.759  0.1313 -0.1218 -0.1892
11364W        W27625  10.542   0.003   2.525  0.0059 -0.2989  0.3695
11365W        W27626   6.414   5.367  11.378  0.2894  0.0355  0.0411
11366W        W27627  14.429   6.860   2.288 -0.0077  0.2345 -0.1133
11367W        W27628   2.877  10.234   2.328 -0.3419  0.2439  0.0597
11368W        W27629  16.174   7.439  10.101 -0.3594  0.2400 -0.1111
11369W        W27630   4.999   5.863   3.365 -0.2906  0.0125 -0.1798
11370W        W27631   7.838  13.883  14.264  0.2559  0.0773 -0.2224
11371W        W27632  17.999  18.865  13.886 -0.2955  0.1382  0.2648
11372W        W27633   0.907  12.657   1.573 -0.3313 -0.3370  0.0924
11373W        W27634  17.770   9.396   3.475 -0.0901  0.1189  0.1124
11374W        W27635  19.347   9.630  11.473  0.3681  0.2708 -0.2685
11375W        W27636  13.289  12.273   0.147 -0.1299  0.0687  0.0876
11376W        W27637  10.912  13.055   5.432  0.2409 -0.2961  0.2113
11377W        W27638   0.264  11.103   3.317 -0.0863  0.2642 -0.3112
11378W        W27639  12.317   3.859  14.523 -0.1864  0.3608  0.1614
11379W        W27640  10.162  14.517  10.958  0.3382  0.0263  0.0324
11380W        W27641  18.950  10.734   3.903  0.0999  0.0615 -0.0170
11381W        W27642   5.878   4.332  10.129 -0.0055  0.2116 -0.1865
11382W        W27643   3.961  16.840   2.485  0.3351  0.0055  0.0753
11383W        W27644   8.989  16.262  13.266 -0.0230  0.4169  0.1057
11384W        W27645   9.330  19.446  13.329  0.3366 -0.2759  0.1042
11385W        W27646  10.277   3.889   5.284 -0.0481 -0.4754  0.1302
11386W        W27647  14.212   7.844   0.320 -0.0780 -0.0496  0.0197
11387W        W27648   3.320   2.271   0.715 -0.2439 -0.2501 -0.1359
11388W        W27649   7.076   7.041  11.158 -0.0362 -0.1139 -0.0450
11389W        W27650   2.371  12.215   3.121  0.0150 -0.2860  0.2248
11390W        W27651  17.661   6.101   5.328  0.2142 -0.1965 -0.4781
11391W        W27652   3.341  19.034   4.880  0.0026 -0.0746  0.3070
11392W        W27653   2.524  14.318   0.441  0.3037 -0.0829 -0.0316
11393W        W27654   4.813   2.094   0.988 -0.1374 -0.3331 -0.0412
11394W        W27655  16.840   8.904   4.785 -0.0242  0.0127  0.0423
11395W        W27656  17.598   3.442   1.112 -0.1400  0.0103 -0.1158
11396W        W27657   4.905   3.231   0.756 -0.1359 -0.0066  0.1731
11397W        W27658  14.083   8.514  12.745  0.2230 -0.2979 -0.1543
11398W        W27659  12.085   7.209   5.738  0.0684 -0.1507  0.0493
11399W        W27660  14.391   6.716  12.898  0.1745  0.1742  0.5540
11400W        W27661  13.879   7.808  10.647 -0.1008 -0.2200 -0.1468
11401W        W27662   8.756   6.276  13.888 -0.0615 -0.2212 -0.0553
11402W        W27663   0.847  17.400   4.879 -0.0319 -0.0362  0.1643
11403W        W27664   2.545   1.189   3.774  0.0751  0.0467  0.4302
11404W        W27665  17.568   0.809   0.209  0.4900 -0.1787 -0.3313
11405W        W27666   5.908   5.983   2.429  0.0153 -0.3494  0.2266
11406W        W27667   8.413   9.531   4.793 -0.2925  0.0590 -0.1111
11407W        W27668   0.755   6.665   2.474  0.2086 -0.4240  0.1038
11408W        W27669   2.682  13.731   0.436 -0.1624  0.1391 -0.1073
11409W        W27670   6.796  10.288  12.170 -0.0273  0.2012  0.0712
11410W        W27671  13.987  18.375   1.578  0.2122 -0.2475 -0.3940
11411W        W27672   0.282   9.106   4.477 -0.0786 -0.1708 -0.0891
11412W        W27673   1.734   9.521   3.266 -0.0363  0.3807 -0.0893
11413W        W27674  10.939  10.046  10.999 -0.3851 -0.0861 -0.1206
11414W        W27675  17.287  10.920  14.764 -0.2294  0.0217  0.1535
11415W        W27676  19.457   3.888   3.044  0.1136  0.1080  0.1187
11416W        W27677   7.768  12.278   5.036  0.1563  0.1066 -0.1864
11417W        W27678  12.662   0.014   1.178  0.1728  0.0601  0.1520
11418W        W27679   1.344   5.809  12.389  0.0415  0.2223  0.0658
11419W        W27680  10.840  14.573   3.661 -0.2669  0.0561  0.1042
11420W        W27681  11.776  15.487   4.007 -0.2476 -0.2137  0.2029
11421W        W27682  12.705  16.193  14.159  0.0231 -0.1720 -0.3988
11422W        W27683   0.082   1.250   4.216 -0.1635  0.4116 -0.2572
11423W        W27684  14.807   2.399   4.229 -0.1553  0.1677  0.2292
11424W        W27685  15.999   0.200   9.877  0.1810  0.1881  0.1598
11425W        W27686  17.764   0.761  12.309  0.2993  0.2043  0.3206
11426W        W27687   9.774  18.367   1.356  0.0624 -0.1340 -0.2094
11427W        W27688   4.318  19.311   5.112  0.3886  0.0306  0.2219
11428W        W27689  18.792   7.821   1.913 -0.1775  0.5006  0.3241
11429W        W27690   5.437   3.721   0.996  0.0887  0.0689 -0.0696
11430W        W27691  11.237  15.052   2.772  0.3892 -0.1096 -0.1264
11431W        W27692   4.249   4.647  12.313  0.4115 -0.1401 -0.0050
11432W        W27693  11.347   7.570  14.495  0.1079  0.2068  0.2703
11433W        W27694  17.929   5.540  11.145 -0.1613 -0.1244 -0.0104
11434W        W27695  14.392  19.447  13.958  0.0855  0.2082 -0.1721
11435W        W27696   5.598   8.797  10.900 -0.3653  0.1251  0.1161
11436W        W27697   9.460  17.385  12.673  0.2283  0.0936  0.3997
11437W        W27698   2.252   8.158   2.316  0.1884  0.0994  0.1435
11438W        W27699  17.021  14.974   3.358  0.0140  0.1160  0.0610
11439W        W27700  19.074   5.521  13.104  0.3240 -0.1688  0.0487
11440W        W27701   0.240  16.715  14.515 -0.2640 -0.0623  0.1248
11441W        W27702   5.139  14.999   2.466  0.1088 -0.3646  0.1551
11442W        W27703   7.602   5.370  13.840 -0.0360  0.1119 -0.1619
11443W        W27704  19.164  14.041   3.729 -0.0042 -0.3833  0.0082
11444W        W27705   8.707   1.376  13.768 -0.2593  0.1024  0.0778
11445W        W27706  17.305  10.293  10.556  0.0204  0.4126 -0.2059
11446W        W27707  14.817  16.287  13.003  0.0592  0.0555  0.1999
11447W        W27708  19.273  19.461   3.311  0.1055  0.3734  0.1730
11448W        W27709   9.378   4.048  12.849 -0.1573 -0.1618 -0.2626
11449W        W27710  18.854   2.449  14.081 -0.1871 -0.1807 -0.2381
11450W        W27711  10.124   3.543   0.432  0.1246 -0.1457  0.2092
11451W        W27712   4.887  17.405   0.980  0.1984  0.2963  0.1520
11452W        W27713   1.445   0.519   2.599  0.1478 -0.1507  0.2172
11453W        W27714   9.725  13.954   0.211 -0.0529  0.0521 -0.1833
11454W        W27715   7.938  10.071  13.511  0.2298 -0.1254  0.0699
11455W        W27716   5.568   7.114  13.204 -0.0516 -0.1077  0.1078
11456W        W27717   6.874  15.225   4.088  0.1237 -0.0059  0.2427
11457W        W27718  16.359  12.732  13.430  0.3199 -0.0483  0.0484
11458W        W27719   2.080   3.097   0.161 -0.0962  0.0442  0.2920
11459W        W27720  19.262  13.196   0.987  0.1998  0.2056 -0.0236
11460W        W27721  13.866   8.359  10.724  0.0644 -0.2141  0.4114
11461W        W27722  11.745  11.299  14.505 -0.2620 -0.2085  0.2561
11462W        W27723  13.194   6.022   0.891  0.0019 -0.0467  0.0633
11463W        W27724   5.948   7.419  13.071 -0.0686 -0.2009  0.1288
11464W        W27725  11.193  12.995  13.532  0.1994 -0.1416 -0.3140
11465W        W27726  10.626  18.081   1.946  0.0962  0.0309  0.0236
11466W        W27727   2.946  10.852  13.403  0.1225  0.5860  0.3193
11467W        W27728   0.250   9.765   1.493  0.0306  0.3707 -0.0638
11468W        W27729   7.049   7.906  14.250  0.0856  0.0116  0.2646
11469W        W27730   4.331   3.570  13.063 -0.1740 -0.3395  0.1201
11470W        W27731  11.114  16.428   4.818  0.1217  0.0761  0.2015
11471W        W27732   5.580   0.737  13.661  0.2767  0.3299 -0.1408
11472W        W27733  11.899  14.018  12.098  0.2727 -0.2052 -0.2067
11473W        W27734   1.481   5.560  11.628  0.4550 -0.3941 -0.3159
11474W        W27735  10.661   2.642  13.649  0.1891  0.1091  0.4546
11475W        W27736   4.849  18.091  10.220 -0.1367  0.1288  0.5207
11476W        W27737   7.297   9.382   3.365  0.3228 -0.2555  0.1384
11477W        W27738  17.227  14.323  13.289  0.1909  0.2161 -0.0176
11478W        W27739   6.791  18.522   4.897  0.2038 -0.1427 -0.1992
11479W        W27740  18.077   0.504  11.422 -0.1050  0.4351 -0.1486
11480W        W27741  17.599  13.896  10.810  0.5178  0.1987  0.0660
11481W        W27742  17.073  12.610  10.947 -0.0450 -0.2982  0.1520
11482W        W27743  12.147   8.849  10.160 -0.0424 -0.2543  0.0372
11483W        W27744  16.225   8.019   2.706  0.1338  0.0945 -0.0169
11484W        W27745   4.750  16.188   2.867 -0.0395 -0.0463 -0.2107
11485W        W27746   6.416  11.568   4.204 -0.1302  0.2101  0.3732
11486W        W27747  10.088  12.573   0.187  0.0586 -0.0634  0.1660
11487W        W27748  17.054  18.260   5.655  0.1200  0.0248  0.4536
11488W        W27749   9.826  11.345  11.958  0.0117 -0.1598 -0.0347
11489W        W27750   0.912   4.693   2.325  0.1559 -0.0806 -0.0233
11490W        W27751  13.210  14.863  14.379 -0.3092 -0.2677 -0.0633
11491W        W27752  16.901   3.843   2.706  0.2471 -0.1707 -0.0308
11492W        W27753  16.191   3.192  10.657 -0.3197  0.1251  0.0440
11493W        W27754  18.927  14.034   3.296  0.0457 -0.1138  0.1888
11494W        W27755   2.372  16.163   5.145  0.0886 -0.2279  0.1181
11495W        W27756  18.460   7.935   1.036  0.2071  0.1302 -0.1309
11496W        W27757  18.151   9.628   1.635 -0.2022 -0.1705 -0.2904
11497W        W27758   3.946  17.955   5.241  0.0926 -0.1837  0.0612
11498W        W27759   1.895  18.223   3.451 -0.0202  0.1366 -0.0455
11499W        W27760  16.343   9.067  14.315 -0.3367  0.0825 -0.2348
11500W        W27761   7.964   4.780  10.160 -0.3163  0.1697  0.3757
11501W        W27762   2.239  16.316   4.643  0.0487 -0.2335  0.0814
11502W        W27763  12.771  11.717   2.756 -0.1874  0.2357  0.1525
11503W        W27764  18.589  11.453   4.668 -0.0834  0.0613 -0.0963
11504W        W27765   4.083   0.009   2.332  0.3425  0.1293  0.0272
11505W        W27766   3.637  18.812  12.266 -0.0002  0.0709 -0.0267
11506W        W27767  15.436   9.226  11.456  0.3216 -0.1767 -0.0707
11507W        W27768   6.379  19.210  14.190 -0.1136  0.0633 -0.1930
11508W        W27769   5.191  10.949   3.372 -0.0730  0.0351  0.2388
11509W        W27770  10.336   9.664  13.017 -0.2276  0.0467 -0.1233
11510W        W27771   7.545   1.381   1.301  0.0574  0.1924  0.2435
11511W        W27772  15.121   2.058   5.594  0.0006 -0.2880  0.1046
11512W        W27773  10.321  12.843  13.470  0.0793 -0.1969  0.1142
11513W        W27774  17.531   9.780  11.163 -0.1569  0.0686 -0.0934
11514W        W27775   0.106  11.765   3.512 -0.0586  0.1362 -0.1041
11515W        W27776   1.882   4.008  10.205 -0.1745 -0.1896  0.2067
11516W        W27777  15.492   1.316  14.314 -0.0224  0.0837 -0.2346
11517W        W27778  14.069   0.755  13.507 -0.1640 -0.0485  0.0791
11518W        W27779  17.543  15.448   5.328 -0.1521 -0.1419 -0.1426
11519W        W27780   2.594  12.129  13.881  0.1234 -0.1477  0.1606
11520W        W27781   3.929   6.399  14.250  0.0480 -0.0833  0.0266
11521W        W27782   7.959   5.172   1.415  0.3007  0.0242 -0.2265
11522W        W27783   6.041  10.781  13.827  0.1579  0.0720 -0.1218
11523W        W27784  11.975  14.359  12.979 -0.2114  0.0568  0.0883
11524W        W27785   8.209   7.351   3.841 -0.1048  0.0599  0.2918
11525W        W27786   0.347   0.406   0.266  0.0183 -0.0081 -0.3380
11526W        W27787  11.438   4.283  11.615  0.1663 -0.2270 -0.0131
11527W        W27788   4.551  11.144   2.173 -0.1056 -0.1786 -0.0269
11528W        W27789   7.897  10.899   9.574 -0.0374  0.1846 -0.1116
11529W        W27790   3.077   0.792   3.000 -0.0375  0.0057 -0.1780
11530W        W27791  16.470   7.853   1.703 -0.0545  0.2888 -0.0454
11531W        W27792   5.905   1.585   3.625  0.0124 -0.1234  0.2484
11532W        W27793   5.850  17.473   2.171 -0.0644 -0.2361 -0.1611
11533W        W27794   0.580   1.780  11.768 -0.1249  0.1634  0.0505
11534W        W27795   3.682   2.801  13.092  0.2854  0.1449  0.0566
11535W        W27796  18.928   2.595  14.580 -0.3621 -0.0702 -0.1590
11536W        W27797  18.795   6.181  10.583 -0.0170 -0.1242 -0.4253
11537W        W27798  16.516   9.579  12.804 -0.0375  0.0051 -0.2281
11538W        W27799  17.297  14.446   0.694 -0.1172 -0.0533 -0.1361
11539W        W27800   2.789  11.377   1.153  0.0716 -0.2796  0.1237
11540W        W27801   9.526  18.068  11.550 -0.1211 -0.4120 -0.1178
11541W        W27802   8.807  10.395  13.046  0.1356 -0.2224 -0.0230
11542W        W27803   3.556  11.054  10.384 -0.0064  0.2553  0.0163
11543W        W27804   8.027  17.758   9.450  0.3578 -0.1971  0.2092
11544W        W27805   4.898  18.594   5.003  0.1504  0.0177 -0.3105
11545W        W27806  13.639  12.340  11.499 -0.2704  0.3053  0.0815
11546W        W27807  19.119  19.402   3.828 -0.0561  0.0989  0.2366
11547W        W27808   4.851  16.733   3.354  0.1195  0.2211  0.1863
11548W        W27809   7.735   2.169   3.458  0.1478 -0.1989  0.0720
11549W        W27810   3.891  14.868  11.750 -0.3970 -0.2821  0.2241
11550W        W27811  12.955  18.204  12.423  0.3626 -0.2297 -0.1283
11551W        W27812  15.168   6.931   2.046  0.2417  0.3687 -0.0498
11552W        W27813   9.163   4.612   3.602 -0.1687 -0.1373  0.1151
11553W        W27814  16.489   3.697   5.456  0.1927  0.0662 -0.0519
11554W        W27815  12.862  13.077   3.692 -0.1228  0.1599 -0.2045
11555W        W27816   4.162   8.131  12.139  0.0166 -0.2237  0.1554
11556W        W27817   5.394   7.761   1.010  0.0463  0.1383 -0.2069
11557W        W27818  12.188   3.944  12.162  0.1938  0.1327  0.1816
11558W        W27819  15.452  12.337   0.587 -0.1919 -0.3066  0.2536
11559W        W27820  13.947  11.144  10.474  0.1449  0.0840 -0.0139
11560W        W27821   1.187   2.892   1.253 -0.0498  0.1210 -0.1295
11561W        W27822  17.114   4.523  12.878  0.1398 -0.1290 -0.0291
11562W        W27823   6.888  12.953   4.435  0.0403 -0.2450 -0.1690
11563W        W27824   6.569  18.868   2.564  0.1427 -0.3132  0.2134
11564W        W27825  14.897  17.134  11.846 -0.3826  0.2814  0.0033
11565W        W27826   9.022   7.922   4.260 -0.1062 -0.1560  0.1048
11566W        W27827   1.396  17.089   3.655  0.1018 -0.0808  0.0500
11567W        W27828   2.554  10.101   4.007  0.0589  0.4474 -0.0061
11568W        W27829  19.277   0.042   1.066 -0.2800  0.0136 -0.0285
11569W        W27830  14.266   6.422  13.806  0.0409  0.1168 -0.0866
11570W        W27831   5.182  12.551  11.608 -0.0860  0.1994  0.0371
11571W        W27832   2.320  13.429  13.493 -0.1894 -0.0725  0.0248
11572W        W27833  18.223   3.031   3.732  0.0529  0.3214  0.0835
11573W        W27834  11.062   8.536   2.783 -0.0973 -0.1982 -0.1748
11574W        W27835   8.209   9.207   0.756 -0.0966 -0.1545 -0.0346
11575W        W27836   2.740   9.664   1.456  0.1131  0.1390 -0.0656
11576W        W27837  18.715   0.833  11.385 -0.2521  0.3889 -0.2142
11577W        W27838   7.820   9.814   2.065  0.2146 -0.0705  0.1439
11578W        W27839  15.764   3.088  10.396  0.2613 -0.2212 -0.0407
11579W        W27840   3.054   2.022   1.672 -0.0029 -0.3412 -0.0931
11580W        W27841   2.915   2.934   4.080 -0.0360 -0.2435 -0.1866
11581W        W27842   7.280  16.958  14.187  0.0893 -0.0796 -0.0843
11582W        W27843   7.412  16.376  11.388 -0.3236 -0.0725 -0.0017
11583W        W27844  16.888  11.041   3.110 -0.2641  0.0428 -0.0353
11584W        W27845  11.412  11.111   0.588  0.2387  0.2043 -0.4355
11585W        W27846   6.418   4.943   1.962  0.0418 -0.1668 -0.1315
11586W        W27847  16.690   3.906  10.478 -0.0023  0.0407 -0.2094
11587W        W27848  14.418   9.049  13.251 -0.0361 -0.0305 -0.3370
11588W        W27849   6.259   5.441   1.732 -0.2125 -0.2768  0.1147
11589W        W27850  10.248   2.766   2.124  0.0359 -0.2025 -0.1737
11590W        W27851   5.952   5.067   1.898 -0.2233  0.0201  0.0932
11591W        W27852  12.846  17.834  14.542  0.4708 -0.3866  0.1109
11592W        W27853  17.914   2.909  12.660 -0.0262 -0.1459  0.1343
11593W        W27854  13.217   7.574  13.083 -0.1726  0.1483 -0.1208
11594W        W27855   2.924  12.755   3.166  0.1940  0.0209 -0.2606
11595W        W27856  13.173   2.714  12.325  0.0379 -0.1538 -0.2279
11596W        W27857  16.246  19.106  12.291  0.2490 -0.1530  0.3134
11597W        W27858   8.572   2.760  12.591 -0.1234 -0.0962 -0.3381
11598W        W27859   5.599  15.393   4.322  0.0691  0.1894 -0.2900
11599W        W27860  10.977  17.867  11.658  0.0905 -0.1226  0.1201
11600W        W27861   3.999  14.693   3.493 -0.2181 -0.0402 -0.0868
11601W        W27862  13.279   6.106   2.456 -0.4847  0.0749  0.2043
11602W        W27863   8.345   1.044  10.864 -0.2653  0.1698  0.3069
11603W        W27864   6.782   7.713  13.713 -0.0833  0.0751 -0.0541
11604W        W27865   5.085   8.713   0.486 -0.0686  0.2646 -0.2610
11605W        W27866  14.499  17.475  13.968 -0.0555 -0.0604  0.3777
11606W        W27867  12.257   5.516   4.675 -0.3145 -0.0627 -0.0589
11607W        W27868  15.861  11.457   3.304 -0.0179  0.0703  0.2277
11608W        W27869  15.606   6.358   3.245  0.1611 -0.2503 -0.1470
11609W        W27870  12.644  10.575   1.127 -0.2114 -0.1897 -0.0328
11610W        W27871  16.737  11.049  13.243 -0.2915  0.1603 -0.2718
11611W        W27872   2.484  19.086   0.627  0.1012  0.3203  0.1341
11612W        W27873  11.059  14.403  14.400 -0.3113  0.3053 -0.2992
11613W        W27874  13.000  15.238   9.786 -0.2753  0.0595  0.0211
11614W        W27875  11.202  11.082   2.171 -0.0637 -0.0377  0.2219
11615W        W27876  14.875  13.133  12.391 -0.1243 -0.1480  0.0855
11616W        W27877   2.035  14.157  13.983  0.1091  0.1900 -0.5187
11617W        W27878   2.886  11.144  10.963  0.2091  0.2049 -0.3323
11618W        W27879  12.702   7.270  13.918 -0.1991 -0.0062 -0.2164
11619W        W27880   6.186   6.346  14.420 -0.0423 -0.1144  0.2965
11620W        W27881   9.078  18.370  14.263 -0.0950  0.4027  0.0413
11621W        W27882   2.898  14.976  14.309 -0.2575  0.1530  0.2024
11622W        W27883  19.130   7.484  11.655 -0.0498  0.3000  0.1059
11623W        W27884  10.274   3.425  11.939  0.0789 -0.3325  0.3373
11624W        W27885   6.973  18.233   0.158 -0.0088  0.1198  0.0234
11625W        W27886   6.282  12.657   3.763 -0.0854 -0.2599 -0.0846
11626W        W27887  13.032  10.593  13.620  0.0257  0.3911 -0.2173
11627W        W27888  13.754   8.760   2.858 -0.2242 -0.0320  0.1848
11628W        W27889   9.740   1.695   0.359 -0.1136  0.4053 -0.0228
11629W        W27890  11.406   2.883  11.621  0.0067 -0.0607  0.3287
11630W        W27891   7.984   9.957   3.084  0.1955 -0.1573  0.3491
11631W        W27892   7.444   5.205   1.378  0.0567 -0.1195  0.0068
11632W        W27893  12.546   5.025  12.266  0.2837 -0.0437 -0.0023
11633W        W27894  16.166   8.830   4.105 -0.1048  0.1408 -0.1020
11634W        W27895  14.548   8.839   4.175  0.3582  0.0300  0.1813
11635W        W27896  16.081  11.693   2.088 -0.0007  0.2793  0.1096
11636W        W27897   0.621   4.006  12.234 -0.1860  0.0701 -0.1701
11637W        W27898   4.085  16.726  13.805  0.1514  0.1797  0.1682
11638W        W27899   6.436   2.008  10.072 -0.5673  0.1986  0.4861
11639W        W27900   1.018  17.917  14.359  0.2481 -0.0244 -0.1539
11640W        W27901  16.045  13.828  12.115  0.3029 -0.0150 -0.3223
11641W        W27902  16.800  12.709   0.304 -0.4146 -0.0894  0.0326
11642W        W27903  15.948  17.907  12.967 -0.1282 -0.3560  0.3877
11643W        W27904  18.456  10.209   1.598 -0.0122  0.1811  0.0834
11644W        W27905   3.748   0.501   9.956 -0.0574  0.2206  0.2170
11645W        W27906   5.773   0.125  10.431 -0.2117  0.1114 -0.1001
11646W        W27907   7.847  16.052  13.972 -0.2158  0.4246 -0.1924
11647W        W27908   0.420  12.379   2.901 -0.2201 -0.2481  0.0594
11648W        W27909  14.070  18.968  13.068  0.1088 -0.1296 -0.1736
11649W        W27910  15.858  18.354  12.748  0.6934 -0.0510 -0.2262
11650W        W27911  16.249   6.346   2.824 -0.2249 -0.0028 -0.0449
11651W        W27912   6.468   8.612   2.744  0.0860  0.3193 -0.0740
11652W        W27913   5.650  16.899  11.946  0.1114 -0.0219 -0.0101
11653W        W27914   6.838  16.922  12.005  0.3051 -0.1146 -0.1318
11654W        W27915   8.470   2.665   1.767 -0.0896 -0.1336 -0.0811
11655W        W27916  14.682  19.336   1.044 -0.2389  0.0758 -0.3082
11656W        W27917  19.482  17.868   4.654  0.1021  0.0249 -0.0184
11657W        W27918  17.769  14.656   3.700 -0.2881  0.1721  0.4085
11658W        W27919  14.984  15.798   1.239  0.1476  0.0345  0.2579
11659W        W27920  15.203   4.506   5.284  0.0835 -0.1615 -0.0290
11660W        W27921  10.672   7.319   9.952  0.1051  0.0201  0.1328
11661W        W27922  17.310   2.915  13.822 -0.0956  0.0988 -0.1438
11662W        W27923   3.375  12.392  14.358 -0.1612  0.0839 -0.0100
11663W        W27924   8.004  19.201   0.812  0.3689  0.2668  0.2411
11664W        W27925   7.945  10.361  12.362  0.0608 -0.0017  0.4125
11665W        W27926  17.212   7.439  11.170  0.0562 -0.2898 -0.0052
11666W        W27927   3.967  12.812   1.671 -0.1658  0.2711 -0.2072
11667W        W27928   7.899  12.221   1.445 -0.0478 -0.0983 -0.1087
11668W        W27929   1.575   1.294   1.892 -0.2844  0.3263  0.1070
11669W        W27930   6.996  15.180  13.545  0.2683 -0.1828  0.1435
11670W        W27931   6.794  12.984   0.894  0.1105  0.0692  0.1066
11671W        W27932   1.991   8.717  14.401 -0.1096 -0.2996  0.0740
11672W        W27933  18.588   9.194  12.861  0.1141 -0.1312  0.3452
11673W        W27934   8.904  18.963   4.933  0.1113 -0.0337 -0.2459
11674W        W27935  11.836   6.377  11.308  0.0736 -0.2059 -0.3243
11675W        W27936   3.932   6.583  14.806  0.2828  0.1829  0.1378
11676W        W27937  14.129   0.158   4.463 -0.1072 -0.2006  0.1109
11677W        W27938   9.222   0.932   0.422  0.0475  0.0424  0.1212
11678W        W27939  18.702   6.180   0.376  0.0125  0.2303  0.1448
11679W        W27940   5.845  15.227   3.915 -0.0868  0.1758  0.3938
11680W        W27941  15.469   1.620  10.242  0.2560  0.2565  0.1532
11681W        W27942  18.926  12.200   4.579  0.0036 -0.1017 -0.0995
11682W        W27943   2.197   2.609   4.359  0.0868 -0.2158  0.0216
11683W        W27944   9.951  10.427  13.562  0.1832  0.0756 -0.2239
11684W        W27945   2.838  15.056  10.873 -0.1725 -0.2078 -0.1065
11685W        W27946  17.292  17.966   4.154 -0.3456 -0.1646 -0.2724
11686W        W27947  14.035   3.369  13.771 -0.1053  0.2348 -0.1976
11687W        W27948   8.170  11.547   0.830  0.4053  0.0065 -0.0673
11688W        W27949  16.606   7.406  12.924  0.0915 -0.1095  0.0634
11689W        W27950  17.044   1.711  11.247  0.0388  0.0652 -0.0696
11690W        W27951  15.320   0.097   2.659 -0.2380 -0.2166  0.0608
11691W        W27952   6.234   1.716  12.432  0.1241 -0.3818  0.0731
11692W        W27953  13.750   9.408  10.662  0.1157 -0.0350  0.1025
11693W        W27954   2.615  16.948  14.020  0.1863 -0.2830 -0.0614
11694W        W27955  19.035  18.501  14.678  0.1213 -0.0904 -0.0949
11695W        W27956  12.906  12.197   4.683  0.2261  0.1940 -0.0629
11696W        W27957   1.595  12.859  12.119 -0.1459 -0.2538  0.0276
11697W        W27958  13.635  11.298   1.770  0.0520  0.2277  0.2296
11698W        W27959  12.082   5.294   3.807 -0.2844 -0.2059 -0.2031
11699W        W27960  18.170   8.887  12.045 -0.0997 -0.0277  0.5191
11700W        W27961  18.353  18.280  13.284 -0.3485 -0.1264 -0.3624
11701W        W27962   6.562   2.142   0.492  0.0606  0.1777 -0.0878
11702W        W27963  19.426   4.784  10.857  0.1085  0.1184 -0.3763
11703W        W27964   9.617  11.549  13.448 -0.1539 -0.3277  0.2523
11704W        W27965   0.423   2.804   0.635 -0.1609 -0.1461 -0.1592
11705W        W27966   3.562   2.225  12.884 -0.4781 -0.2288 -0.2132
11706W        W27967  10.995  10.847   0.600 -0.1825 -0.0791  0.1982
11707W        W27968   8.323  17.399  11.250  0.4755 -0.0346  0.3940
11708W        W27969  11.673   3.796   2.707 -0.1372 -0.1349 -0.2766
11709W        W27970  18.506  15.912   4.587 -0.1824 -0.0333  0.5102
11710W        W27971   2.445  13.134   4.699  0.1331 -0.0845  0.0960
11711W        W27972  13.648  15.301   1.363  0.0804  0.0424  0.1247
11712W        W27973   6.985   6.834  13.039  0.0183  0.1493  0.0267
11713W        W27974   8.328   6.156  13.073 -0.2511  0.1052  0.1607
11714W        W27975   2.649   8.320   2.631  0.3414 -0.1271  0.2786
11715W        W27976   6.649  11.236  10.787 -0.2435 -0.2215 -0.0202
11716W        W27977  10.575   9.883  10.658  0.0671  0.2442  0.0604
11717W        W27978  13.343  11.541  13.524 -0.0228  0.1275  0.0525
11718W        W27979   7.621  18.040   2.276  0.0031  0.3246  0.2701
11719W        W27980   8.374  15.125  10.534 -0.0248  0.3041 -0.0478
11720W        W27981   9.551   7.651  14.482  0.2761  0.0816  0.0450
11721W        W27982  16.654   9.951   3.356 -0.0398  0.1846 -0.0151
11722W        W27983  17.857   8.202  14.637  0.2539 -0.3909  0.1859
11723W        W27984   8.755   6.736   1.502  0.0285 -0.3467  0.0415
11724W        W27985  19.145   3.504   4.509  0.3442 -0.1158 -0.1881
11725W        W27986  14.078  11.091   6.011 -0.5387 -0.0650  0.2553
11726W        W27987   1.532   1.191   2.410  0.1434 -0.0863  0.2316
11727W        W27988   5.883  15.506  10.714 -0.0570  0.1618  0.1685
11728W        W27989   9.347  13.286   3.918 -0.0580 -0.3628 -0.1690
11729W        W27990   6.193  10.766   3.197  0.0883 -0.1051 -0.2154
11730W        W27991   6.474  18.992   4.203  0.1355 -0.2126 -0.2254
11731W        W27992  15.484  16.281   4.004  0.3395 -0.1750  0.0417
11732W        W27993  10.153   7.967  11.105 -0.0678 -0.0693  0.1457
11733W        W27994   8.271   2.592  12.974 -0.4921 -0.1243 -0.1513
11734W        W27995  17.438  12.192   3.295 -0.2983  0.0114 -0.1635
11735W        W27996  12.187  16.331   2.883 -0.3019  0.1193 -0.0983
11736W        W27997  10.930   8.380  13.228  0.0514 -0.1379 -0.3234
11737W        W27998   1.460  15.049  11.100  0.4783  0.0252 -0.0284
11738W        W27999   7.788   2.484  13.043 -0.1091  0.5530  0.0086
11739W        W28000  15.381  16.991   5.568  0.1131  0.0531  0.3965
11740W        W28001  11.868   8.843   2.037  0.3587 -0.2215 -0.2208
11741W        W28002  15.485   9.294   1.803 -0.0039 -0.2893 -0.0331
11742W        W28003   4.689   7.437   4.489  0.4261 -0.1022  0.1169
11743W        W28004  16.035   7.320  13.054  0.0217  0.2410 -0.1201
11744W        W28005   0.576  14.341   5.002 -0.0089  0.2525  0.1902
11745W        W28006   3.462  17.084   2.134 -0.2709  0.1333 -0.1243
11746W        W28007   6.182  11.969   2.397 -0.1002 -0.1317  0.2508
11747W        W28008  14.830   7.779  13.319 -0.2311 -0.1288  0.2203
11748W        W28009   0.591   1.691   1.003  0.1168  0.1546  0.0575
11749W        W28010   5.461  10.217  13.632  0.0554  0.0043 -0.2881
11750W        W28011   3.312  11.077  12.531  0.2174  0.0490 -0.2844
11751W        W28012   1.489   3.219   4.709  0.0622 -0.0300 -0.1979
11752W        W28013  12.176   8.816   9.461  0.1144  0.3275 -0.6770
11753W        W28014   2.223  12.888  12.402  0.4015 -0.1062 -0.0431
11754W        W28015   6.944   9.270   2.047 -0.1042  0.0260  0.2891
11755W        W28016   1.008   0.775   3.422 -0.1995  0.1641 -0.1116
11756W        W28017   5.515  11.769  13.692 -0.1122  0.1202  0.1515
11757W        W28018  18.781   9.698  12.496 -0.0272 -0.0151  0.0114
11758W        W28019  10.772  17.280   0.691  0.2368  0.2252 -0.0713
11759W        W28020   0.265  12.891   2.749 -0.0333 -0.1712 -0.1411
11760W        W28021  18.970  14.576   6.027  0.1258 -0.1408  0.1623
11761W        W28022   3.239  19.485   4.204  0.1793 -0.0551 -0.2028
11762W        W28023   8.521  17.967   4.453  0.0104  0.3303 -0.1099
11763W        W28024  18.943   5.877  14.807 -0.1748  0.0881 -0.1744
11764W        W28025  15.552  18.809  14.590  0.2077  0.0308  0.0821
11765W        W28026   5.752   5.673   2.011 -0.2008  0.1808  0.0639
11766W        W28027  19.438  16.072  10.642  0.2170 -0.1221  0.1083
11767W        W28028  19.217  13.833  13.689  0.2685 -0.0808  0.0376
11768W        W28029   6.596   1.546   4.402  0.1153 -0.0217  0.0657
11769W        W28030   3.640  15.365   2.454 -0.2642 -0.1429  0.0115
11770W        W28031  15.170   1.018   0.599 -0.2105 -0.1433  0.0684
11771W        W28032  14.978  14.331   5.872  0.0087 -0.1184 -0.0147
11772W        W28033  12.218  10.006   0.884 -0.2675 -0.0502  0.2762
11773W        W28034  16.118   2.922  11.057  0.0852  0.0305  0.1536
11774W        W28035  18.188  14.802   1.607 -0.0379  0.3603  0.2306
11775W        W28036   1.294   7.806   1.202 -0.4189 -0.3710 -0.0404
11776W        W28037  16.070  16.004   4.752 -0.2509 -0.2017 -0.1513
11777W        W28038  13.807  18.708   4.548  0.2114 -0.3536  0.1707
11778W        W28039  13.074  19.003   4.223  0.0067  0.3122  0.0367
11779W        W28040  19.219  16.684  12.936  0.0159  0.1820 -0.1698
11780W        W28041   6.695  16.846   2.384 -0.0519 -0.2523  0.3335
11781W        W28042   4.518  19.251   0.991 -0.0026 -0.0895  0.0739
11782W        W28043  11.414   8.458   3.197  0.1031  0.0830  0.1895
11783W        W28044  16.028  13.705   0.850  0.0261 -0.0164 -0.3427
11784W        W28045   5.041  14.172   2.930  0.2445  0.2195 -0.0164
11785W        W28046  19.376   5.897   4.810  0.0636  0.1118  0.0519
11786W        W28047   7.502  17.502  12.114  0.2720 -0.0690 -0.1305
11787W        W28048   8.048   1.328  12.297 -0.0539 -0.0902  0.1496
11788W        W28049  10.809  16.831  14.584  0.0251 -0.1204 -0.2004
11789W        W28050  13.876   8.430   5.701 -0.0769  0.2116 -0.0052
11790W        W28051   2.116   4.660  12.336 -0.3791  0.5056 -0.1143
11791W        W28052   3.492  17.527  13.949 -0.0920  0.0051 -0.1925
11792W        W28053  15.940  12.148   0.652 -0.2145  0.1439 -0.2224
11793W        W28054   2.751  15.989  10.884 -0.0768  0.1166  0.1009
11794W        W28055   0.522  18.905   3.435  0.4126 -0.0853  0.1403
11795W        W28056   2.056  17.288   1.402 -0.1675  0.1006  0.1946
11796W        W28057   5.519   1.738   3.289  0.0179 -0.2108  0.1657
11797W        W28058   9.307   4.696  10.908  0.3481 -0.1079 -0.1881
11798W        W28059   8.947  16.824   5.499  0.2038  0.0448 -0.1500
11799W        W28060   0.049  17.017  14.140  0.1723 -0.0929  0.0759
11800W        W28061   6.898  17.540   9.796  0.2353 -0.0530  0.1099
11801W        W28062  13.351   6.106  13.660  0.0423  0.1507  0.0840
11802W        W28063   8.507   8.348   0.259 -0.0605  0.0137 -0.2244
11803W        W28064  11.491  13.961  10.759  0.0387  0.1811 -0.0967
11804W        W28065  10.413   7.802   0.317 -0.2203 -0.0949 -0.3207
11805W        W28066   5.922   0.619  14.264 -0.2267 -0.1749  0.1798
11806W        W28067  14.456  17.828   4.385 -0.0175 -0.3377  0.1450
11807W        W28068  16.952  14.446  13.766  0.2162 -0.1490 -0.0224
11808W        W28069  11.696  10.803  14.643  0.3068 -0.0527  0.1625
11809W        W28070   2.485   4.074   4.564  0.0897 -0.1676 -0.1515
11810W        W28071   3.255  10.532  13.737  0.0516  0.1236 -0.1784
11811W        W28072  12.939   9.097  11.702  0.0485  0.0011  0.2676
11812W        W28073   2.677  18.430   1.665  0.2688 -0.1311  0.2519
11813W        W28074  17.135  15.096   1.311  0.0633 -0.0387  0.1159
11814W        W28075   6.852   5.969  12.912  0.0749 -0.2650  0.0703
11815W        W28076  15.851  17.777   5.417 -0.0970 -0.2636  0.1368
11816W        W28077   8.817   6.260   1.543 -0.2071  0.2615 -0.0746
11817W        W28078  16.598   4.787   0.686  0.0357 -0.0011 -0.1388
11818W        W28079   4.827  18.603   0.789  0.1627 -0.0857 -0.0798
11819W        W28080  17.695   4.186  14.085  0.2506  0.1682  0.0603
11820W        W28081  10.597   0.459  12.382  0.0694  0.0098  0.0783
11821W        W28082   5.036  16.212   1.765  0.1247 -0.0181  0.0517
11822W        W28083  13.246   0.324   3.916 -0.1028 -0.0609 -0.2291
11823W        W28084   2.698  10.995  11.980  0.2244 -0.0183  0.2703
11824W        W28085  11.342   6.897   2.609 -0.0026 -0.1204  0.0853
11825W        W28086   3.057   7.686  12.178 -0.0130  0.1793  0.0202
11826W        W28087  17.827  11.089  11.783 -0.0920 -0.0261  0.0052
11827W        W28088   5.249   6.354   0.743 -0.4100  0.0652  0.1956
11828W        W28089   8.595   1.048  10.328  0.0548  0.2475  0.0100
11829W        W28090   3.985   1.112  10.668  0.0309 -0.2709  0.0141
11830W        W28091   6.179  15.193   0.658  0.0754  0.1101  0.1173
11831W        W28092  11.678  13.408   1.002  0.0594  0.2688 -0.0256
11832W        W28093   6.665   9.251   0.974 -0.3147 -0.1419 -0.1204
11833W        W28094  18.446   6.079  12.602  0.2868  0.0083  0.1007
11834W        W28095   6.866  12.315  12.061  0.0031 -0.2535  0.0098
11835W        W28096   3.442  18.691  14.172  0.1029  0.0117  0.0944
11836W        W28097   6.557   5.168  13.212  0.2962  0.0133 -0.1265
11837W        W28098  18.312  13.647  11.548  0.2806  0.2463 -0.1308
11838W        W28099  13.446  16.140  12.805 -0.3842 -0.2689  0.2402
11839W        W28100   1.476  16.344   9.999  0.0727 -0.3972 -0.1818
11840W        W28101  19.225  15.599  11.743 -0.0357  0.0496 -0.1485
11841W        W28102  11.017   2.171   3.616 -0.0885  0.0325 -0.0454
11842W        W28103   1.762  19.131  12.965 -0.1248 -0.0130  0.2867
11843W        W28104   9.058   1.837   0.218  0.0108  0.2227 -0.1110
11844W        W28105   0.100  14.589   5.508  0.2450 -0.3008 -0.2121
11845W        W28106  18.627   2.474  12.231 -0.0859  0.1233 -0.1280
11846W        W28107   6.490   8.068  13.864 -0.1984 -0.2388  0.0077
11847W        W28108   7.592   5.919   2.160 -0.2478 -0.2987  0.1152
11848W        W28109   9.145  12.172  13.602 -0.1634 -0.0598 -0.0013
11849W        W28110   1.038   3.744  12.011 -0.1564  0.3757  0.0222
11850W        W28111  12.929   6.272   3.859  0.2350  0.1861  0.3684
11851W        W28112   1.426   1.979  12.153 -0.0936  0.0324  0.0419
11852W        W28113  10.514   9.637   3.743  0.0775  0.2453 -0.2847
11853W        W28114  15.196   1.640   2.924 -0.0138 -0.2310 -0.0450
11854W        W28115  15.986   5.395   0.392  0.2363 -0.0162  0.0541
11855W        W28116  11.874  13.073  12.978  0.2464  0.0860 -0.3004
11856W        W28117   0.913   4.802   9.667  0.0540  0.2652 -0.1563
11857W        W28118   2.427  13.837  13.961  0.2610 -0.2692 -0.1508
11858W        W28119  12.124   9.180  12.104  0.0771  0.1191 -0.0788
11859W        W28120  11.716  13.818   3.200 -0.0888  0.2287  0.0682
11860W        W28121  13.587  17.617   3.485  0.0395  0.0544  0.1282
11861W        W28122  14.393   5.240  12.318 -0.1615  0.1560 -0.2553
11862W        W28123  11.904   7.576   2.879 -0.4787  0.0857 -0.1257
11863W        W28124   0.908   4.542  11.403  0.1820  0.2255 -0.0002
11864W        W28125  10.235   7.812  13.862 -0.0943  0.0829  0.3098
11865W        W28126  11.476   2.023   3.160 -0.0048 -0.1151  0.0430
11866W        W28127   5.682   8.092   3.477  0.0042  0.1037  0.0269
11867W        W28128  17.072   5.201   0.894 -0.0012 -0.1332  0.1212
11868W        W28129  13.091  18.897   1.568  0.0798  0.3938 -0.1208
11869W        W28130   0.987  16.016  12.224  0.3507  0.1562 -0.1289
11870W        W28131  15.047   3.870   2.839 -0.0948 -0.2092 -0.1206
11871W        W28132   7.180   2.748  12.236 -0.0044  0.2241 -0.0708
11872W        W28133   4.544   0.813  13.029  0.1307  0.2013 -0.1584
11873W        W28134  16.989  11.887   2.830 -0.1734  0.0927  0.1658
11874W        W28135   5.108   7.963   1.745 -0.0254  0.0075  0.1979
11875W        W28136   8.063  17.885   2.584  0.0023  0.0729  0.1518
11876W        W28137   9.355   0.582  12.970  0.1358  0.1534  0.0406
11877W        W28138  15.337  19.451  14.587  0.0669 -0.2529 -0.1843
11878W        W28139  10.235   7.058   0.635  0.1707 -0.3079  0.2815
11879W        W28140  16.401  16.074  12.644 -0.0343  0.0950 -0.0943
11880W        W28141   4.542  11.135   3.994  0.1163 -0.1496  0.4314
11881W        W28142  16.079   6.875   2.116  0.0187 -0.1795 -0.0410
11882W        W28143   7.629   3.234   2.363  0.1453 -0.3191  0.2794
11883W        W28144   5.825   9.719  14.403 -0.0567 -0.0876 -0.0618
11884W        W28145   8.984   5.164   9.395 -0.0619 -0.1135  0.0417
11885W        W28146  11.495  14.930   2.201  0.0738  0.1083  0.1891
11886W        W28147  14.905   8.296   4.114 -0.0127 -0.1192  0.0534
11887W        W28148  14.393  13.658   0.309 -0.0796  0.0069  0.0414
11888W        W28149  17.091   0.141   3.473  0.3213  0.2031 -0.1056
11889W        W28150  10.433  17.552   4.719 -0.2458  0.0647  0.1393
11890W        W28151  15.086  18.401  11.925  0.0559  0.1646 -0.2380
11891W        W28152  12.461  11.945  10.466 -0.4169  0.4168 -0.1221
11892W        W28153   7.019   7.957   3.263 -0.0488 -0.1806 -0.1138
11893W        W28154  12.486  14.593   1.498  0.1635 -0.2225  0.2624
11894W        W28155  13.058   9.772  13.382  0.1482 -0.0787  0.0637
11895W        W28156   1.294   8.737   4.101  0.0422  0.1406 -0.1784
11896W        W28157  15.057   2.617  14.140  0.1233 -0.2407 -0.0907
11897W        W28158  17.940   8.116  13.341 -0.0093  0.1659  0.3403
11898W        W28159  18.920   4.996   1.696  0.3349 -0.1826 -0.0558
11899W        W28160  12.473  11.861   1.119 -0.0769  0.1711  0.1978
11900W        W28161   2.554   4.320   0.958  0.2023 -0.1001  0.0077
11901W        W28162  14.419   7.984   5.351 -0.1643 -0.2653 -0.0271
11902W        W28163  10.540  16.161  11.426  0.0511 -0.0941  0.1525
11903W        W28164   3.904   5.337   2.526  0.1433  0.2496  0.2449
11904W        W28165  12.258   5.715   4.111  0.0359 -0.1967  0.0030
11905W        W28166   2.314   4.282  12.564  0.1305 -0.0043 -0.1235
11906W        W28167   7.732  11.497  11.304  0.0549  0.1019 -0.2449
11907W        W28168  19.330  16.904  14.719  0.3936 -0.1544  0.1242
11908W        W28169  16.185   4.879  13.442  0.1062 -0.4516  0.1094
11909W        W28170   8.163  16.855  12.451  0.0590  0.0573  0.1754
11910W        W28171  11.872   4.072  13.631 -0.0571 -0.1317 -0.3264
11911W        W28172  11.679   2.265   3.624 -0.1781  0.1017  0.0361
11912W        W28173   1.430   9.705   2.895 -0.1265 -0.2899  0.2185
11913W        W28174   1.651   5.992  11.740 -0.0948 -0.4755 -0.0254
11914W        W28175  10.037   7.373   3.699  0.3210 -0.1463 -0.3718
11915W        W28176  14.082   5.172   1.311 -0.1261 -0.1264  0.3344
11916W        W28177   3.809  14.005   0.964  0.0215  0.0608 -0.0347
11917W        W28178   9.903   4.107   3.454  0.0029  0.1621  0.3338
11918W        W28179   5.322  12.897  13.345 -0.0845  0.0665 -0.2545
11919W        W28180   3.370  13.679   0.841  0.0740 -0.0556 -0.2459
11920W        W28181  16.410  19.333   2.924 -0.2597 -0.2085 -0.0200
11921W        W28182   9.522   0.089  12.835  0.2097  0.1490  0.3066
11922W        W28183  13.639   0.482  10.103  0.4140  0.0535 -0.0563
11923W        W28184  11.441   7.697  12.009 -0.2414  0.2790  0.1660
11924W        W28185  11.898  13.585  12.303  0.1608  0.1460 -0.1589
11925W        W28186   1.161  12.020   4.996 -0.1089  0.1460  0.0776
11926W        W28187  14.566   2.417   3.805  0.1293  0.2329  0.1807
11927W        W28188   9.367  12.474  13.179 -0.2435 -0.1269  0.0869
11928W        W28189   6.476  14.773   0.774  0.3124 -0.0862 -0.2264
11929W        W28190  17.740   5.225   3.084 -0.2899  0.0534  0.1371
11930W        W28191   2.665  15.388   4.613 -0.2980  0.0115 -0.1359
11931W        W28192  14.660  18.483   1.559 -0.2480  0.1012  0.2933
11932W        W28193  14.730   2.571   0.680  0.0633  0.4975 -0.0837
11933W        W28194  15.549   4.070  14.011 -0.1694 -0.0812  0.0771
11934W        W28195   8.336   1.873  10.718 -0.4227  0.2929 -0.1082
11935W        W28196  16.762  15.817   1.178  0.0757  0.3612  0.0026
11936W        W28197  19.043   5.766  10.924  0.1853 -0.0767  0.0817
11937W        W28198  17.832  12.543   2.802 -0.2310  0.2888  0.0554
11938W        W28199  18.244  11.475  10.590  0.0750 -0.0759  0.1529
11939W        W28200   8.592  13.631   3.715  0.0167 -0.2526 -0.3326
11940W        W28201  14.797  11.867  13.199  0.0314 -0.0029 -0.0161
11941W        W28202  14.678   9.559  13.878  0.1058  0.1564 -0.1320
11942W        W28203   4.599  17.132   1.311 -0.0691 -0.1628 -0.1911
11943W        W28204   6.945   1.474  11.387  0.0722  0.0045  0.1654
11944W        W28205  17.073  16.149   1.368 -0.0446  0.0540 -0.1303
11945W        W28206  17.288   7.653  10.443  0.2312 -0.0996  0.3859
11946W        W28207  13.026   8.169   3.016  0.0137 -0.1082  0.0034
11947W        W28208   8.067   6.358  11.852 -0.1737 -0.1508 -0.1506
11948W        W28209  11.232   1.015  14.321 -0.0947 -0.1777  0.0065
11949W        W28210  10.923   8.603  11.635 -0.1817 -0.1963 -0.1756
11950W        W28211  17.350   9.071  10.149  0.3586 -0.0699 -0.0680
11951W        W28212  18.541   7.518  12.897 -0.1336 -0.4033 -0.3468
11952W        W28213   6.628  16.425   4.112  0.4702 -0.0944 -0.1541
11953W        W28214  14.949  18.795   2.550 -0.0010  0.3604  0.3236
11954W        W28215   3.647   9.115   0.644  0.0110 -0.0717  0.1048
11955W        W28216   6.772   7.852  12.568  0.2567  0.1668  0.4973
11956W        W28217  17.665  17.571  10.964 -0.0401  0.0801 -0.0269
11957W        W28218  18.859   3.750   0.778 -0.1796  0.0929  0.1244
11958W        W28219   1.038   1.966   4.292 -0.1404  0.1456  0.2224
11959W        W28220   1.299  11.866  13.365  0.2862 -0.0364  0.2079
11960W        W28221   5.547   3.116  13.220 -0.1371 -0.2211  0.0082
11961W        W28222  14.999  19.288   3.478  0.2666 -0.0059 -0.0184
11962W        W28223  18.112  15.838  11.628  0.4363  0.0898  0.3187
11963W        W28224  12.006  12.368  12.123 -0.1357 -0.1410  0.1833
11964W        W28225  11.339  14.424   0.775  0.0390  0.0238 -0.0085
11965W        W28226   5.333   8.231   2.569 -0.2376 -0.0327  0.2175
11966W        W28227   6.369   0.222   0.135 -0.1173  0.1721  0.2853
11967W        W28228  15.662  18.288  13.272 -0.2025 -0.1619  0.1026
11968W        W28229  10.043  17.239   4.991 -0.1378  0.1740 -0.1033
11969W        W28230  14.856  12.156  13.602 -0.0909  0.0650 -0.0073
11970W        W28231   5.322  18.831   1.968 -0.1017 -0.2112  0.0156
11971W        W28232  16.446   4.525   1.107 -0.0989 -0.4052 -0.0697
11972W        W28233  14.539   3.289  13.684 -0.0606  0.0722  0.3773
11973W        W28234  17.873  13.485   3.486  0.0108  0.3053  0.0703
11974W        W28235  10.924  11.169   0.101  0.1218 -0.0214 -0.0305
11975W        W28236  15.250  11.537   2.557  0.0759 -0.2329 -0.0882
11976W        W28237  11.495  18.586   0.254 -0.1339 -0.0283 -0.0415
11977W        W28238  16.584  13.892   3.806 -0.1083 -0.2333  0.0749
11978W        W28239  19.285   5.332  12.008 -0.0225 -0.0785  0.1830
11979W        W28240  14.534   8.992  13.933  0.0081  0.0361  0.2024
11980W        W28241  14.113  17.378  12.437 -0.2175  0.0237  0.0267
11981W        W28242  18.190   2.035  10.590 -0.2378  0.0141  0.1095
11982W        W28243   5.750  17.840  10.147 -0.0952  0.1564  0.0297
11983W        W28244   1.037   5.916   4.108 -0.0968  0.0257  0.1027
11984W        W28245  12.114   2.968   2.431 -0.3426 -0.2770 -0.0981
11985W        W28246   4.213  19.313   1.896 -0.1267 -0.2745 -0.1544
11986W        W28247  18.681  13.245  11.658  0.4744 -0.0485 -0.0181
11987W        W28248   5.348   7.231   2.395  0.1150 -0.1132 -0.1904
11988W        W28249  10.334  13.172   0.196 -0.0094 -0.0338 -0.0006
11989W        W28250  17.265   2.113  12.238 -0.0155 -0.0975 -0.0344
11990W        W28251  15.904   9.310  13.405 -0.1703  0.2173  0.1483
11991W        W28252  13.901   8.124  13.228 -0.0582  0.2319 -0.2788
11992W        W28253   8.895  10.833  12.820  0.3493  0.4065  0.1402
11993W        W28254  14.713   4.579  14.386 -0.2327 -0.0531 -0.1812
11994W        W28255   9.879  15.352  12.143  0.0991 -0.3919  0.0458
11995W        W28256  18.031  10.638  11.645 -0.1774 -0.1113 -0.1568
11996W        W28257  18.189   7.307   9.504 -0.1045 -0.1373 -0.1835
11997W        W28258  17.170  16.388  14.255 -0.1033  0.0909 -0.1451
11998W        W28259   6.291   8.929  14.145  0.3269  0.1102 -0.1459
11999W        W28260  12.376   3.734  10.329  0.0308 -0.0129  0.0978
12000W        W28261   5.530   6.805  12.712  0.2089  0.0225 -0.0224
12001W        W28262  15.084  12.350   3.826  0.1904 -0.3562  0.1695
12002W        W28263  10.749   2.939   4.368  0.3759  0.2898  0.1170
12003W        W28264  15.453  10.586   3.527 -0.0907  0.0454 -0.0861
12004W        W28265  14.213   0.599  12.163 -0.1639  0.0584 -0.0027
12005W        W28266   9.669  16.717  10.158 -0.3841  0.1424 -0.0821
12006W        W28267   2.631  17.886   0.552 -0.2850 -0.0739  0.0458
12007W        W28268  10.834   6.693   0.526  0.0349  0.3590 -0.0301
12008W        W28269  17.877   1.591   4.707 -0.2184  0.1776  0.1426
12009W        W28270  14.966  13.180  10.247  0.2589  0.0181  0.3247
12010W        W28271  15.277  19.201  12.611 -0.3155  0.1278  0.2063
12011W        W28272  18.892   2.307   0.992 -0.3107 -0.0756 -0.3455
12012W        W28273   3.083   0.212  11.147 -0.1342  0.1181 -0.1950
12013W        W28274  10.912  15.239   5.891 -0.1967  0.1340 -0.0523
12014W        W28275   7.236  17.231   3.824 -0.2112 -0.0139  0.1003
12015W        W28276  18.472   4.792  12.769 -0.0993  0.0384  0.1867
12016W        W28277  10.535  11.532   0.948  0.1001  0.0519  0.2458
12017W        W28278  16.123   9.532  14.011 -0.1410  0.0248  0.2161
12018W        W28279   9.019  17.172   4.901 -0.0967 -0.3020 -0.1816
12019W        W28280   1.761  14.919   2.336  0.0639  0.3647  0.1516
12020W        W28281  17.775  18.938  14.302 -0.1158 -0.0620 -0.2836
12021W        W28282   5.199  18.419   4.662 -0.1311  0.0217 -0.2899
12022W        W28283   1.677  10.913  13.440  0.0806 -0.1677 -0.3650
12023W        W28284  11.436   8.597  14.381 -0.0935 -0.2804 -0.0163
12024W        W28285  14.883   9.948  14.179 -0.0584  0.3155  0.1249
12025W        W28286  14.093   3.361   0.933  0.1674 -0.3023  0.0227
12026W        W28287   5.478  18.449  12.633  0.2211  0.1556  0.0238
12027W        W28288   1.012   4.841  10.535  0.0745  0.2636  0.0643
12028W        W28289   0.981  12.112   1.939  0.0556  0.1987  0.0938
12029W        W28290  13.874   9.486  12.600 -0.2684  0.1344 -0.0102
12030W        W28291  18.114   9.775  10.952  0.1527 -0.0395 -0.1131
12031W        W28292   1.072   2.171   2.933  0.0144 -0.0783  0.1834
12032W        W28293   1.316   7.816   2.484  0.4272  0.1099 -0.1043
12033W        W28294   4.071   0.052   0.127 -0.0610 -0.0027  0.2136
12034W        W28295  18.565   0.873  14.638 -0.0165  0.1199 -0.0846
12035W        W28296   3.487   7.170   2.187 -0.3607 -0.4120 -0.2374
12036W        W28297   4.366  15.467   2.284 -0.3904 -0.3075 -0.1861
12037W        W28298  14.457  13.203   2.593 -0.2039  0.1573 -0.1824
12038W        W28299   4.208   1.059  13.990 -0.0469 -0.0732 -0.2262
12039W        W28300   8.548   4.214   0.542  0.0922  0.0353  0.2125
12040W        W28301  17.574   1.674  13.980  0.2028 -0.0196  0.0917
12041W        W28302  10.127  13.240  13.785 -0.0869  0.0140  0.0744
12042W        W28303   2.350   5.682   1.390  0.3368 -0.1496  0.0153
12043W        W28304   8.929   1.755  14.173 -0.0631  0.1420  0.1376
12044W        W28305   2.175   3.529  10.269  0.0415  0.1575 -0.1282
12045W        W28306  11.963   6.672  13.409  0.1650 -0.1579  0.1160
12046W        W28307   9.141   6.407   1.962  0.2073 -0.2203 -0.0986
12047W        W28308   5.510  14.289   3.996 -0.1495 -0.4663 -0.2961
12048W        W28309   0.359  18.885   4.424  0.0781 -0.3448 -0.2216
12049W        W28310   3.420  12.027   2.560  0.0309 -0.0814  0.1678
12050W        W28311   6.089   2.268   9.651 -0.0322  0.3233  0.3883
12051W        W28312  16.313   6.085  11.185 -0.2076 -0.1930  0.2622
12052W        W28313  10.796   2.159  12.233  0.2281  0.0402  0.1104
12053W        W28314  12.402  12.272  12.550  0.2073 -0.1570 -0.2306
12054W        W28315  10.213   2.948  12.500 -0.1194 -0.1216 -0.0955
12055W        W28316  11.067   2.432  14.028  0.1883 -0.2582  0.6451
12056W        W28317  15.878  11.481   4.467 -0.3121 -0.0004 -0.1450
12057W        W28318   5.322  14.609   2.892  0.0890 -0.1409  0.3155
12058W        W28319   1.645   0.557   3.178 -0.2662  0.0453 -0.1195
12059W        W28320  16.081   1.731  11.513  0.2794 -0.0952  0.1390
12060W        W28321  15.312   1.687  14.592 -0.0406  0.1324 -0.2054
12061W        W28322  13.932  15.263   4.953 -0.0776 -0.2187 -0.1960
12062W        W28323   3.044   6.150  14.808  0.3937  0.1695  0.1707
12063W        W28324   6.368   7.482  13.367  0.1548 -0.3073  0.4226
12064W        W28325  11.681   4.391   4.266  0.0821  0.1740  0.4159
12065W        W28326  13.912   6.713  10.238 -0.1198  0.1186 -0.1063
12066W        W28327   3.520  14.457   5.036 -0.0447  0.2727  0.0364
12067W        W28328   6.476   2.296  10.544 -0.2756  0.5511  0.3398
12068W        W28329  11.619  18.255   1.787 -0.0003  0.0619  0.0301
12069W        W28330  19.137  10.100   4.922  0.0723 -0.0428  0.1617
12070W        W28331   0.788   6.944  12.970  0.0043 -0.2033  0.0002
12071W        W28332  14.598   9.526   1.250  0.2227  0.0707 -0.0913
12072W        W28333  10.180  18.012   4.702  0.3016  0.1890  0.1002
12073W        W28334   1.596   7.354   1.113 -0.3293 -0.2526  0.1028
12074W        W28335   3.595  13.337  11.468  0.2704 -0.1066  0.0206
12075W        W28336   8.456  16.425  14.132  0.0954 -0.0639  0.1623
12076W        W28337  11.870   4.312   2.263 -0.0885  0.1608  0.1676
12077W        W28338   2.845   1.287  12.996  0.2169 -0.0904  0.1396
12078W        W28339  16.250   5.425   5.219  0.1604 -0.2597  0.1687
12079W        W28340   0.930  16.367   3.185 -0.0278  0.2286 -0.2203
12080W        W28341   3.739   7.237  10.940  0.3181  0.1285  0.4042
12081W        W28342  14.603  12.057   3.220 -0.0266  0.0388  0.3809
12082W        W28343   3.939  15.712   1.298 -0.0159 -0.2640  0.0853
12083W        W28344  10.986   7.082   3.343  0.2420 -0.1939  0.4510
12084W        W28345  18.245   2.831   0.519 -0.0984 -0.2752 -0.2791
12085W        W28346   2.941   4.456   3.871 -0.0151 -0.0464  0.0520
12086W        W28347  17.808  10.926  11.348 -0.2091  0.0405  0.0219
12087W        W28348   0.003   7.383  14.126 -0.1997  0.1270 -0.1568
12088W        W28349   3.120   6.428   1.671  0.2311  0.1886  0.2426
12089W        W28350  12.323   4.600  13.313  0.4141  0.0074  0.0649
12090W        W28351   1.609   7.097   3.485  0.4616 -0.2273 -0.0054
12091W        W28352  16.297   7.006   0.462  0.2401 -0.0586  0.0203
12092W        W28353  19.333   6.352   1.534  0.1062 -0.2437 -0.0067
12093W        W28354  14.246  15.217  11.341 -0.0223 -0.1805 -0.1582
12094W        W28355   7.457  18.528  13.414  0.3005  0.0302 -0.1336
12095W        W28356   2.889   0.982  13.622 -0.2548  0.3509  0.3020
12096W        W28357   7.056   3.726  12.070  0.0680 -0.1059 -0.0420
12097W        W28358   2.753  13.134  10.790  0.1506 -0.2192  0.2291
12098W        W28359  10.491  13.950   3.247  0.4465 -0.1452  0.3657
12099W        W28360   3.337   7.340   0.663  0.0074 -0.4383  0.0254
12100W        W28361  18.048   0.564  10.495 -0.2810 -0.2128 -0.0068
12101W        W28362  18.215  16.645   0.925  0.1922 -0.1614  0.3066
12102W        W28363   3.042  13.694  12.243  0.0492  0.1967 -0.0929
12103W        W28364  11.944  14.507  12.444 -0.1111 -0.0294 -0.1968
12104W        W28365   6.214  16.688  14.388  0.0381 -0.1827  0.1995
12105W        W28366  17.132  13.932   0.042  0.1864  0.0638 -0.0336
12106W        W28367  18.727   3.680  13.984  0.3424 -0.2918 -0.0756
12107W        W28368  11.767  10.767   1.294 -0.1503  0.1392 -0.0703
12108W        W28369   5.400  12.762  12.015  0.2732  0.0828  0.0798
12109W        W28370  15.804  10.828   3.849 -0.0324 -0.0369  0.1783
12110W        W28371  16.290  14.056   1.222 -0.0578  0.1250 -0.0714
12111W        W28372  17.015  11.169   4.923 -0.2796 -0.4099  0.2445
12112W        W28373   4.109   6.615  13.490  0.1117 -0.4392  0.2008
12113W        W28374  10.100   6.648   1.318  0.1595 -0.1445  0.0667
12114W        W28375  18.409   5.009   2.483  0.2650 -0.0761 -0.0341
12115W        W28376  17.531   3.564  11.962  0.2045  0.1636  0.1794
12116W        W28377   9.610   4.388  10.698 -0.0069  0.3876  0.2189
12117W        W28378  19.361  15.459  12.889 -0.2147 -0.2496  0.1441
12118W        W28379  17.005   3.523  13.898  0.3250 -0.0359  0.0375
12119W        W28380  12.615   1.895   0.236  0.1141 -0.3978  0.3503
12120W        W28381  10.762   7.229  14.557 -0.0117  0.0251  0.2791
12121W        W28382   0.224   6.176  13.167 -0.2905  0.2617 -0.1214
12122W        W28383   3.606   5.668  11.217 -0.1406 -0.1818 -0.2148
12123W        W28384  12.724  13.787   0.919  0.4231  0.0341 -0.2402
12124W        W28385   1.996  15.648  13.835 -0.1550 -0.0599 -0.2564
12125W        W28386   1.523   4.226  13.157  0.3033  0.0647 -0.1255
12126W        W28387  13.316  14.615  13.578  0.1381 -0.2437  0.0601
12127W        W28388  18.123  17.150  10.760  0.0921 -0.0202 -0.0587
12128W        W28389   0.993   1.648   3.203 -0.1594  0.1576  0.1340
12129W        W28390   4.986   4.738  12.258  0.0669 -0.1010  0.2233
12130W        W28391  11.580  16.610   5.658 -0.1109 -0.0326  0.0087
12131W        W28392  13.677  17.905   5.131  0.0624 -0.0695  0.1042
12132W        W28393   5.731  11.687  10.434  0.0933 -0.2918  0.0198
12133W        W28394  15.115   6.655  10.804 -0.2437 -0.0763 -0.2971
12134W        W28395   3.390   5.219   9.923  0.0001 -0.0735 -0.0114
12135W        W28396   2.590   7.661  11.319 -0.1667 -0.0490 -0.1632
12136W        W28397   8.529  17.614  14.116  0.0832 -0.2619 -0.0020
12137W        W28398  18.879   8.535   3.674  0.0919  0.2377  0.2806
12138W        W28399   4.356  12.631  11.983  0.1476  0.3456 -0.2125
12139W        W28400   7.481   0.800   1.619  0.3131 -0.1417  0.0040
12140W        W28401   7.533  14.370   3.561  0.3081  0.3863  0.0923
12141W        W28402   5.960  18.616  10.013  0.0856 -0.0097  0.1288
12142W        W28403  14.093   4.458   3.790  0.3256 -0.5518  0.0928
12143W        W28404  18.522   2.187  12.619  0.0253 -0.0072  0.0795
12144W        W28405  17.998  13.775   5.763  0.0793 -0.1443  0.4094
12145W        W28406  19.062   0.547  13.073 -0.0985  0.0764 -0.0404
12146W        W28407   5.456  17.676   0.141 -0.2830 -0.1988 -0.1347
12147W        W28408   2.993  13.836   1.067  0.2417 -0.1320  0.1026
12148W        W28409   9.857  14.608   3.018  0.0971  0.4749 -0.0605
12149W        W28410   2.742  14.690  13.358 -0.0022  0.0506 -0.0380
12150W        W28411   2.008  12.605  13.138  0.1019 -0.0566 -0.2599
12151W        W28412   6.092   1.553   1.318  0.2637 -0.0519 -0.0884
12152W        W28413   1.370  14.891   0.633 -0.3022  0.1066  0.2539
12153W        W28414  15.375  19.285   3.781 -0.1429 -0.3061 -0.1674
12154W        W28415  15.087  16.878   2.786 -0.0807 -0.1046 -0.1874
12155W        W28416   5.932  13.011   4.371  0.2597 -0.0586 -0.2937
12156W        W28417  12.045  18.234  11.791  0.0063 -0.2916  0.0509
12157W        W28418  13.761  16.668   4.401  0.0742  0.1048 -0.4201
12158W        W28419   9.738   6.996  13.161 -0.1930  0.4767 -0.1769
12159W        W28420   2.883   9.154   3.726 -0.2459 -0.0958 -0.0139
12160W        W28421  16.277  15.245  12.017  0.0198  0.0067  0.2112
12161W        W28422   5.119  14.828   3.275 -0.0690  0.1674 -0.0377
12162W        W28423   8.243  11.902  13.521  0.1051  0.1951  0.0611
12163W        W28424   8.287   8.257   9.751  0.2076 -0.1260  0.2292
12164W        W28425   9.148  13.304  13.748  0.1103 -0.3972  0.2473
12165W        W28426   4.665  17.681  10.426  0.0115  0.2914 -0.0255
12166W        W28427  15.572  14.221   0.318 -0.3824  0.0728 -0.0483
12167W        W28428  11.607  17.203  11.113  0.0580  0.5569 -0.0535
12168W        W28429   2.454   0.601  10.394 -0.0108 -0.0579  0.1285
12169W        W28430   6.371  10.210  11.633 -0.0744 -0.0806  0.0780
12170W        W28431   9.870  17.142  11.358  0.0269  0.2495 -0.2561
12171W        W28432   2.581  19.244  10.491 -0.1607  0.3447  0.0446
12172W        W28433  14.042  10.282  13.648 -0.1077 -0.0553 -0.1946
12173W        W28434  15.136  13.044   1.196 -0.3608  0.2478 -0.1435
12174W        W28435   9.473  17.030  13.151  0.2760 -0.1112 -0.2219
12175W        W28436   2.332   6.884   0.542  0.4133  0.4363  0.0158
12176W        W28437   6.734  14.726  14.569 -0.1790 -0.4058 -0.4020
12177W        W28438   5.501  15.662  12.933  0.0764  0.0174 -0.0727
12178W        W28439   0.952  17.281  14.706 -0.0824  0.4383 -0.2040
12179W        W28440  17.738  15.535   1.440  0.0650  0.2415  0.1072
12180W        W28441  12.698   6.668  13.873  0.0925 -0.0657  0.0979
12181W        W28442  10.169   0.657  11.555 -0.1680 -0.1751  0.1834
12182W        W28443  16.784  17.129  11.617  0.1227  0.1120 -0.0256
12183W        W28444   9.977  14.566   3.514  0.0953 -0.2902  0.0400
12184W        W28445  18.893  18.480   5.120  0.2372  0.1501 -0.2396
12185W        W28446  16.519  19.187   4.952 -0.1980 -0.1181 -0.1583
12186W        W28447   5.526   1.108   2.889 -0.1145  0.0209  0.1865
12187W        W28448   5.158   7.868  13.285 -0.1945 -0.0282 -0.1542
12188W        W28449   4.452  18.457  14.108 -0.1190 -0.1881 -0.2496
12189W        W28450  13.710  11.511   3.925 -0.1258 -0.4387 -0.1308
12190W        W28451   4.244  13.369   2.393  0.0879  0.1142  0.2517
12191W        W28452   1.798   9.603  13.896  0.1146  0.2388  0.0284
12192W        W28453  13.799  10.380  14.118 -0.1650 -0.0665 -0.1013
12193W        W28454   7.745  14.535  11.231  0.1210 -0.0859  0.2494
12194W        W28455   8.852  10.792   5.328  0.2519  0.1887 -0.3404
12195W        W28456  13.969  15.844   0.475 -0.1838  0.0760 -0.0804
12196W        W28457  10.724  12.630   1.567 -0.0297 -0.2065  0.1603
12197W        W28458   5.993  13.871  10.531 -0.0557  0.2312 -0.3350
12198W        W28459   1.826   2.217   4.515 -0.5430 -0.1044  0.0588
12199W        W28460   8.126   7.792   2.550  0.2994  0.0386 -0.1980
12200W        W28461   4.911   7.926   0.908  0.1496 -0.0874  0.1864
12201W        W28462   6.421  12.849  10.605 -0.0582 -0.0094  0.4245
12202W        W28463   2.922   8.828  13.330 -0.2463 -0.2132 -0.2888
12203W        W28464   2.057   0.851   1.253  0.0399 -0.1124 -0.2326
12204W        W28465  16.735   9.614  13.977 -0.3543 -0.1419 -0.1700
12205W        W28466   4.649   7.983   1.426 -0.3357  0.2123 -0.0005
12206W        W28467  11.305  13.128   3.993 -0.3025  0.2444 -0.2783
12207W        W28468   2.625   7.249  11.880 -0.1488  0.0179  0.1076
12208W        W28469  13.143   8.390  13.801 -0.0956  0.1054 -0.0031
12209W        W28470   4.757   6.265  11.687 -0.1143  0.3754  0.3759
12210W        W28471  19.231  11.108   5.273  0.0291  0.0810 -0.1762
12211W        W28472  19.436  14.805   3.334 -0.1254 -0.0285 -0.2023
12212W        W28473  11.537   8.130  14.481 -0.1636  0.0796  0.1123
12213W        W28474   3.542   0.672   4.156  0.1795  0.0906  0.2336
12214W        W28475  13.951   9.785  13.452  0.1259 -0.4780 -0.1888
12215W        W28476   9.255   0.396   4.913 -0.2637  0.3517 -0.0736
12216W        W28477  15.327   5.734  13.910 -0.2760 -0.0807 -0.2828
12217W        W28478  17.086  10.203   3.052  0.2210 -0.1452  0.2188
12218W        W28479  16.427   1.397  12.758  0.1327 -0.1550 -0.1280
12219W        W28480   5.020   5.534   0.808  0.2019 -0.2935  0.0142
12220W        W28481   6.436   8.244   1.733 -0.1007  0.0817  0.0899
12221W        W28482  13.499  18.999   2.402 -0.0578  0.1336  0.1501
12222W        W28483   6.616  15.494  13.344  0.0070 -0.0936 -0.0874
12223W        W28484  18.939  10.602   0.751 -0.0914  0.3899  0.1286
12224W        W28485  11.841  11.052   0.871  0.1812 -0.2308  0.0633
12225W        W28486   8.682  11.736   0.106 -0.1277  0.0099  0.0344
12226W        W28487  15.802   0.309   0.104  0.0457 -0.1107  0.1243
12227W        W28488   3.139  16.657   2.029 -0.3038 -0.3517 -0.1721
12228W        W28489   3.640   0.446  14.418  0.1955 -0.2996 -0.3710
12229W        W28490   0.259  13.209   0.114  0.3406 -0.1487 -0.2058
12230W        W28491   5.790  10.121   0.381 -0.1005 -0.1921  0.1123
12231W        W28492  17.621   4.817  12.065 -0.0627 -0.2435  0.0451
12232W        W28493  10.413   6.518   4.488 -0.0774  0.2357  0.2016
12233W        W28494   0.220  15.258   2.719 -0.1445 -0.0599 -0.0694
12234W        W28495  12.896  13.554   4.410 -0.1288  0.1031  0.0359
12235W        W28496   8.651  17.054   1.353 -0.0188 -0.1641 -0.0788
12236W        W28497  10.817   0.648  10.596  0.2349 -0.1883 -0.2674
12237W        W28498   0.964   1.589  13.758  0.1057 -0.2588 -0.0352
12238W        W28499  12.996   1.778   3.555 -0.1683  0.0722 -0.4284
12239W        W28500  17.539  10.569  14.454 -0.2149  0.1409  0.3741
12240W        W28501  10.798   1.299  12.574  0.3618  0.1712 -0.2036
12241W        W28502   5.699   5.082   2.938  0.0018 -0.3715 -0.2458
12242W        W28503   7.442  15.039   1.506 -0.0591 -0.2080  0.1270
12243W        W28504  13.768   8.620   0.607  0.0787  0.0641 -0.0228
12244W        W28505   6.722   2.949  12.312  0.1392 -0.7062 -0.0166
12245W        W28506   4.667  18.271  12.883  0.0232  0.1249  0.0612
12246W        W28507  11.424  11.720   3.887 -0.0307 -0.1517 -0.1996
12247W        W28508  15.265   5.875  13.014 -0.1169 -0.1413 -0.0731
12248W        W28509  14.364  16.301   2.119  0.1615 -0.0068  0.0830
12249W        W28510   3.745  16.698   3.187 -0.0189 -0.1005  0.4343
12250W        W28511  16.256  15.501   3.313  0.3698  0.0363  0.1231
12251W        W28512  10.243   7.374  10.817  0.2265  0.1231  0.3280
12252W        W28513   0.260  12.694   0.232 -0.1439  0.1208 -0.0690
12253W        W28514  11.332  16.095   9.878  0.2172 -0.1301  0.4034
12254W        W28515   9.971  10.905  13.856 -0.4240  0.2728  0.0579
12255W        W28516  14.632  13.436   1.926 -0.2215  0.0281  0.2574
12256W        W28517  15.188   2.706   2.352  0.3853  0.0741 -0.3715
12257W        W28518   4.296  13.392  13.815  0.1768 -0.2576  0.0042
12258W        W28519  15.918   3.031  14.738  0.4850  0.0177  0.1084
12259W        W28520   9.497  13.939   0.972 -0.0077  0.0111 -0.0028
12260W        W28521  10.501  14.505  11.708  0.0041 -0.1289 -0.0154
12261W        W28522  15.102   6.341   5.404 -0.2128 -0.0734 -0.3146
12262W        W28523   1.767  17.375   3.774 -0.0964 -0.2406 -0.3044
12263W        W28524  12.691   9.843   1.678 -0.1888  0.2073  0.1029
12264W        W28525  19.087   0.811  14.705  0.3062  0.3437 -0.2148
12265W        W28526  15.238  17.096   9.891 -0.2330  0.0150 -0.1707
12266W        W28527   7.961   5.402   3.435 -0.0452 -0.1049  0.2555
12267W        W28528  16.576  14.486   4.939 -0.2070 -0.3879 -0.3234
12268W        W28529   3.847   7.401  11.666  0.0272  0.3326  0.0283
12269W        W28530  10.257  12.801   1.724 -0.2217 -0.0829  0.1632
12270W        W28531  19.296  16.191  12.967 -0.2832 -0.0435 -0.0086
12271W        W28532   4.269  13.912   0.816  0.0989 -0.0884  0.0031
12272W        W28533  12.394  17.652  13.838 -0.1260  0.1162  0.0169
12273W        W28534  18.830  13.527   1.817  0.5395 -0.1457  0.0128
12274W        W28535  14.883  13.762  11.989  0.3367  0.0078  0.0690
12275W        W28536   6.562   0.028   3.883  0.1307  0.1634  0.0204
12276W        W28537   2.048   2.420  12.712  0.1243  0.2508 -0.2910
12277W        W28538  18.613   7.839  14.799  0.0689 -0.0093  0.0212
12278W        W28539   7.277  13.560   5.421  0.0469  0.0100  0.1902
12279W        W28540  11.019  12.536   0.175 -0.0203 -0.0778 -0.0789
12280W        W28541   5.868  11.368   9.958 -0.2862  0.1679 -0.0325
12281W        W28542  10.571  11.244   0.474 -0.0007 -0.1606  0.0091
12282W        W28543  19.466   4.113  11.474  0.0138 -0.1439  0.0188
12283W        W28544  13.238  14.202  11.372  0.0132  0.0029 -0.0567
12284W        W28545  15.214   0.902  14.511  0.0497 -0.2029  0.0055
12285W        W28546   9.747  10.313  13.951 -0.3108 -0.2477 -0.3626
12286W        W28547   2.520  17.309  10.819  0.1372  0.0730 -0.0332
12287W        W28548   5.337  11.601   3.960 -0.0159 -0.1410 -0.1716
12288W        W28549  14.067   8.900  11.885  0.1860 -0.1402  0.0941
12289W        W28550   8.277   1.089  11.350 -0.1377 -0.1671  0.4082
12290W        W28551   7.397   0.362  13.983  0.2085  0.3594  0.1931
12291W        W28552  10.791   2.757   2.899 -0.2921  0.0638 -0.4749
12292W        W28553   8.618   1.548   3.874  0.0499 -0.0246 -0.2012
12293W        W28554   1.629   4.429   2.035  0.0665 -0.3681  0.0623
12294W        W28555   2.625   4.299   3.534 -0.1591  0.2679 -0.1144
12295W        W28556   6.869   4.836   2.664 -0.2412 -0.0890 -0.0023
12296W        W28557  19.148  13.858   2.534 -0.0886  0.1169 -0.0992
12297W        W28558  19.263  14.762   2.178 -0.0137 -0.3644 -0.3885
12298W        W28559  15.457  12.525  12.344  0.0416  0.0521  0.1266
12299W        W28560  11.131   1.005   2.806 -0.3119  0.1658 -0.0965
12300W        W28561   4.196   4.143  12.320 -0.2387  0.0815 -0.0180
12301W        W28562  13.406   4.243   0.058 -0.2112  0.6701  0.2785
12302W        W28563  17.794  17.857   3.275  0.0642 -0.1960  0.2094
12303W        W28564   8.057   7.146  11.530 -0.1250  0.1870 -0.0404
12304W        W28565   8.913   5.687   9.585 -0.2071 -0.0608 -0.1199
12305W        W28566   8.916  17.736   4.229  0.1831 -0.2174 -0.0676
12306W        W28567  17.171   4.582   1.709  0.0984 -0.0070  0.0699
12307W        W28568   3.304  19.124  10.073 -0.0520 -0.0622  0.0130
12308W        W28569  11.104  11.609   2.188 -0.1202  0.2945 -0.0724
12309W        W28570   9.399  19.077   0.812 -0.3917 -0.0705  0.2081
12310W        W28571   8.656  16.094  11.177  0.3333 -0.2132  0.3906
12311W        W28572  11.567  14.930  12.599 -0.1451  0.1904  0.4097
12312W        W28573  17.801   4.457   2.205  0.0628  0.0871  0.0961
12313W        W28574   9.640  18.077   3.172 -0.0006  0.0475  0.2406
12314W        W28575  16.915  13.510   3.794 -0.1537 -0.0280  0.3384
12315W        W28576  12.489  12.749   1.525 -0.0778  0.2491  0.0995
12316W        W28577   4.748  16.864  10.569 -0.0498 -0.2225 -0.0557
12317W        W28578   2.153  18.688   0.697  0.0925 -0.2998  0.1678
12318W        W28579   4.187  12.805   5.764 -0.2432  0.2831  0.2868
12319W        W28580   1.546   3.042  11.124 -0.0047 -0.2967 -0.0463
12320W        W28581  11.284   1.013  12.333 -0.0347  0.1281  0.0984
12321W        W28582  18.304   3.197  11.163  0.2606 -0.0977  0.1748
12322W        W28583   1.340  12.760   1.388 -0.0175  0.1343 -0.0910
12323W        W28584   3.218   5.717   4.516 -0.3506 -0.0411  0.2802
12324W        W28585  14.390   2.281   2.713  0.0673 -0.0379  0.1264
12325W        W28586   2.278   1.485   5.164  0.0588  0.4067 -0.0146
12326W        W28587  14.098  12.647  11.621  0.2666  0.1851 -0.2088
12327W        W28588  12.482  18.676   0.903  0.1791 -0.0437 -0.1752
12328W        W28589  16.234   4.487  14.597  0.0266 -0.0302 -0.0581
12329W        W28590   8.390   3.493   1.092  0.0112 -0.0479 -0.4452
12330W        W28591  16.941  16.159  12.093 -0.1337  0.0174 -0.2286
12331W        W28592  18.721  10.355   0.399  0.0971 -0.1922 -0.0449
12332W        W28593  16.812  17.938  11.372  0.1633 -0.0514  0.1310
12333W        W28594   5.025   8.330  13.125  0.1426 -0.1900 -0.0807
12334W        W28595   6.593  11.979  10.869  0.0739 -0.0959 -0.4050
12335W        W28596   9.635  14.580  13.287  0.1858  0.3302 -0.2961
12336W        W28597  12.706   0.288  13.333  0.0596  0.2415  0.4512
12337W        W28598   1.245  11.233  10.969  0.0921 -0.0099  0.1765
12338W        W28599   1.394  17.543   3.447  0.0288  0.1064 -0.1039
12339W        W28600   8.258   9.161  10.290  0.0674  0.2304 -0.1200
12340W        W28601   1.413   6.740   3.115 -0.0867  0.0359  0.4792
12341W        W28602   5.954  16.524  11.708 -0.0440 -0.2668 -0.1302
12342W        W28603   5.433  15.351  14.330 -0.1533 -0.1848  0.2155
12343W        W28604  10.399   5.907   3.443 -0.2500 -0.3797  0.0356
12344W        W28605  14.479  17.666  13.489  0.0795 -0.0978  0.1732
12345W        W28606  12.569  13.940   3.896  0.1720  0.0958 -0.5770
12346W        W28607   3.050   9.809   2.102  0.0588  0.0220 -0.1887
12347W        W28608   1.699   4.389   9.782 -0.0052 -0.0898  0.1692
12348W        W28609   0.756  14.642   2.993  0.2289 -0.2674 -0.4266
12349W        W28610  10.694   3.387  10.232  0.2237  0.2926  0.0500
12350W        W28611   8.834  18.242  13.569 -0.1121 -0.1456  0.0030
12351W        W28612   2.412   5.156   4.172 -0.3648  0.3667 -0.3172
12352W        W28613  15.454   7.943   2.990  0.0506 -0.0349  0.0871
12353W        W28614  10.869  10.198   3.064  0.1213 -0.2463  0.0214
12354W        W28615  18.634   7.298   4.323 -0.0607 -0.1520  0.1365
12355W        W28616  16.697   5.128  12.018  0.2472  0.0292  0.0199
12356W        W28617  10.316   6.992   3.842 -0.1821  0.1413  0.3769
12357W        W28618   4.344   7.994   3.405  0.1825  0.1785  0.0425
12358W        W28619  14.995  13.622   1.571 -0.1667  0.0533  0.0093
12359W        W28620   4.915   6.449  13.668 -0.0011 -0.0998  0.1518
12360W        W28621   8.470   9.971  14.275 -0.0864 -0.0404 -0.3382
12361W        W28622   5.069  13.706   0.939 -0.1499  0.3028 -0.3460
12362W        W28623  14.350  19.156   1.962 -0.4338  0.3062  0.1112
12363W        W28624  13.652   7.639  13.385  0.2489  0.2462 -0.2665
12364W        W28625   6.183  10.336  12.057 -0.0786  0.0055 -0.2284
12365W        W28626   0.881   1.207  14.596 -0.2319  0.1094 -0.0342
12366W        W28627  15.070   7.805   3.385 -0.0446  0.0390  0.0508
12367W        W28628  14.929   2.439  13.667 -0.0824 -0.3388  0.4390
12368W        W28629   0.918  16.253  14.280 -0.0968 -0.1478 -0.4651
12369W        W28630  18.573  18.571  14.320 -0.1463 -0.1915  0.0434
12370W        W28631  10.372   6.387  12.937  0.0599  0.1038 -0.1230
12371W        W28632   1.972   6.985   1.943  0.0764  0.0701  0.0959
12372W        W28633  12.364  19.444   3.390 -0.1106  0.0003 -0.0111
12373W        W28634  17.013  15.143   2.825 -0.4071 -0.2302 -0.0645
12374W        W28635   3.142  12.014  11.515 -0.1309  0.0342  0.1272
12375W        W28636  12.233   8.011  14.760  0.2968  0.1986  0.0046
12376W        W28637  13.020  13.219   5.616  0.0948 -0.2724 -0.1472
12377W        W28638   9.266  14.311   4.212  0.2776  0.2178  0.0846
12378W        W28639   5.348   4.846   2.647  0.3086  0.0316  0.2880
12379W        W28640  13.032  11.346   2.908 -0.0097 -0.1951 -0.1763
12380W        W28641   2.232  14.124   2.605  0.0422 -0.1041 -0.4415
12381W        W28642   6.591   5.199   2.362 -0.2744 -0.1923  0.0078
12382W        W28643  15.632  14.886   2.130  0.1641 -0.0155 -0.2751
12383W        W28644   3.780   8.922   4.230 -0.5082  0.0127 -0.0930
12384W        W28645   5.170   4.797   9.795  0.0639  0.1470  0.3266
12385W        W28646  18.481   4.870   1.467 -0.0907  0.2425  0.3312
12386W        W28647   1.848   8.312   4.114  0.0501 -0.0621 -0.2538
12387W        W28648   7.480   3.787  10.541 -0.3005  0.1100 -0.0893
12388W        W28649  19.417   0.210  12.993  0.0680  0.2665 -0.0523
12389W        W28650   1.195   1.627   2.053  0.1639  0.0202 -0.1121
12390W        W28651   5.070   7.394  13.190 -0.1335 -0.0309  0.0263
12391W        W28652  17.265   0.997  14.701 -0.3464 -0.0257  0.1532
12392W        W28653  14.711  18.326   2.049 -0.3949  0.2070 -0.0940
12393W        W28654   4.490  13.338   4.625 -0.0625  0.3293 -0.0895
12394W        W28655   3.554   4.172   3.364 -0.2478 -0.0703 -0.0283
12395W        W28656  16.082   0.603   0.506  0.2919 -0.2330  0.0175
12396W        W28657  11.849   7.159   9.272  0.2540 -0.0588  0.0838
12397W        W28658   2.153  16.469  12.321 -0.0338 -0.2098  0.2220
12398W        W28659   0.539  15.982   3.979 -0.1487 -0.2893  0.1338
12399W        W28660  14.348  17.940  11.630  0.0877  0.1634 -0.0461
12400W        W28661  18.411   2.514  13.085  0.0095 -0.2019  0.0781
12401W        W28662  18.972   6.753   3.057  0.1134  0.2332  0.0266
12402W        W28663   7.942  16.437   9.707 -0.1298 -0.1482 -0.0532
12403W        W28664  11.435  15.536  12.281  0.2190 -0.0068  0.1073
12404W        W28665   9.742   0.963   0.503 -0.2276 -0.6668  0.0774
12405W        W28666  11.434   5.432   0.092  0.0003 -0.3420  0.2437
12406W        W28667   0.605   0.365   0.775  0.0508  0.1121 -0.0085
12407W        W28668  10.526   5.365  10.157 -0.0626 -0.2237 -0.1994
12408W        W28669   8.144   2.350  11.351  0.0228  0.1197  0.0467
12409W        W28670   8.779   9.516   3.190  0.0665 -0.3334 -0.5271
12410W        W28671   9.659  17.734  10.825  0.0396  0.3486  0.5243
12411W        W28672   9.336  14.632   1.387 -0.0212  0.1140 -0.4775
12412W        W28673  17.046  13.589   4.839  0.0706  0.2664 -0.1626
12413W        W28674  10.238   2.877  11.964  0.1786  0.0632 -0.2428
12414W        W28675  15.536  13.958   2.547  0.0234  0.2779  0.3798
12415W        W28676   9.423   1.763   2.739 -0.0168  0.0307 -0.1691
12416W        W28677   9.445  19.106  10.168 -0.3339 -0.0773 -0.0550
12417W        W28678   7.422  18.233   3.177  0.0664  0.0210 -0.4891
12418W        W28679   1.894  15.394   2.026  0.0869  0.2322 -0.0128
12419W        W28680  15.577   1.155   3.800 -0.0663 -0.0521  0.0235
12420W        W28681   3.971  16.219   1.880 -0.2348  0.3224 -0.0583
12421W        W28682   0.850   8.406   2.614  0.0909  0.0041  0.2987
12422W        W28683  16.722  10.391   3.712 -0.1361  0.2237  0.0440
12423W        W28684  11.258  17.751   4.090 -0.0811  0.0564  0.1792
12424W        W28685   2.193  17.724  13.835  0.2651 -0.0448  0.2651
12425W        W28686   4.194  16.955  12.248  0.2738  0.1120 -0.2878
12426W        W28687  18.857  15.833   3.641 -0.0687  0.3119 -0.0189
12427W        W28688  10.397  10.745   4.267  0.1205 -0.0571 -0.1882
12428W        W28689   9.078   9.884   2.763 -0.0668 -0.0549 -0.3837
12429W        W28690   3.311   5.006   1.257  0.2393 -0.2949  0.1263
12430W        W28691   5.211   6.148  14.231  0.0474 -0.0907  0.1153
12431W        W28692   2.908   4.129   9.987 -0.1816 -0.4156 -0.0483
12432W        W28693   7.369  18.018   4.481 -0.0395  0.0110 -0.0669
12433W        W28694  13.673  18.843   0.276  0.0919  0.2554 -0.0200
12434W        W28695   6.493   3.350   0.945 -0.5592 -0.0021 -0.5302
12435W        W28696  12.797   9.402  12.963  0.0040 -0.1205  0.2437
12436W        W28697  15.920   7.578   0.863 -0.0976  0.1438 -0.0130
12437W        W28698   7.673   0.350  14.779 -0.1109  0.0002  0.0396
12438W        W28699  19.326  17.304   1.008 -0.1111 -0.1316 -0.1347
12439W        W28700   4.524   5.073  12.595 -0.0236  0.0959  0.0325
12440W        W28701  14.238  14.456   3.292  0.0244  0.1156 -0.1924
12441W        W28702  15.066   5.407  12.635 -0.2081  0.1516  0.0502
12442W        W28703  10.124  13.726  13.701 -0.6205  0.0323  0.3296
12443W        W28704   9.926  14.126  12.132  0.2020  0.2758 -0.0292
12444W        W28705   2.937   4.634  14.771  0.0564  0.0884  0.0817
12445W        W28706   1.367  15.013   1.386  0.2654 -0.0343 -0.2369
12446W        W28707  16.497  18.842  14.521 -0.4022 -0.1947  0.0979
12447W        W28708  15.242   8.445   3.779  0.0778 -0.3439 -0.0527
12448W        W28709  15.962  16.832   4.496 -0.0374 -0.1397  0.0571
12449W        W28710   4.389  17.975  12.022  0.1788 -0.2672  0.1384
12450W        W28711  15.498   1.472   3.391  0.1537 -0.0204 -0.2346
12451W        W28712  13.843   7.263  12.412  0.1573  0.0857  0.1929
12452W        W28713   2.168   8.044   1.382  0.1624 -0.0874  0.1371
12453W        W28714  12.687  17.713  13.331 -0.2413 -0.3539  0.1241
12454W        W28715   3.098   8.714   3.372 -0.0927 -0.0016  0.1145
12455W        W28716  10.967  15.379   1.692 -0.0777 -0.2122 -0.0038
12456W        W28717   1.477  18.374  14.803 -0.1114  0.1651  0.1182
12457W        W28718  17.203  11.122   0.688  0.1275 -0.3308 -0.0749
12458W        W28719  16.943  14.933   2.323 -0.1909  0.0243  0.0474
12459W        W28720   3.120  19.160  12.482 -0.3933 -0.1485  0.1283
12460W        W28721   7.436   1.559  11.180 -0.0261 -0.0516 -0.1429
12461W        W28722   4.727   4.301  12.346  0.1486 -0.1397  0.0151
12462W        W28723   0.718  14.430   1.023  0.1653 -0.1999  0.0549
12463W        W28724  13.211  16.040  14.185  0.1135 -0.0698 -0.2427
12464W        W28725  17.899   1.345  14.148 -0.2062 -0.0705 -0.0346
12465W        W28726   6.012  16.712   1.682  0.2444 -0.0418  0.0451
12466W        W28727   9.785   0.956   5.564  0.1272  0.0232 -0.0423
12467W        W28728  14.230   4.141   1.338 -0.0101 -0.1208 -0.3409
12468W        W28729   4.799   1.753  11.254 -0.1211 -0.3172 -0.1564
12469W        W28730   3.512   5.161   9.254  0.1360 -0.2186 -0.3284
12470W        W28731   8.335  12.952   1.750  0.2407 -0.1732 -0.1469
12471W        W28732   0.949   1.044   4.147  0.1138 -0.2694  0.3617
12472W        W28733   0.082  19.197  12.830 -0.0428  0.0446 -0.2366
12473W        W28734   0.428  10.190  10.738  0.2855  0.0488 -0.1086
12474W        W28735   0.196   7.413   4.345  0.0205  0.1593 -0.0966
12475W        W28736   7.179  10.832   3.091  0.0524  0.1438 -0.1540
12476W        W28737   7.151   3.991  11.663  0.4277  0.0279  0.4702
12477W        W28738  17.723  10.525   4.176  0.2557 -0.0486 -0.0855
12478W        W28739  16.910  17.054   5.458 -0.1810  0.0177 -0.0036
12479W        W28740   2.147  14.077   1.268  0.1615 -0.0489 -0.1182
12480W        W28741  10.381   6.873  10.762  0.3095  0.0936  0.0124
12481W        W28742  16.652   5.423  12.435 -0.1749  0.0624  0.1781
12482W        W28743   2.683  11.902  12.316 -0.2027  0.3531  0.0477
12483W        W28744  12.537   6.264   9.814  0.1439  0.0858  0.1365
12484W        W28745  13.563   9.426  14.755  0.0139  0.1334  0.0220
12485W        W28746   8.634   0.272   1.623  0.3592 -0.5374  0.2276
12486W        W28747  17.564   3.848   0.663 -0.2046 -0.0202 -0.1207
12487W        W28748  13.490   2.554   5.102 -0.4137 -0.1392 -0.2508
12488W        W28749  14.788  19.029  11.327 -0.2256  0.2142  0.0593
12489W        W28750   1.448  12.255   4.516  0.1376  0.1769  0.0579
12490W        W28751   2.798  14.862   2.361 -0.2184  0.0134  0.1969
12491W        W28752   3.109  12.680   1.983 -0.0380 -0.0052  0.1737
12492W        W28753   0.313  13.475   1.395  0.1647  0.0969  0.2701
12493W        W28754   6.781   0.491  12.077  0.3592  0.1231  0.2271
12494W        W28755   9.749   3.849  13.587 -0.0007 -0.1933 -0.2182
12495W        W28756   5.445   2.245   3.020  0.0318 -0.2106 -0.2638
12496W        W28757   7.599   8.067   3.834  0.0075  0.1861  0.1614
12497W        W28758   9.409   3.973  14.020 -0.1588  0.1336  0.0507
12498W        W28759  15.492   6.567   4.526 -0.1054  0.1601  0.1244
12499W        W28760   8.439  16.043  12.567 -0.0955 -0.1017 -0.2881
12500W        W28761  14.885   0.482  12.379  0.0247  0.0264 -0.4555
12501W        W28762  17.985  11.270   9.709 -0.1033 -0.1769  0.2290
12502W        W28763  13.834  12.332   0.445  0.2849  0.0551  0.0849
12503W        W28764  10.897   2.760   1.351 -0.3312  0.1669 -0.0141
12504W        W28765  15.207   1.323  12.498  0.1551 -0.2275  0.0036
12505W        W28766  16.889   8.305  14.549  0.1107 -0.1309 -0.0085
12506W        W28767  12.584  16.570  14.524 -0.1203 -0.0099 -0.0992
12507W        W28768   0.713  10.282  14.318  0.1209  0.0156  0.1999
12508W        W28769   0.576  11.631  11.615  0.0147 -0.2033  0.0510
12509W        W28770   4.262  15.540  12.060 -0.3191 -0.1672  0.0736
12510W        W28771   1.547   5.279   1.914  0.0522 -0.1453  0.2564
12511W        W28772  12.123  17.987   2.132 -0.1208 -0.0994  0.0130
12512W        W28773  14.155  13.373   2.087 -0.0905  0.2224 -0.2683
12513W        W28774  10.385   8.066  14.290 -0.0423 -0.0404 -0.1706
12514W        W28775   2.070  18.223   4.678 -0.1016  0.0758  0.1583
12515W        W28776  16.501  11.526  13.089 -0.1634  0.2933  0.2228
12516W        W28777  15.311   9.504   2.755 -0.0384 -0.1833  0.3120
12517W        W28778  18.894   1.918   0.651 -0.3202 -0.0319  0.0556
12518W        W28779  13.950   2.636  10.890 -0.1952  0.1435 -0.0417
12519W        W28780  15.207   9.266   5.787  0.3780 -0.5043  0.1316
12520W        W28781   2.864  18.004   2.538 -0.2384  0.1122  0.0715
12521W        W28782  11.104   2.060  10.941  0.0889  0.3726  0.0004
12522W        W28783   2.304   8.674   2.322 -0.5107  0.0058 -0.0708
12523W        W28784   8.987  12.961   5.216  0.0184  0.0141  0.0139
12524W        W28785   8.907   9.941   1.183 -0.0203 -0.0602 -0.0436
12525W        W28786   5.983  17.115   1.309 -0.0641 -0.0814 -0.1937
12526W        W28787   5.467   8.850  13.372  0.1159 -0.0092  0.1389
12527W        W28788  18.705   4.970  10.788  0.3507  0.0091  0.0773
12528W        W28789  13.041   3.928   1.719 -0.0903 -0.3116 -0.0088
12529W        W28790  17.134   6.343   3.085 -0.0256 -0.1550  0.1789
12530W        W28791   7.318  16.671  10.577  0.1286 -0.1369 -0.2714
12531W        W28792  14.039   8.855   3.761 -0.0456  0.1540 -0.0044
12532W        W28793  19.243   3.565   4.041  0.2155  0.0575  0.3410
12533W        W28794   3.006  16.756  12.983 -0.0762 -0.3069 -0.2891
12534W        W28795  14.822   3.218  10.206  0.0129  0.2342  0.0957
12535W        W28796   7.821  12.193   9.590 -0.1996  0.0150  0.0928
12536W        W28797   9.482  13.116   2.925  0.1408 -0.0179  0.0220
12537W        W28798   6.677  17.669  12.292  0.1876 -0.1629  0.2024
12538W        W28799   0.085   1.277  11.048 -0.0736 -0.0836  0.0063
12539W        W28800   2.269  16.665  11.367 -0.1211  0.1768  0.0220
12540W        W28801  12.627   8.183   1.697 -0.0273 -0.3186 -0.2924
12541W        W28802  15.456  14.751  11.322  0.2099 -0.1245  0.0958
12542W        W28803  18.830  19.466  13.634  0.2020  0.2042  0.0450
12543W        W28804  16.942  15.889  10.812  0.1208 -0.0034 -0.0914
12544W        W28805   8.748  15.526   1.349  0.0007  0.0619  0.1314
12545W        W28806  19.095  14.351   5.349 -0.2794 -0.1189 -0.0853
12546W        W28807   3.269  13.304  14.228  0.0455  0.1167 -0.0142
12547W        W28808   8.059   1.884   0.239  0.2178  0.0840 -0.2747
12548W        W28809  16.517   8.592  13.807  0.0814 -0.1714  0.1127
12549W        W28810   9.765   2.942  12.188  0.1584 -0.0522  0.1004
12550W        W28811   2.870   6.127  10.875 -0.2567 -0.1973  0.0697
12551W        W28812   4.624   5.710   2.065 -0.1076 -0.2511  0.2368
12552W        W28813  16.940   7.781   3.113 -0.1427  0.2375  0.1484
12553W        W28814  13.844  13.521   2.497 -0.0054  0.2142 -0.0872
12554W        W28815  11.335   4.751   2.903  0.0897 -0.0930  0.0478
12555W        W28816  10.335  15.965  14.163 -0.1719 -0.0958 -0.0752
12556W        W28817   5.975   3.294   0.502 -0.1447 -0.0431  0.2073
12557W        W28818   5.781   9.763  10.455 -0.0921 -0.0353  0.1635
12558W        W28819  19.487   6.795   9.853 -0.4591  0.0830  0.0414
12559W        W28820   7.275  17.551   1.333 -0.1081  0.0849  0.0783
12560W        W28821  19.338   5.566  12.609 -0.1508  0.1052  0.0639
12561W        W28822   4.497   8.839  10.193  0.2973 -0.1397  0.1683
12562W        W28823  14.092   5.133  14.184  0.4092  0.1385 -0.1784
12563W        W28824  10.385  18.049   0.488 -0.1326  0.4870 -0.1408
12564W        W28825   4.439   5.017  12.097 -0.0970  0.0718  0.0494
12565W        W28826   5.968   4.740  10.408  0.2901  0.0843  0.0896
12566W        W28827  17.424   0.915  14.179  0.2838  0.0978 -0.5615
12567W        W28828   0.677  15.136   5.054  0.0932 -0.0598 -0.1736
12568W        W28829   8.408  17.705   0.384 -0.2034  0.1570 -0.0075
12569W        W28830  10.370  15.753  14.628 -0.0168  0.3378 -0.1110
12570W        W28831  15.459  15.227  12.444  0.1202 -0.1371 -0.0421
12571W        W28832   3.151   1.997  10.560  0.0533 -0.3056  0.1476
12572W        W28833   1.583  15.167   0.977 -0.0915  0.2436  0.1045
12573W        W28834  12.647  11.311  11.515 -0.1730  0.1421 -0.1483
12574W        W28835  17.806  14.722   4.231  0.2209  0.1616  0.3183
12575W        W28836  15.903   4.251   4.646 -0.0291 -0.2252 -0.3216
12576W        W28837  17.650  16.250  14.369 -0.2272  0.0727  0.1791
12577W        W28838   9.207  11.410   0.335  0.1031 -0.2026 -0.2418
12578W        W28839   9.520  17.684   0.127  0.1956  0.1836  0.0388
12579W        W28840  12.803   7.628   1.832  0.1181 -0.1318  0.0947
12580W        W28841  14.145   8.868   5.657 -0.2244 -0.2399 -0.1440
12581W        W28842   5.662   7.631   3.662  0.0602 -0.0683 -0.0221
12582W        W28843   8.800   8.650  12.215 -0.0188  0.0795 -0.3703
12583W        W28844  14.193  13.090  14.786  0.0348  0.1683  0.4024
12584W        W28845   7.135   4.169   3.509 -0.0774  0.0009  0.0904
12585W        W28846  18.589  16.027  10.415  0.3341  0.0213  0.0982
12586W        W28847   7.888   8.440  12.247  0.0319  0.2926 -0.1098
12587W        W28848  13.852   6.168   5.074 -0.0220 -0.1154 -0.2815
12588W        W28849   5.695  11.286  14.621 -0.1139 -0.2757  0.1561
12589W        W28850   7.763  12.177   0.293 -0.2624 -0.1361  0.0674
12590W        W28851   3.664   8.720  13.382  0.0888 -0.0507  0.2828
12591W        W28852   8.723   9.394   4.013 -0.4862 -0.1891 -0.1556
12592W        W28853   8.772   1.497   0.670 -0.0212 -0.0570 -0.1392
12593W        W28854   7.435  10.203   9.648 -0.0164  0.1634 -0.0696
12594W        W28855   0.644   1.266  14.047  0.0306  0.2987  0.1896
12595W        W28856  14.883   9.971   0.009 -0.0024  0.2464 -0.2813
12596W        W28857  16.942  14.060  12.565 -0.0935 -0.1553  0.0594
12597W        W28858   5.049   5.279   3.355 -0.3129  0.1921 -0.2049
12598W        W28859   5.527  10.033   3.922 -0.0581 -0.0121  0.0632
12599W        W28860   2.986   8.207  11.535  0.2318 -0.0065  0.0260
12600W        W28861   7.291  15.801  10.759  0.1942 -0.0453  0.0967
12601W        W28862  16.602  16.898   3.633 -0.0736  0.0115 -0.5218
12602W        W28863   9.453   4.244   2.716  0.0512  0.2851  0.3265
12603W        W28864  16.364   2.301   3.250  0.0680  0.0037  0.0927
12604W        W28865   9.101   0.552   1.587  0.2368  0.0503 -0.1608
12605W        W28866  13.521   0.415  13.826  0.1066 -0.2086  0.0732
12606W        W28867   2.798   4.223   0.162  0.1238 -0.1477 -0.1357
12607W        W28868  17.498   4.764   0.922  0.1784  0.0168 -0.1724
12608W        W28869   0.152  15.789  11.091  0.0988 -0.3722 -0.1285
12609W        W28870  10.915   1.792  11.353 -0.0340  0.1732 -0.1800
12610W        W28871  19.132   3.849  14.263 -0.0373 -0.0533 -0.1891
12611W        W28872   3.649   6.073   2.076  0.1624 -0.0692 -0.1230
12612W        W28873  18.724   8.839   4.391 -0.0328 -0.2206 -0.0181
12613W        W28874   9.411   2.743   0.546 -0.3836 -0.2421 -0.1623
12614W        W28875  12.164  14.533  11.974  0.1577  0.2149  0.0406
12615W        W28876  14.701  17.310   3.420  0.0957  0.2002  0.0072
12616W        W28877  18.380   8.525   2.283  0.0494  0.0566 -0.0749
12617W        W28878  12.556   4.464   1.460 -0.2540 -0.2037  0.2268
12618W        W28879   0.983  14.979  10.813  0.2189 -0.0707  0.0076
12619W        W28880  18.537  13.458   3.608  0.2339 -0.3321  0.2971
12620W        W28881   7.862  13.411  14.438 -0.2948  0.0684 -0.0640
12621W        W28882  18.161  13.410   3.987 -0.1241  0.3361 -0.1229
12622W        W28883   5.936   5.885   3.071  0.1019 -0.5450  0.0887
12623W        W28884  10.022   6.853   0.080  0.0922 -0.1235 -0.1140
12624W        W28885  18.832   8.078   2.376  0.1073 -0.3149  0.0683
12625W        W28886   1.930  18.673   4.975  0.0482 -0.1419  0.0349
12626W        W28887  14.221  12.099   1.760  0.0163 -0.2548 -0.3306
12627W        W28888   3.324  19.243  11.602 -0.0003 -0.0964  0.3322
12628W        W28889   0.732   7.799  13.686  0.1551 -0.0650  0.2664
12629W        W28890   1.419   9.091   4.998 -0.1982  0.0448  0.0878
12630W        W28891  10.450  14.419   0.675  0.1878 -0.2611 -0.1090
12631W        W28892   8.377  10.856  11.889 -0.2066  0.0124  0.2257
12632W        W28893   0.659  13.350   3.794 -0.1988 -0.1646  0.2969
12633W        W28894   4.504  13.543   1.944  0.0238  0.1222  0.1670
12634W        W28895  18.974   5.611   0.938 -0.2841 -0.7215  0.1575
12635W        W28896   5.953   5.441  11.988 -0.1673  0.2115  0.0336
12636W        W28897   0.595  15.534   1.491 -0.0032  0.3007  0.2390
12637W        W28898   1.278   1.971  14.771  0.3901  0.1754 -0.1697
12638W        W28899   0.427   4.625  11.658  0.1348  0.0987  0.2034
12639W        W28900  19.110  19.046  13.743 -0.3301  0.1769  0.0782
12640W        W28901  12.138   5.553   8.872  0.1780 -0.1438 -0.0710
12641W        W28902  14.003   6.536   2.243  0.3352 -0.0889 -0.2180
12642W        W28903   1.577  17.645  12.746 -0.1509  0.1257 -0.1540
12643W        W28904   8.461   2.482  12.224 -0.1581  0.1355  0.0192
12644W        W28905  11.688  16.104  14.328 -0.3146  0.1108  0.2602
12645W        W28906   4.949   1.585  14.540 -0.1016  0.0790 -0.0642
12646W        W28907   3.532   0.180  13.801 -0.0556 -0.0783 -0.0118
12647W        W28908  10.887  11.970   9.816 -0.0569 -0.0065 -0.4418
12648W        W28909  12.326  17.639  14.406 -0.0019  0.0636  0.3482
12649W        W28910  15.431  16.840   4.874  0.3767 -0.5335 -0.1428
12650W        W28911   7.278  17.684  12.526 -0.0376 -0.0952  0.0287
12651W        W28912   6.319  10.420   1.716  0.1573  0.1208  0.2471
12652W        W28913  15.712  10.189  14.617 -0.0655  0.0750 -0.0103
12653W        W28914  16.395   3.453   3.774  0.0683 -0.0120 -0.0295
12654W        W28915   1.097   2.258  14.269 -0.0186  0.0585  0.1674
12655W        W28916  19.163   0.796  10.584  0.0653 -0.3178 -0.0301
12656W        W28917   0.523  19.384  12.219  0.0734 -0.0119  0.0412
12657W        W28918   6.832  12.374  13.484  0.0539 -0.2512  0.1419
12658W        W28919  16.881   5.145   2.595 -0.1225 -0.1613 -0.1574
12659W        W28920  12.068  11.429   0.147 -0.4082  0.1207  0.1593
12660W        W28921  16.198   6.056   0.999 -0.0635 -0.0174 -0.0390
12661W        W28922   3.305   9.274   3.473 -0.1991  0.0150 -0.2245
12662W        W28923  13.565   8.910   0.133  0.0226  0.0230 -0.2256
12663W        W28924   7.573  12.109   2.210 -0.3036 -0.2896 -0.4512
12664W        W28925  15.893  14.319  11.801 -0.2325 -0.0412  0.0166
12665W        W28926  17.180  17.722  11.002  0.2597  0.0393 -0.1705
12666W        W28927  11.408   1.863   3.686  0.0994  0.0610  0.0595
12667W        W28928  10.291   0.007  12.247  0.0148  0.1731  0.0639
12668W        W28929   2.870   1.563  14.800  0.0897  0.2658  0.0484
12669W        W28930   9.244  18.485  13.455 -0.1196 -0.0242 -0.0247
12670W        W28931   9.801  15.109   3.131  0.1258 -0.2698 -0.1127
12671W        W28932  13.133  12.185   4.151  0.1384  0.2439  0.1460
12672W        W28933  13.971  18.738   2.252 -0.0690  0.0467 -0.1199
12673W        W28934   4.242   2.270  13.396  0.0366  0.0778  0.2478
12674W        W28935   8.796  13.124   1.989 -0.2866  0.1827  0.1393
12675W        W28936   8.855  16.884   0.095  0.1130 -0.0020  0.3375
12676W        W28937  11.129  19.259   0.716 -0.3129  0.0091 -0.0051
12677W        W28938   8.669  14.035  14.338  0.0958 -0.0980 -0.0172
12678W        W28939  12.690  11.995  12.262  0.2229  0.1742 -0.2524
12679W        W28940   6.529  17.669   1.042  0.0221 -0.0466 -0.0026
12680W        W28941   2.177   5.511  11.052 -0.0285 -0.2729 -0.0233
12681W        W28942   9.763   7.095   0.461  0.0106 -0.4550 -0.2564
12682W        W28943   8.654  10.385  10.586 -0.0959  0.1722  0.0381
12683W        W28944   0.582   6.302  12.300 -0.0179  0.0083 -0.3631
12684W        W28945  10.372   1.921   1.709 -0.2417  0.2780 -0.0192
12685W        W28946   4.405   8.904   5.508 -0.1596  0.0970  0.2638
12686W        W28947  12.864  19.350   3.873 -0.2244  0.0589  0.0619
12687W        W28948   9.180   4.595   3.069  0.0679  0.0892  0.3799
12688W        W28949  10.455   8.443   0.879  0.2912 -0.0420  0.1026
12689W        W28950   2.147  19.087   1.154  0.0511 -0.0381 -0.1022
12690W        W28951   4.644   6.207   2.191 -0.2092 -0.1658 -0.0009
12691W        W28952   3.802  13.117   5.819 -0.2192  0.3447  0.2208
12692W        W28953   7.382   8.176  11.145  0.1718 -0.1386  0.2445
12693W        W28954   3.235   3.248   3.140  0.0865 -0.1574  0.1945
12694W        W28955   7.005   6.806   9.610  0.1970  0.1426  0.3153
12695W        W28956  11.727  12.153   3.994  0.1702  0.1150  0.5170
12696W        W28957   9.142   6.477  11.936 -0.2322  0.2507  0.1827
12697W        W28958   4.056   5.052   1.342 -0.2613 -0.1295 -0.1696
12698W        W28959   0.891  14.843   0.802 -0.1971  0.0524  0.1017
12699W        W28960  17.196   8.146  11.444 -0.2249  0.2288  0.1460
12700W        W28961  13.381   1.479   3.784 -0.1538  0.0252 -0.3849
12701W        W28962  15.221   5.487   2.343  0.1515 -0.1666 -0.2580
12702W        W28963   0.501   9.590  10.506  0.0179  0.1520 -0.3420
12703W        W28964   8.336  19.145  13.250  0.0446  0.0854  0.1073
12704W        W28965   6.494   8.098  10.380  0.0075  0.1945 -0.0256
12705W        W28966  15.106  11.331   3.795  0.0058 -0.2631 -0.2694
12706W        W28967   7.148   2.107  12.579 -0.0260 -0.1442  0.0417
12707W        W28968  12.863  16.711   2.168 -0.2986 -0.0849  0.0131
12708W        W28969   1.001  10.653   4.808 -0.0211 -0.2953  0.0397
12709W        W28970  11.751  12.771   2.962  0.4623  0.0419 -0.2805
12710W        W28971  17.177   2.178   5.605 -0.0442  0.0849 -0.2771
12711W        W28972   8.472   0.020  13.815  0.0730 -0.2243 -0.4614
12712W        W28973  13.147  12.567   2.862  0.1187 -0.1159  0.3443
12713W        W28974  11.889   7.831   3.369  0.1808  0.1764  0.0191
12714W        W28975  11.412   1.793   0.777 -0.0629  0.1960 -0.0131
12715W        W28976  19.054   1.706  10.387 -0.4699  0.2658 -0.0296
12716W        W28977  15.461  11.236   1.349 -0.1753  0.0869  0.2210
12717W        W28978   9.040   2.938   2.288  0.0493 -0.2561  0.0327
12718W        W28979  17.704  16.663   4.527  0.0304  0.2326  0.1909
12719W        W28980  11.576   6.038   2.042  0.2194  0.1685 -0.1299
12720W        W28981   6.037   0.578   1.322  0.1291 -0.2740 -0.0604
12721W        W28982   7.571  13.427   2.881 -0.0477 -0.1809 -0.1486
12722W        W28983   9.366  12.118   2.877 -0.1708  0.0197 -0.0202
12723W        W28984   4.795  10.599   0.877 -0.1095  0.0440  0.2167
12724W        W28985  14.104  15.379   1.200  0.1505 -0.1899  0.1080
12725W        W28986  17.478   8.365   3.533  0.3308  0.1636  0.1427
12726W        W28987  17.507  17.039   4.256  0.1125 -0.1986  0.0434
12727W        W28988   9.995  11.294  12.756 -0.4862  0.2167  0.1237
12728W        W28989  17.611   6.306  12.147 -0.3477 -0.1370 -0.1149
12729W        W28990  10.108   0.129   0.790  0.3486 -0.0310 -0.0590
12730W        W28991  15.979   6.414   1.844  0.1208  0.1966  0.1490
12731W        W28992   0.975  16.835  13.965  0.1648 -0.1548  0.2652
12732W        W28993  18.139  10.564  12.545 -0.1459  0.0360 -0.2810
12733W        W28994  19.348  19.108   4.133 -0.1777  0.0996  0.1635
12734W        W28995   5.567   0.650   1.221 -0.2881  0.3869 -0.3464
12735W        W28996   0.261   9.337   0.398 -0.1002 -0.0060 -0.0298
12736W        W28997   2.484  10.648   1.716  0.1477  0.3558  0.0260
12737W        W28998   5.969  13.393   2.840 -0.2087  0.0604 -0.0140
12738W        W28999   0.270   0.274   3.073 -0.1337  0.2247  0.1952
12739W        W29000   5.349  18.129  14.221 -0.0296 -0.2180 -0.0783
12740W        W29001  12.222  17.086   4.872  0.2431  0.2689  0.1108
12741W        W29002   3.627   2.940   3.025 -0.0420  0.0455  0.2449
12742W        W29003  15.881   6.122  12.846  0.1279 -0.1335  0.4227
12743W        W29004   2.995   6.408   1.122 -0.0138  0.0384 -0.0695
12744W        W29005  17.540  17.142  10.701  0.0798  0.1355 -0.1219
12745W        W29006   1.325  12.786  12.530 -0.1675 -0.0336  0.0701
12746W        W29007  18.190  13.457  13.064  0.0914 -0.1381  0.2402
12747W        W29008   6.247  12.111   4.395 -0.2546 -0.1810  0.0547
12748W        W29009  13.987   7.508  12.953 -0.0393  0.0914  0.0232
12749W        W29010  12.712  16.162  11.363 -0.2274 -0.0489  0.2081
12750W        W29011  13.018   1.542   4.150  0.1619  0.2121  0.1371
12751W        W29012  16.781   0.051   0.786 -0.1332  0.1798  0.2401
12752W        W29013   0.183  16.459  13.233  0.0924 -0.1601 -0.2907
12753W        W29014  15.130   6.047   3.589 -0.0543  0.1274  0.3096
12754W        W29015  16.582   0.944   2.528  0.1077 -0.0963 -0.0359
12755W        W29016   9.242  17.647  13.868 -0.1051 -0.2642  0.0573
12756W        W29017   7.234  11.548  11.535 -0.0791  0.3128  0.2877
12757W        W29018   4.544  18.878  12.792  0.2357 -0.1495 -0.2439
12758W        W29019  12.989  12.962  11.793  0.0820 -0.3012  0.1727
12759W        W29020   9.045   5.910  10.587 -0.1254 -0.0131 -0.0696
12760W        W29021  17.398  13.602   3.541 -0.0478 -0.0316 -0.1962
12761W        W29022   9.574  15.968   3.911 -0.0094  0.2982  0.0064
12762W        W29023   9.688   1.775  10.147 -0.5441  0.1276  0.1999
12763W        W29024   4.989   8.775   4.323 -0.1358 -0.1815 -0.4008
12764W        W29025   6.559  14.646  14.123  0.1096  0.2073  0.2641
12765W        W29026   2.833  19.200  13.715  0.2513 -0.4097 -0.1734
12766W        W29027   0.001   6.859   3.222  0.0951 -0.1121  0.2484
12767W        W29028   0.011   5.710   2.232 -0.4257  0.1320 -0.2100
12768W        W29029  15.002  16.054   9.903 -0.0953 -0.3492 -0.1527
12769W        W29030   4.001  10.606   0.567 -0.1238  0.0270 -0.0585
12770W        W29031   5.298   4.412   3.383 -0.0678  0.0359 -0.0400
12771W        W29032   0.538  15.402   4.144 -0.3100 -0.2460 -0.0364
12772W        W29033  18.076  18.800   2.001  0.0344 -0.0086  0.4877
12773W        W29034   5.780  11.428  12.086 -0.1948  0.0951 -0.1863
12774W        W29035  10.803  15.169   4.984  0.0886 -0.1800  0.1944
12775W        W29036  12.406  18.043  13.095 -0.4018 -0.2413  0.3004
12776W        W29037   4.885  12.940  11.206  0.1613  0.1169 -0.0324
12777W        W29038   4.859   0.100   3.182  0.1461  0.4426  0.0349
12778W        W29039   2.889   3.502   2.788  0.0794 -0.0665  0.0257
12779W        W29040  19.204  16.229   3.296  0.1152  0.1610  0.0612
12780W        W29041   3.787   3.581  11.654  0.1274  0.1664 -0.1215
12781W        W29042  12.384  13.439  14.777 -0.0780  0.0263  0.0139
12782W        W29043  17.293   2.573   5.918 -0.2219 -0.1846  0.1031
12783W        W29044   9.920   9.981  12.992 -0.0579  0.5899  0.0853
12784W        W29045  13.662   0.255   3.658 -0.2685 -0.0498  0.0688
12785W        W29046  13.479   5.955  14.594  0.2365  0.3154  0.1173
12786W        W29047   6.446   2.858   1.333 -0.0583 -0.0345 -0.1754
12787W        W29048  18.119   3.433   4.779  0.1964  0.2124 -0.2246
12788W        W29049  11.027   0.457   3.473  0.0927  0.2686  0.3507
12789W        W29050   4.184  12.573   2.134  0.0115 -0.2231 -0.1016
12790W        W29051  14.247  11.253  13.574 -0.2968 -0.0930  0.0501
12791W        W29052  12.320   7.172  12.757 -0.3002 -0.3073 -0.0053
12792W        W29053  11.646  15.805  13.456 -0.2123 -0.0673 -0.0522
12793W        W29054   2.233  14.573  13.633  0.1573 -0.1882 -0.1352
12794W        W29055   9.242  13.840   4.398 -0.1708 -0.1925  0.2575
12795W        W29056   9.886  19.027  14.011  0.0937 -0.0617  0.1796
12796W        W29057   1.306   0.504   4.855  0.1114 -0.5001 -0.2427
12797W        W29058  13.475  18.375   0.327  0.0182  0.0297 -0.1739
12798W        W29059  15.883  15.806   2.893 -0.1322  0.2895  0.0108
12799W        W29060  10.471  11.105  14.720 -0.4521  0.0991 -0.0010
12800W        W29061  11.868  12.447  13.712 -0.5139  0.2780  0.0918
12801W        W29062  15.543   7.447   3.227 -0.2964 -0.3723  0.0707
12802W        W29063   0.563   7.097   4.616  0.1963 -0.0301  0.0347
12803W        W29064   2.653  11.575  14.766 -0.0285  0.0565  0.4978
12804W        W29065  14.869   1.977  13.581 -0.1554  0.2017  0.3975
12805W        W29066   4.905  14.319   0.396  0.2399  0.2877 -0.0240
12806W        W29067  16.091  15.682  11.730  0.3496 -0.4156 -0.1559
12807W        W29068  14.972   5.939   1.669 -0.1765 -0.2730 -0.2813
12808W        W29069   6.174  12.421  11.975  0.1991 -0.0480 -0.0004
12809W        W29070   7.830   6.616   1.555 -0.1527  0.1815  0.1345
12810W        W29071   4.422   8.596   2.143  0.2550  0.0117  0.2608
12811W        W29072  13.930  13.043  11.931  0.1687  0.1290 -0.3574
12812W        W29073   0.837  19.054  13.416  0.1860 -0.2667  0.1589
12813W        W29074   8.954  10.283   3.142  0.1424  0.0907  0.0710
12814W        W29075   7.104   1.169  10.513 -0.0600 -0.3523  0.3202
12815W        W29076  12.936   0.169   2.076 -0.0724  0.0858  0.2322
12816W        W29077  11.097  12.102  11.622  0.1366 -0.0919 -0.1636
12817W        W29078  17.041   6.620   4.666 -0.0341 -0.1225 -0.0062
12818W        W29079  18.166  12.491   3.232  0.1346 -0.1874  0.1507
12819W        W29080   9.543   9.722   3.650  0.0293  0.2644  0.1091
12820W        W29081  14.517   2.782  14.506 -0.1700  0.1872 -0.2259
12821W        W29082   3.618  15.522  10.831  0.1883  0.5529  0.1217
12822W        W29083  14.781  11.041  11.175  0.0149  0.0525  0.0929
12823W        W29084   9.540  11.424   3.663  0.0862 -0.2299  0.1341
12824W        W29085   3.601   5.011   2.966 -0.1162 -0.2413  0.4425
12825W        W29086   3.484  16.535  10.689  0.1348 -0.3973  0.2564
12826W        W29087  14.186   9.217   4.681 -0.0001  0.2852 -0.0640
12827W        W29088  19.035  18.583  12.411  0.0449 -0.0199 -0.1857
12828W        W29089   1.564  13.505   4.056 -0.2471  0.1398  0.0553
12829W        W29090  13.815   1.990   2.086 -0.0042  0.2000  0.0995
12830W        W29091  17.285   3.568   1.886  0.1793  0.1456 -0.1616
12831W        W29092  14.948  10.261  10.969 -0.0568 -0.0784  0.1390
12832W        W29093  12.541  17.246   5.759 -0.1012 -0.0541  0.0486
12833W        W29094  10.311   8.192  14.772  0.0765  0.5185 -0.0857
12834W        W29095   4.517  16.223   4.585 -0.0064 -0.1692  0.1046
12835W        W29096  14.684  16.846   3.665 -0.1134 -0.0232  0.1423
12836W        W29097   6.959  11.659   0.180 -0.0594  0.0195 -0.4106
12837W        W29098   0.890   4.596  14.496 -0.0126  0.0965  0.2942
12838W        W29099   9.000  13.617   3.995  0.3215 -0.3566 -0.1370
12839W        W29100  12.019   3.743   2.074  0.0184 -0.0093  0.0885
12840W        W29101  19.310  12.504   4.244 -0.1886 -0.2829 -0.0889
12841W        W29102   9.016  14.717   0.659  0.1562  0.0760 -0.0233
12842W        W29103   4.441  16.800  14.426  0.0742  0.4275 -0.0575
12843W        W29104   2.534   0.762   1.480  0.0827 -0.0582 -0.1470
12844W        W29105   1.454  11.777   2.063  0.1724 -0.0408 -0.1652
12845W        W29106   5.088   0.684   4.798  0.0491 -0.0117  0.3056
12846W        W29107   5.131   3.326  13.033 -0.1055 -0.1029  0.0989
12847W        W29108   8.201   8.536  11.480 -0.1463 -0.1224  0.1011
12848W        W29109  14.794  16.125   0.906 -0.1240  0.0359 -0.0764
12849W        W29110   8.639  18.041   1.807  0.1121  0.1882 -0.4612
12850W        W29111  18.521  10.654  11.145 -0.2817  0.0135  0.1771
12851W        W29112   1.917  13.698   3.737  0.3220  0.1191 -0.0333
12852W        W29113  16.328   7.492   0.428  0.1044  0.1479 -0.0250
12853W        W29114  11.769  12.381   4.502  0.0021 -0.1768  0.0602
12854W        W29115   2.030   9.239  10.377  0.2182  0.0175 -0.0474
12855W        W29116  15.652  16.686  12.587  0.2947  0.1379 -0.0304
12856W        W29117   2.868   2.643  14.562 -0.0690  0.2738 -0.1058
12857W        W29118  14.912   3.128   1.440 -0.4131  0.1876 -0.0446
12858W        W29119  12.561   8.864   2.610 -0.0821  0.0421 -0.1163
12859W        W29120  18.983  10.232   2.374 -0.1470  0.1739 -0.1103
12860W        W29121  14.911  10.130   5.328  0.5246 -0.2738 -0.4358
12861W        W29122   9.305   8.096  14.562 -0.2233  0.3410 -0.1636
12862W        W29123   7.934   3.585  10.651 -0.1139 -0.0790 -0.3256
12863W        W29124   4.220   6.258   0.275 -0.1299  0.0776  0.0758
12864W        W29125   7.936   8.454   4.727  0.0284  0.3468  0.1187
12865W        W29126   5.907  14.285   4.426 -0.0407 -0.1236 -0.2621
12866W        W29127  10.849  14.512  12.829 -0.0139 -0.2315  0.1574
12867W        W29128  10.535  12.759   3.056 -0.2104 -0.1557  0.1556
12868W        W29129   3.657  17.667   0.616  0.1336 -0.4018 -0.1658
12869W        W29130  14.735  15.406   4.193  0.2096 -0.1110  0.3040
12870W        W29131   8.803   7.146  13.473 -0.0210  0.0308  0.0919
12871W        W29132  18.281   2.484   4.665 -0.0354  0.1545 -0.0437
12872W        W29133   1.183  10.380   3.412 -0.3369  0.0990 -0.0818
12873W        W29134  15.925   6.628   1.083 -0.2197  0.0976  0.0414
12874W        W29135   6.799  13.968   4.157 -0.0959  0.1364  0.0218
12875W        W29136  14.111   1.304  13.737  0.3478  0.2854  0.1552
12876W        W29137  14.320   0.717   0.916 -0.2203  0.0708  0.2313
12877W        W29138   0.651   5.132   3.673  0.0488  0.1816 -0.2152
12878W        W29139  16.994  16.123   9.961  0.2222 -0.2768  0.2207
12879W        W29140  15.232   5.818   2.731  0.0574 -0.3883  0.0803
12880W        W29141  19.379   4.601  10.315 -0.0596  0.0324  0.0302
12881W        W29142  18.587  19.419  14.694  0.2487  0.0988 -0.2248
12882W        W29143   2.591  16.142   5.702 -0.0011 -0.2341 -0.0989
12883W        W29144   0.053  10.659   5.335 -0.2686 -0.4740 -0.1580
12884W        W29145   6.039   8.883   0.497 -0.2753 -0.0992 -0.0242
12885W        W29146   1.017  15.212   1.116  0.0932  0.2776 -0.1192
12886W        W29147  11.330   0.988   1.373  0.4126  0.3384 -0.1223
12887W        W29148   4.309  10.811   4.881  0.0991  0.0098  0.0186
12888W        W29149  11.952   4.153  10.900  0.1058 -0.1793 -0.2288
12889W        W29150   5.106   0.743   2.652  0.1403 -0.0248 -0.0798
12890W        W29151  15.811   2.910  14.030  0.2609 -0.0051  0.1183
12891W        W29152  11.703   0.347   5.310 -0.2235  0.0128  0.4704
12892W        W29153   5.803   5.816   0.983  0.1362 -0.0546 -0.0914
12893W        W29154  10.908   5.279   0.291  0.1664 -0.2570 -0.1584
12894W        W29155  19.044  11.582   2.901 -0.1332 -0.1597  0.1606
12895W        W29156  15.103   7.932   0.999 -0.2342  0.1824 -0.0407
12896W        W29157  13.236   4.815   4.169 -0.0083 -0.1306 -0.0207
12897W        W29158  18.917   8.510   1.526  0.2277  0.1094 -0.1131
12898W        W29159   2.288  16.834   1.140  0.1778 -0.2493 -0.0859
12899W        W29160  11.261   1.022  10.677  0.0597 -0.0719  0.0030
12900W        W29161   5.412  15.664   3.213 -0.4056  0.0376  0.4133
12901W        W29162  13.544   3.015   0.700  0.2547 -0.1701  0.1696
12902W        W29163  12.464  11.924  13.154  0.4704 -0.0106  0.1797
12903W        W29164  10.259  19.033   2.260 -0.1251 -0.1904 -0.1619
12904W        W29165  14.548   9.916   3.169 -0.3150  0.0364 -0.1247
12905W        W29166   7.143  13.489   4.422 -0.1300 -0.0855 -0.1196
12906W        W29167   4.980  13.656  14.488 -0.0403 -0.1296  0.1030
12907W        W29168   6.376  13.382   1.756 -0.3170  0.1558  0.4572
12908W        W29169  17.965  10.348   1.000 -0.0235 -0.0413 -0.2720
12909W        W29170   3.682  12.653  13.953 -0.0669  0.1073  0.5260
12910W        W29171   5.966  13.516   5.178 -0.2711  0.0845 -0.0865
12911W        W29172   1.536   3.917  14.098  0.1541 -0.0193 -0.1614
12912W        W29173   1.981   2.934   1.697  0.1127  0.2088 -0.0063
12913W        W29174   2.382   6.496   1.691  0.3230  0.1610 -0.0049
12914W        W29175   2.960  11.994  14.325 -0.0176  0.0627  0.0385
12915W        W29176   7.634   0.552   3.313  0.1582 -0.1390 -0.1378
12916W        W29177   5.321  19.271   1.070 -0.0959  0.4186  0.0449
12917W        W29178   6.113  13.779   1.029 -0.1670 -0.0279 -0.0493
12918W        W29179   7.298   6.840   2.328 -0.3828  0.1429  0.1358
12919W        W29180   5.292  17.614  10.344  0.2132  0.3510  0.1014
12920W        W29181   0.730   0.728   0.039  0.0920 -0.1139 -0.0189
12921W        W29182  15.407   3.821  11.619  0.0585  0.0533  0.2431
12922W        W29183   1.050  12.897  12.096  0.1788 -0.0655 -0.2040
12923W        W29184  11.146  10.073  14.169 -0.1979 -0.1871  0.2236
12924W        W29185   8.342   9.254   1.287  0.0001 -0.4405  0.0314
12925W        W29186  19.477   0.049   1.658 -0.1683  0.2804  0.0784
12926W        W29187  13.655  16.178   1.693  0.4745 -0.1780  0.2380
12927W        W29188  19.427  11.758  12.895 -0.0025 -0.0247 -0.3120
12928W        W29189  18.752  15.504   4.555 -0.3665 -0.1002  0.3209
12929W        W29190  16.867   0.960   0.343  0.1264  0.1182 -0.0919
12930W        W29191   8.731   6.716   2.027  0.1831  0.0623  0.4621
12931W        W29192  10.380   8.751  13.490  0.0143 -0.0015  0.0425
12932W        W29193   1.181  11.412  13.070  0.0477 -0.0345 -0.1383
12933W        W29194   7.420  17.762   1.810  0.0583  0.0054  0.3653
12934W        W29195  14.377   7.293   1.601  0.0853 -0.2277 -0.1411
12935W        W29196   4.761  13.554  12.397 -0.0012  0.0151 -0.0958
12936W        W29197  14.870  11.018   4.795  0.1119  0.0417 -0.1545
12937W        W29198  18.882   5.811  12.630  0.1097 -0.1226  0.0834
12938W        W29199   5.576  18.766   3.835 -0.0845  0.1550 -0.3476
12939W        W29200   8.521  10.700  10.979  0.0351 -0.3764  0.1306
12940W        W29201   7.795  11.429   4.540 -0.0161  0.1496  0.1782
12941W        W29202   9.261   2.386   3.959 -0.1023 -0.2003  0.0646
12942W        W29203   1.465  17.271   0.119 -0.0763  0.0065  0.1549
12943W        W29204  17.241  17.696   1.404  0.0641  0.1774  0.3539
12944W        W29205  19.177   1.001   0.782  0.0157 -0.0535  0.4731
12945W        W29206   3.646  14.072  14.715 -0.2549 -0.1686 -0.0372
12946W        W29207  14.683  13.039   3.976  0.0753 -0.0091 -0.0613
12947W        W29208   7.358   5.349  10.926 -0.1318  0.1155 -0.3339
12948W        W29209   4.832   0.189  10.194 -0.2285  0.2119 -0.2092
12949W        W29210  14.789  13.625   4.225  0.2473  0.5006  0.1463
12950W        W29211   4.379  16.784  13.359  0.1516  0.0904  0.0985
12951W        W29212   4.107  11.380  14.802  0.1399 -0.6175 -0.0790
12952W        W29213  10.274  17.790   4.270 -0.1927 -0.1576 -0.0222
12953W        W29214   5.264   8.456  13.645  0.0187 -0.0506  0.0968
12954W        W29215  12.306   3.387   1.588 -0.1508  0.0775 -0.0989
12955W        W29216   1.364  17.380   1.170  0.0664  0.1241 -0.3460
12956W        W29217  15.340  14.859   0.902 -0.0524  0.1736 -0.4370
12957W        W29218   0.793  11.909  14.748 -0.0317 -0.3388  0.3155
12958W        W29219   2.048  15.256   2.521 -0.0374  0.0804 -0.1454
12959W        W29220   8.519  10.220   2.052 -0.1606  0.2262  0.0475
12960W        W29221   2.252  18.261   1.414  0.0098 -0.0280  0.3329
12961W        W29222  18.313   1.506  10.759  0.1856  0.0333  0.1460
12962W        W29223   9.008   2.062  11.444 -0.2556 -0.1626 -0.2982
12963W        W29224  12.762   2.766  12.650 -0.0054  0.0819  0.1192
12964W        W29225   7.588  17.404   5.075 -0.0925  0.0928 -0.1553
12965W        W29226  17.693   1.207   1.669  0.0490 -0.1445 -0.0943
12966W        W29227  14.376   0.810  13.899  0.1647 -0.1771 -0.0878
12967W        W29228   6.539   6.512  12.882  0.0602 -0.1332  0.1058
12968W        W29229   8.878   4.008  13.519 -0.2477 -0.1028  0.2758
12969W        W29230   9.982  11.177  13.331  0.0475  0.2499  0.0089
12970W        W29231  18.788   4.222  14.458  0.1033  0.1349 -0.1023
12971W        W29232   1.715   7.506   4.238 -0.1111 -0.0457 -0.2528
12972W        W29233  17.537  14.796   0.102  0.1623  0.0119  0.1977
12973W        W29234   9.947  19.394  13.103  0.1221 -0.0000  0.0954
12974W        W29235   6.068  11.965  11.021  0.1586  0.4160 -0.2888
12975W        W29236  11.808   7.743   9.737  0.0911 -0.0425 -0.1654
12976W        W29237  10.990  18.180   3.123 -0.0238  0.1681 -0.4833
12977W        W29238   0.047  15.906  13.383  0.2628 -0.1223 -0.2943
12978W        W29239   7.952  11.724   1.286 -0.0193  0.0382  0.0265
12979W        W29240  18.348   4.811  13.229  0.0472  0.2222 -0.1423
12980W        W29241   4.845  11.415  12.300 -0.1065 -0.2834 -0.0075
12981W        W29242   5.054  12.557  13.717 -0.2770 -0.2097  0.0550
12982W        W29243  10.813   7.915  13.409 -0.3867  0.0411 -0.0641
12983W        W29244  16.386  17.908   3.472 -0.1678  0.0834  0.0784
12984W        W29245   9.707  12.485   3.927 -0.1025  0.3459 -0.0826
12985W        W29246  17.805   7.298   3.665 -0.0930 -0.1615  0.0755
12986W        W29247  11.640   3.626   0.138 -0.2455  0.1163 -0.2043
12987W        W29248  13.800   2.936   2.564  0.2104 -0.0392  0.4268
12988W        W29249   8.457   8.491   1.593  0.0196 -0.1342 -0.2653
12989W        W29250   8.597   6.796   4.901 -0.1620  0.1699 -0.0942
12990W        W29251  13.488  12.634  14.507  0.0106  0.0102  0.1322
12991W        W29252  17.254   1.127   9.217  0.5101  0.0352 -0.1102
12992W        W29253   1.967   4.783   4.317 -0.0119  0.0797 -0.0685
12993W        W29254  11.064  11.439   1.301  0.3504  0.1595  0.1909
12994W        W29255   7.153  13.071   2.670 -0.2068  0.0438  0.0154
12995W        W29256  14.084   3.797  10.787  0.0689  0.0104 -0.1678
12996W        W29257   2.887  14.530  14.496 -0.0908 -0.0486  0.0846
12997W        W29258   8.455   5.979   2.955 -0.2608 -0.0388 -0.0849
12998W        W29259   3.257   7.277   3.136 -0.0263 -0.1909 -0.0017
12999W        W29260   6.735   4.272   4.814 -0.2361  0.2731 -0.1474
13000W        W29261  19.422   5.870   1.722 -0.1246  0.5592  0.0183
13001W        W29262   3.533  15.396  13.602  0.2564 -0.2907 -0.2447
13002W        W29263  12.471   9.459   4.752  0.1238  0.2197 -0.0162
13003W        W29264  16.372  11.341  13.574 -0.1480  0.0963  0.0134
13004W        W29265   6.383   4.381   3.203  0.1500  0.1567  0.4300
13005W        W29266  13.636  14.961   4.319  0.2955 -0.1090  0.0081
13006W        W29267   7.105   3.348  11.092 -0.2238  0.1842 -0.0570
13007W        W29268  19.331   1.353  12.494 -0.0837 -0.0277  0.0483
13008W        W29269  15.935  12.430  13.284  0.0236 -0.0677  0.1197
13009W        W29270  17.684   1.681   0.872  0.1565  0.0738 -0.1379
13010W        W29271   0.405  18.384   0.457 -0.0004  0.3082 -0.1978
13011W        W29272   9.558  13.011   1.511  0.0910 -0.0011 -0.1967
13012W        W29273   9.285  18.399  12.318 -0.3834  0.0243  0.1168
13013W        W29274  14.079   4.347  13.826  0.1782  0.0282 -0.0900
13014W        W29275   9.984  15.772   0.477  0.4503 -0.0689 -0.1249
13015W        W29276  10.182   5.711   9.839 -0.0470 -0.0967  0.1720
13016W        W29277   1.715  11.018   2.532 -0.1100  0.1898  0.2252
13017W        W29278  11.807   6.964  11.300 -0.3060 -0.2652  0.1511
13018W        W29279  13.270  15.413  14.321  0.1642  0.1563  0.0404
13019W        W29280   9.901  13.180   3.752 -0.1705 -0.0760  0.1097
13020W        W29281   9.268  15.750  14.526 -0.3178  0.1287 -0.1574
13021W        W29282  13.927   8.859  13.071  0.0566 -0.3678 -0.0123
13022W        W29283  13.785   3.429   4.358 -0.0217  0.3008  0.3061
13023W        W29284   4.214  17.204  13.572 -0.1605 -0.0955  0.1173
13024W        W29285  11.645  18.666   2.690  0.1535 -0.1872  0.0094
13025W        W29286   2.778  16.519  14.745  0.1980 -0.0190 -0.3074
13026W        W29287  14.798   5.609  14.130  0.1463 -0.1020 -0.4182
13027W        W29288   9.572  16.713   1.875 -0.3331 -0.3769  0.2486
13028W        W29289  11.068  15.903  10.273 -0.0492  0.0243 -0.2782
13029W        W29290  18.936   8.500   4.811 -0.3477 -0.0112 -0.0207
13030W        W29291   5.343  17.436   4.624 -0.0861 -0.1827 -0.2502
13031W        W29292   6.454   0.196  11.161 -0.1068 -0.1362  0.0500
13032W        W29293  16.083   6.426  13.551 -0.1477 -0.0666 -0.2265
13033W        W29294  16.108  13.247  11.118  0.1799  0.0104 -0.1963
13034W        W29295  14.344   8.038  14.110  0.1024 -0.2627  0.0364
13035W        W29296  16.184   1.493   0.164 -0.0875  0.2712 -0.0472
13036W        W29297   0.478  12.732   0.761  0.1853  0.0292 -0.0888
13037W        W29298  16.297  11.409   5.261 -0.0669 -0.1037  0.2247
13038W        W29299   0.181  18.366   4.582  0.0288  0.1596  0.1279
13039W        W29300   9.423  11.834   2.451  0.2947 -0.2357 -0.0506
13040W        W29301   1.775   4.394  12.747 -0.2757 -0.1928  0.0244
13041W        W29302  17.750  19.361   4.126 -0.0238  0.0593 -0.0100
13042W        W29303  11.922  18.596   1.379  0.0147  0.1404  0.1909
13043W        W29304   4.768   6.276   9.661  0.1362  0.0247 -0.1874
13044W        W29305   7.675   2.083   1.839  0.3478 -0.0241  0.0568
13045W        W29306  15.647   7.617   1.602  0.0248  0.0287  0.1283
13046W        W29307   1.468  10.156   4.424  0.1571 -0.0703  0.0711
13047W        W29308  10.178  18.835   4.754  0.0284  0.1418  0.1160
13048W        W29309  18.225  11.964   0.191  0.3001 -0.1298 -0.3158
13049W        W29310  17.389  11.183  12.483 -0.0185 -0.0561  0.0673
13050W        W29311  17.567   0.631   2.940  0.0380  0.0221 -0.1551
13051W        W29312  11.076  15.099  13.381  0.3307 -0.1396 -0.2447
13052W        W29313   8.330  13.655  14.426 -0.0424 -0.1103 -0.0088
13053W        W29314   1.707   6.217  13.157 -0.1320 -0.1153 -0.0083
13054W        W29315   6.098  12.919   0.031  0.1147 -0.2212  0.0756
13055W        W29316   4.362   9.991   1.128  0.0474 -0.1352 -0.0149
13056W        W29317  19.048  16.764  13.688  0.1657 -0.2812  0.2551
13057W        W29318  14.812  10.983  10.557  0.0912 -0.0669  0.3233
13058W        W29319   1.653  13.573   4.526  0.0657 -0.1957 -0.0683
13059W        W29320   6.728  13.606   2.221 -0.0059  0.0019 -0.2436
13060W        W29321  14.187  17.161   4.953  0.2290 -0.0050  0.1419
13061W        W29322   6.977  11.789   3.488 -0.2086  0.2201  0.0438
13062W        W29323  16.634  14.151  14.085 -0.0452  0.0808  0.1909
13063W        W29324   7.386  10.073   2.200 -0.1337 -0.1842 -0.2067
13064W        W29325   0.977   4.197  14.753 -0.1035  0.0068  0.1219
13065W        W29326  19.096   6.879   0.139 -0.2586  0.4212 -0.1504
13066W        W29327  17.114  18.189  11.695 -0.2600 -0.0867 -0.0387
13067W        W29328  15.258  13.459   2.011  0.1379  0.1872 -0.3059
13068W        W29329   4.601  15.176  12.279  0.5143 -0.1401 -0.0483
13069W        W29330  11.363   2.111   9.926 -0.0085 -0.2299 -0.2000
13070W        W29331   7.947   4.016  10.275 -0.1185  0.0509 -0.0066
13071W        W29332   8.677   8.269   4.656 -0.2234  0.0150 -0.0595
13072W        W29333   5.749  12.153  10.681 -0.1606  0.0073  0.1398
13073W        W29334  13.875  11.300  11.945  0.1187 -0.0367  0.0864
13074W        W29335  16.501   1.110  10.986 -0.1674  0.2502  0.0142
13075W        W29336   2.221   0.987  11.921 -0.0917  0.0952 -0.0353
13076W        W29337  10.965  13.263  12.687  0.2529  0.3238 -0.3312
13077W        W29338  11.684   2.952   2.800 -0.3040  0.1860  0.1150
13078W        W29339  14.900   0.282  10.090 -0.0877 -0.0011 -0.1699
13079W        W29340   8.342  17.092  10.779  0.0959 -0.0565  0.0242
13080W        W29341  13.445  16.590  11.985 -0.1682  0.0444  0.0130
13081W        W29342   6.872  18.476   3.667  0.0770  0.2786 -0.0426
13082W        W29343   0.708   2.623  14.134  0.4245 -0.0020 -0.1417
13083W        W29344   0.491  14.773  10.235 -0.0497 -0.1604 -0.3603
13084W        W29345   9.067   5.920  14.677 -0.0813 -0.1911 -0.3273
13085W        W29346  18.950  15.583   2.264 -0.1244  0.0186  0.1994
13086W        W29347  11.121  13.694  13.521  0.0780  0.0404 -0.2367
13087W        W29348  12.132   9.709  13.819  0.0209 -0.2857  0.0551
13088W        W29349   3.827   1.745  13.033 -0.0077  0.0433 -0.0923
13089W        W29350  13.915  19.027   4.058  0.0591  0.0376  0.1454
13090W        W29351   3.630   0.276   0.299  0.1305  0.2740  0.1657
13091W        W29352  17.424   6.036   2.654 -0.2474  0.1429 -0.1289
13092W        W29353  19.172   9.740   4.513  0.1894  0.1087 -0.2154
13093W        W29354  12.082  18.431   1.782  0.0842 -0.1352 -0.0524
13094W        W29355  14.330   9.929   1.422 -0.0355 -0.0555 -0.0449
13095W        W29356   9.939  17.838   0.378  0.7640  0.0572  0.1777
13096W        W29357   6.102  12.923  13.663 -0.2006 -0.0331  0.0991
13097W        W29358  17.568   4.170  10.303  0.0523 -0.0539 -0.2361
13098W        W29359   1.415   8.395  10.510 -0.2276  0.3131  0.2172
13099W        W29360   5.290   0.779  12.127 -0.0619 -0.0079  0.4271
13100W        W29361   0.561   2.993   2.831  0.3103 -0.0025  0.2107
13101W        W29362   1.457  17.265  11.706 -0.4395 -0.0238  0.1650
13102W        W29363  13.114   5.362  10.392  0.1107 -0.0724 -0.3367
13103W        W29364  15.740   8.718   1.203  0.2796  0.0784 -0.2554
13104W        W29365   1.072   6.035  14.277  0.3178  0.2438 -0.2333
13105W        W29366  12.553   2.731   3.956  0.0261 -0.0062  0.1544
13106W        W29367   7.342   4.212   2.850 -0.2631 -0.0958 -0.0892
13107W        W29368   0.400  17.949   1.147  0.0178 -0.1489  0.0267
13108W        W29369  17.461   0.938  13.644 -0.0801  0.1687 -0.4469
13109W        W29370  18.708  12.506   0.850  0.0663 -0.1649  0.0547
13110W        W29371   5.090   5.552  14.189  0.0645  0.1239 -0.1739
13111W        W29372  15.072   6.512  14.588 -0.2022  0.3415 -0.1719
13112W        W29373  16.058   4.171   1.027 -0.0059 -0.1479  0.0416
13113W        W29374  16.516  14.441   2.873 -0.6222 -0.0060 -0.1442
13114W        W29375   3.692  13.627   3.581  0.1087  0.0404 -0.0586
13115W        W29376   4.456  16.515  12.943  0.0156 -0.0848 -0.2210
13116W        W29377   5.042   0.480  10.544 -0.0238 -0.1653  0.0945
13117W        W29378   5.798  18.559   5.246  0.1564 -0.1905 -0.1682
13118W        W29379   7.753   2.416  11.684 -0.1824  0.3348 -0.2778
13119W        W29380  13.255   3.798   1.261 -0.1520 -0.4454  0.2299
13120W        W29381  14.739   7.321  10.208  0.2454  0.0202 -0.2817
13121W        W29382   1.420   6.695   4.534  0.1159  0.1440  0.0544
13122W        W29383   2.581  13.157   2.905 -0.1830 -0.0034 -0.0669
13123W        W29384   5.207  13.115  10.397 -0.1363  0.0132 -0.2757
13124W        W29385  18.731  10.351  14.273  0.1628  0.0798 -0.0523
13125W        W29386  14.421   4.307   3.441 -0.1764  0.0059 -0.0998
13126W        W29387  19.096   6.093   1.997 -0.0038  0.2849  0.2397
13127W        W29388   2.764   8.294   4.521 -0.2278  0.1648 -0.1761
13128W        W29389  18.087   0.798   0.047  0.2717  0.0484 -0.1503
13129W        W29390   4.692   2.475   0.049  0.1166  0.3538  0.5353
13130W        W29391  15.484  14.407   1.169  0.0586 -0.3374  0.1941
13131W        W29392   6.046  19.421  13.310 -0.1351  0.3450  0.0282
13132W        W29393   4.916  16.216   4.237  0.1294 -0.2442  0.2610
13133W        W29394  13.364   5.467   3.781 -0.1591  0.1387  0.1659
13134W        W29395   1.172  16.027   2.047 -0.1639  0.1070  0.2900
13135W        W29396   9.113  11.571  13.141 -0.0396 -0.2260  0.1199
13136W        W29397  18.557   9.568  11.139 -0.0885  0.1668 -0.2690
13137W        W29398  15.855  15.440   4.316 -0.2095 -0.0591  0.4248
13138W        W29399   0.683   3.925   4.842  0.3174  0.0676  0.1467
13139W        W29400   4.101  15.064   2.340 -0.2975 -0.0236 -0.1204
13140W        W29401  11.158   1.444   1.501 -0.0891 -0.1376  0.0772
13141W        W29402  16.433  19.237  14.265  0.1302 -0.1426  0.0520
13142W        W29403  18.676   6.672   4.625  0.2593 -0.1350  0.2642
13143W        W29404   8.188   4.424  11.541  0.1549  0.1617  0.2593
13144W        W29405   9.587  12.096   1.988 -0.2518  0.1665  0.0529
13145W        W29406   3.161  11.741   2.100  0.0511 -0.0995 -0.1296
13146W        W29407  11.756   8.315  11.483  0.1414 -0.3484  0.0225
13147W        W29408  10.871   4.907   2.955  0.1672  0.0725 -0.0490
13148W        W29409  10.862   0.136  10.544  0.3491  0.0399 -0.0971
13149W        W29410   9.988  17.415   4.477  0.2075  0.2389  0.1621
13150W        W29411   6.949   6.029  13.747 -0.3661 -0.3747 -0.0212
13151W        W29412  13.147   3.607  10.282  0.3358  0.2442  0.0965
13152W        W29413  11.382  17.617  11.437  0.1805 -0.0173 -0.2318
13153W        W29414   0.713  17.788  12.295 -0.0821 -0.0702  0.0366
13154W        W29415  10.516  15.727   5.179  0.2244  0.1597  0.0715
13155W        W29416   2.189  18.393  11.854 -0.2663  0.2672  0.2339
13156W        W29417  18.845  14.879   3.086 -0.3079  0.0998 -0.0011
13157W        W29418  10.482  12.331   1.881 -0.2314 -0.0898 -0.4965
13158W        W29419  12.033   9.623   0.460 -0.1716 -0.5152 -0.0720
13159W        W29420  15.654  11.827   2.672  0.2569 -0.2948  0.0667
13160W        W29421   0.810  18.837   4.140  0.4319 -0.3730  0.4778
13161W        W29422   4.063  17.984   1.456 -0.2430 -0.1035  0.2082
13162W        W29423   2.831   0.315   1.415 -0.0439  0.0414 -0.0110
13163W        W29424   9.654  10.662   0.252  0.1971 -0.1365 -0.1270
13164W        W29425  17.799  12.299  14.245  0.0468 -0.1974  0.0560
13165W        W29426  11.861   6.117   2.519 -0.1507  0.0603 -0.3518
13166W        W29427   1.090  15.166  14.628  0.3210 -0.0043 -0.0165
13167W        W29428  14.473  12.705   2.553 -0.4145 -0.0022 -0.0013
13168W        W29429  16.208  14.372  13.855 -0.3828  0.1741 -0.2702
13169W        W29430   4.345  11.416   3.049  0.0121  0.0813 -0.0271
13170W        W29431   9.990  18.302   2.070  0.1535 -0.0193  0.0805
13171W        W29432   5.382   7.242  12.702  0.0721  0.0042 -0.1882
13172W        W29433  12.228   2.344  11.885 -0.2759  0.4732 -0.3151
13173W        W29434   6.985  12.821  12.323 -0.1936  0.0984  0.2783
13174W        W29435   2.392  11.178  14.556  0.2843 -0.0076  0.3656
13175W        W29436   2.833   2.151   3.604  0.2046  0.0647  0.0202
13176W        W29437   8.086   2.696  13.428 -0.1117  0.1558 -0.2472
13177W        W29438  17.490  11.362  12.037 -0.3790 -0.0874 -0.0312
13178W        W29439  17.275   8.796   5.500 -0.0660  0.1827 -0.2090
13179W        W29440  16.841  16.403  12.515 -0.1590  0.2002  0.0101
13180W        W29441   4.538   4.829  10.784  0.3326 -0.1890  0.1341
13181W        W29442   0.503  16.825  11.261 -0.0159  0.0393  0.0264
13182W        W29443   8.388  15.761  11.479 -0.0533  0.0220  0.0967
13183W        W29444   4.162   6.273  13.838 -0.3125  0.1143 -0.0068
13184W        W29445   9.004  13.823  11.041  0.5105 -0.0611 -0.1152
13185W        W29446   4.031  12.759  14.788  0.0560 -0.2906 -0.1371
13186W        W29447  15.727   9.696  10.623 -0.2906  0.1065 -0.1733
13187W        W29448   8.377  18.291  13.398 -0.0511  0.1994  0.1121
13188W        W29449  16.532  14.736  13.749  0.0393 -0.0412 -0.0548
13189W        W29450   8.392  18.200   0.646 -0.2735 -0.2702  0.1240
13190W        W29451  12.395  13.956   5.165  0.3255  0.0043 -0.0122
13191W        W29452   6.411  16.428   1.374 -0.4746  0.4022 -0.3765
13192W        W29453   1.255  16.529   4.108 -0.1122 -0.0299 -0.1183
13193W        W29454   8.418   6.458  12.691 -0.2126 -0.0022  0.0556
13194W        W29455   6.047  19.365   1.889  0.0321 -0.2497 -0.1274
13195W        W29456   2.664  16.213  11.452 -0.1070  0.1545 -0.0339
13196W        W29457  12.509   5.583  14.051 -0.2904  0.1024  0.0706
13197W        W29458  12.797  10.462  10.877  0.0440  0.3007 -0.1146
13198W        W29459   9.981   9.410  11.945  0.1629 -0.1172 -0.1668
13199W        W29460   4.494   4.205   2.867 -0.0616 -0.3736 -0.2025
13200W        W29461   2.569   6.267   0.649  0.3607 -0.1540  0.0158
13201W        W29462   7.340  13.061   3.641 -0.3360  0.0670  0.0327
13202W        W29463   4.973  14.055  12.612  0.0286 -0.0349  0.0223
13203W        W29464  19.251  15.258   0.039 -0.3066 -0.1223  0.1907
13204W        W29465   2.960  17.484   3.501  0.0572 -0.0232  0.1502
13205W        W29466  14.732  19.468  12.516  0.1384  0.0296 -0.1696
13206W        W29467   5.135   6.928   9.646 -0.0173 -0.2961 -0.0824
13207W        W29468   1.086   8.718  11.790  0.1969 -0.0440 -0.2427
13208W        W29469   1.369  17.380  10.778  0.0990  0.0888 -0.1061
13209W        W29470   7.816   1.422   2.220 -0.3282 -0.1932 -0.0535
13210W        W29471  16.419  13.849   2.891 -0.0310  0.0319 -0.1543
13211W        W29472  18.336  10.202  13.954 -0.2181 -0.0266 -0.1105
13212W        W29473   6.786   0.635   3.010 -0.0941  0.2447 -0.0604
13213W        W29474   9.724  14.366   4.557 -0.2195  0.3347 -0.1996
13214W        W29475  13.905   5.445  13.187  0.0494 -0.0060  0.1873
13215W        W29476  15.132   0.376   5.677 -0.1073  0.0051  0.1650
13216W        W29477  12.279  14.693   4.553  0.4696 -0.2637  0.0787
13217W        W29478  10.523  14.380  13.255  0.1802  0.2441  0.1300
13218W        W29479   4.639   7.258   4.907 -0.2329  0.2735  0.1216
13219W        W29480  18.376  10.762   2.888 -0.2551  0.0534 -0.0361
13220W        W29481  14.275  14.486  12.513  0.1191 -0.0593  0.0884
13221W        W29482   4.246  17.215  11.876 -0.1637 -0.3462 -0.0479
13222W        W29483   3.049  19.377   2.637  0.3943 -0.0834  0.1411
13223W        W29484   8.804   1.177  11.431  0.1013 -0.1013  0.2418
13224W        W29485   8.555  10.123   0.743 -0.0049  0.0120  0.0455
13225W        W29486   0.208  14.178  14.531 -0.3299 -0.1228  0.4350
13226W        W29487  10.974   8.662   1.843 -0.4185  0.1420 -0.2837
13227W        W29488   7.579   1.351  14.320  0.1108  0.1261  0.0569
13228W        W29489   7.773   6.093  12.406 -0.0098 -0.0685  0.0365
13229W        W29490  18.757   5.005   3.268 -0.3484  0.3972 -0.2245
13230W        W29491  19.052   3.837   1.278  0.0313  0.1308 -0.4084
13231W        W29492   9.418  15.687   4.306 -0.1982 -0.0195  0.0600
13232W        W29493  14.901  11.343   0.961 -0.1909 -0.0316 -0.2715
13233W        W29494  16.403   0.325   2.222  0.1038  0.4072  0.2331
13234W        W29495   5.996   1.535  11.835  0.1513  0.0372 -0.1181
13235W        W29496  10.094  16.369   9.657  0.0318  0.1810  0.0505
13236W        W29497   6.389   2.017   0.998  0.1101  0.3728  0.3544
13237W        W29498   6.506  14.273  12.277  0.2843 -0.0649  0.1507
13238W        W29499   1.270  13.256  12.299  0.0355  0.3255  0.3660
13239W        W29500  10.641  13.936  13.476 -0.0828  0.1422  0.0859
13240W        W29501   4.001  19.273  10.587 -0.2185  0.2045  0.1396
13241W        W29502   3.450   6.358   2.944  0.1414  0.4212  0.1077
13242W        W29503  13.581  18.688   0.751  0.0883  0.0237  0.3722
13243W        W29504   6.494   0.403   0.668  0.0372 -0.2650 -0.0128
13244W        W29505   2.109   4.473  13.310 -0.2392 -0.1302  0.1426
13245W        W29506   1.236   9.945   0.490 -0.3286 -0.1492  0.1448
13246W        W29507  17.738  10.364  13.099 -0.0015 -0.0704 -0.4673
13247W        W29508   1.771   6.759   9.065  0.2172  0.2469 -0.4685
13248W        W29509  14.600   6.197   1.486 -0.0525  0.2329  0.1194
13249W        W29510   1.074  14.620   2.557 -0.0142 -0.1576  0.3230
13250W        W29511   7.411  19.256   0.722 -0.0101 -0.1914 -0.1965
13251W        W29512   8.635  16.601  12.587 -0.4516  0.0422 -0.0895
13252W        W29513   5.291   4.196   2.761 -0.0985  0.0463  0.2863
13253W        W29514  14.630  16.923  11.120 -0.1787  0.0682 -0.0288
13254W        W29515   8.552  19.260   0.732 -0.2079 -0.0868  0.1722
13255W        W29516  14.394  11.696  14.801  0.0373  0.0561  0.2744
13256W        W29517   9.847   9.676  14.081 -0.0613  0.2750  0.0971
13257W        W29518   1.833  13.787  13.637 -0.1397 -0.1437 -0.1305
13258W        W29519  10.345   7.220   1.105  0.1091 -0.1631 -0.2787
13259W        W29520  10.399  11.236  10.578  0.0615  0.0593 -0.0535
13260W        W29521   1.167   4.726  10.128 -0.0424 -0.0161  0.1016
13261W        W29522   9.350   2.154   0.426  0.6244 -0.2343 -0.0761
13262W        W29523  16.339   1.295   3.418 -0.1509 -0.0239  0.5001
13263W        W29524   6.793   1.840   1.270 -0.1572 -0.2330 -0.6188
13264W        W29525   9.621  11.909  13.883  0.1643 -0.1908 -0.1137
13265W        W29526  10.712  12.137  12.618 -0.2763  0.0395  0.0264
13266W        W29527  18.698   8.058   4.866 -0.0934 -0.1669 -0.0866
13267W        W29528  17.922   5.349   2.651  0.0099  0.0246  0.0648
13268W        W29529  18.372   1.116  14.222  0.3056 -0.0910 -0.1432
13269W        W29530   7.603   1.504   2.816  0.2326 -0.4231  0.2666
13270W        W29531   8.901  16.879   0.946 -0.2364 -0.5449 -0.0481
13271W        W29532  18.109   4.243   1.458  0.0283 -0.1831 -0.0298
13272W        W29533   8.484   6.475   3.313 -0.0516  0.0082  0.2344
13273W        W29534  17.248   6.085  10.896 -0.0929  0.1364 -0.1708
13274W        W29535  11.323  15.951   2.473  0.0130 -0.1555 -0.2096
13275W        W29536  14.674   3.256   2.519  0.2054  0.0861 -0.0448
13276W        W29537   1.939  19.445  14.774 -0.0152 -0.0222 -0.0381
13277W        W29538  11.093  19.015  10.965  0.2696  0.0612  0.0443
13278W        W29539  12.464  14.389   3.649 -0.0879 -0.1336 -0.1157
13279W        W29540   2.165   9.710   9.638 -0.1728  0.2808  0.0100
13280W        W29541   2.543   7.026  13.789  0.0565  0.1642  0.0513
13281W        W29542   9.791  15.566   2.916 -0.0921  0.0630 -0.3585
13282W        W29543  18.276   3.180  11.688  0.2229 -0.0277  0.0893
13283W        W29544   6.125  17.905   0.744 -0.1996  0.1883  0.1700
13284W        W29545  15.831   5.220   4.919  0.1107  0.2727  0.3735
13285W        W29546   4.429   5.096   4.479  0.1353  0.2445 -0.1779
13286W        W29547  10.390   9.052  11.172  0.0386  0.3875  0.1248
13287W        W29548   5.160   9.850  13.765 -0.2652  0.0456 -0.2785
13288W        W29549   3.179   4.123  14.646  0.2537  0.2094  0.0319
13289W        W29550   0.267   2.353   3.776  0.0443 -0.1120  0.1960
13290W        W29551   1.420   8.188  13.364 -0.2042  0.1536 -0.1912
13291W        W29552  15.332   5.243   4.859  0.2600 -0.0990  0.1551
13292W        W29553  12.340   9.305  14.487  0.1619 -0.1356 -0.2560
13293W        W29554   0.066   6.752   0.203 -0.2052  0.0766 -0.2140
13294W        W29555   5.326   8.776  12.154 -0.2289 -0.0687 -0.3548
13295W        W29556  15.874   5.726   0.818  0.0945 -0.0942 -0.0711
13296W        W29557  12.781   1.868  12.951  0.2227  0.0700 -0.1391
13297W        W29558  16.656   1.965   4.572  0.0500  0.3724 -0.3176
13298W        W29559  18.457   5.666  11.040  0.1771  0.2397  0.1032
13299W        W29560   2.321  18.124  12.480 -0.0679 -0.0731 -0.0626
13300W        W29561   1.591   5.928   3.998  0.0221 -0.0492  0.2143
13301W        W29562   1.540   2.256   0.255  0.1963 -0.1213 -0.2200
13302W        W29563  15.805   2.437   3.110  0.1298 -0.1957  0.0122
13303W        W29564  10.161   5.115  13.943  0.0469  0.0048  0.2556
13304W        W29565   9.802   7.606  11.050  0.0262 -0.3753 -0.1528
13305W        W29566  13.619  15.185   0.352 -0.3778  0.2188 -0.1187
13306W        W29567  10.389   1.773  14.807  0.2480 -0.0216  0.0323
13307W        W29568   1.553  13.922   9.604 -0.0991  0.0418 -0.2106
13308W        W29569  14.348   2.321  12.739 -0.1319  0.2954  0.2827
13309W        W29570  15.676   4.237  12.950 -0.1889  0.1257  0.4276
13310W        W29571  13.726   6.332  13.900 -0.0076 -0.0994  0.1760
13311W        W29572   6.627   6.305  14.106  0.2239 -0.0658  0.1876
13312W        W29573  16.670  15.688  12.839  0.1745  0.3578  0.1751
13313W        W29574  16.159   5.116  11.153  0.0501 -0.1711  0.1978
13314W        W29575  15.510   4.250   0.112 -0.1256  0.1005 -0.1542
13315W        W29576   6.438   9.799   3.370 -0.0296 -0.4458  0.0562
13316W        W29577   6.395  14.140   4.577  0.1555 -0.3013  0.2058
13317W        W29578   2.398  11.769   0.299  0.1153 -0.0038 -0.0240
13318W        W29579  18.714   3.779   9.795  0.0831 -0.0675 -0.3084
13319W        W29580   1.737  13.391   3.160 -0.0667 -0.1524  0.0637
13320W        W29581  13.032   3.290   4.045 -0.2345 -0.0555  0.0253
13321W        W29582  13.143  18.800   3.788  0.0392  0.0451  0.0369
13322W        W29583   9.774   6.076  10.469  0.1456 -0.0071  0.0042
13323W        W29584  14.756  14.899   4.397  0.0523 -0.0139  0.0758
13324W        W29585  17.236   6.146  13.011  0.0281  0.2685 -0.5213
13325W        W29586  16.581  15.593  11.744  0.1527 -0.1683  0.0703
13326W        W29587   5.740   7.464   4.161 -0.2102 -0.1894  0.1157
13327W        W29588  14.972  13.804   5.935 -0.1107 -0.0795  0.0981
13328W        W29589  16.841  17.143   2.378  0.0264  0.0296 -0.4092
13329W        W29590  10.132  18.573  13.308  0.0846 -0.5812  0.0766
13330W        W29591   5.136   6.050  12.568  0.1912  0.2382  0.2783
13331W        W29592  13.208   6.197  10.491  0.1323 -0.0684 -0.0115
13332W        W29593  10.709   4.944   1.862  0.0827 -0.1310  0.1350
13333W        W29594   6.150   6.472   1.480 -0.1450  0.2673  0.2134
13334W        W29595  16.134   2.664  12.568 -0.1439  0.3691  0.2754
13335W        W29596  14.603   0.136   3.653 -0.0987 -0.4092  0.0866
13336W        W29597  11.437  14.363  11.069 -0.3057 -0.1381 -0.0471
13337W        W29598  10.345  16.505   0.483  0.1310  0.3238  0.1785
13338W        W29599  14.659  11.278   3.965  0.1156  0.2184 -0.1243
13339W        W29600   2.776   5.348  14.811  0.2612  0.3333 -0.3633
13340W        W29601   0.439   0.938   3.232  0.0693 -0.0698 -0.0464
13341W        W29602   0.280   6.596   4.331 -0.0383  0.0923  0.1511
13342W        W29603  13.792  18.304  11.076  0.0885  0.0215 -0.1792
13343W        W29604   0.351  19.341   3.291  0.1109  0.4569  0.3153
13344W        W29605   5.525  15.834   1.679  0.0051 -0.2227  0.1528
13345W        W29606  16.473   1.380  12.170 -0.3264  0.0962 -0.5197
13346W        W29607   5.645  10.539   2.927  0.0922  0.2145 -0.1318
13347W        W29608   2.994  11.852   1.178  0.1328  0.2613  0.3397
13348W        W29609  15.948  11.836  10.627 -0.1001  0.1416  0.0003
13349W        W29610  14.837   0.325   4.743 -0.1761 -0.0245  0.3162
13350W        W29611  16.824  15.188  11.904 -0.0163 -0.0150 -0.1158
13351W        W29612   0.744   0.192  14.060  0.0355  0.2023 -0.1094
13352W        W29613  15.840  18.751   0.249  0.3165 -0.1203 -0.1095
13353W        W29614   3.924   3.530  12.630  0.0939 -0.4966  0.0672
13354W        W29615  19.042   4.082   1.715 -0.5033 -0.1224  0.1081
13355W        W29616   1.189  18.777   0.049 -0.0997 -0.0346  0.1446
13356W        W29617  18.785  16.824   4.428 -0.0085  0.2116  0.0534
13357W        W29618   4.049  15.139  12.274  0.0057  0.0165 -0.1300
13358W        W29619   8.077   6.538  12.408  0.1929 -0.0396 -0.0201
13359W        W29620  13.761  12.419   5.823 -0.2001 -0.0195  0.0476
13360W        W29621  10.724   6.635  10.489 -0.0870 -0.0008  0.1965
13361W        W29622   2.855  14.089   3.312  0.0512  0.0260  0.0709
13362W        W29623  17.341   8.049   0.176  0.3631  0.1756 -0.0226
13363W        W29624   7.361  19.458  14.441  0.0341 -0.1080  0.0269
13364W        W29625  14.498  11.477   2.964  0.0559 -0.0158  0.1632
13365W        W29626   2.551   7.905   1.039  0.0802  0.0423 -0.3512
13366W        W29627  17.809   6.984   5.516  0.2714 -0.2043 -0.3890
13367W        W29628  14.931  11.765   3.861  0.2758  0.2145 -0.0720
13368W        W29629   4.310  10.565  12.574  0.1532  0.0445 -0.0642
13369W        W29630  16.142   5.268  12.529  0.1665  0.1045 -0.2598
13370W        W29631  18.545  11.328  11.078  0.0911  0.2491 -0.0639
13371W        W29632   3.979   8.830  13.789  0.0765 -0.2785  0.0714
13372W        W29633   2.576   4.645  11.388 -0.3228 -0.2436  0.2538
13373W        W29634   7.170  15.480   0.237  0.1247 -0.1373 -0.2081
13374W        W29635   6.013  17.359  12.766 -0.0774  0.4709 -0.2370
13375W        W29636   5.388  13.983  12.953  0.1460 -0.2677  0.3785
13376W        W29637   7.071  16.688   4.044 -0.0223 -0.1347 -0.0168
13377W        W29638   1.719  10.353   3.261  0.2943 -0.0821  0.2255
13378W        W29639  11.342   4.208   2.071 -0.2488 -0.0763 -0.0043
13379W        W29640   5.316  11.302  14.287 -0.0000  0.0701 -0.0980
13380W        W29641   3.861   5.163  11.438 -0.3613  0.2714  0.0437
13381W        W29642  15.527   4.460   4.409 -0.0118 -0.3030  0.0509
13382W        W29643   7.820  11.743  10.192 -0.4855 -0.1012  0.1888
13383W        W29644   4.130  14.414   0.985  0.2292  0.5569 -0.0538
13384W        W29645  13.126  12.491  11.611 -0.2668  0.1905 -0.0015
13385W        W29646  19.175   5.057   5.421 -0.2403 -0.0745  0.3669
13386W        W29647  17.076   2.177   4.190  0.1599  0.1527 -0.1183
13387W        W29648   4.473  15.649   0.018 -0.0993  0.3138  0.0697
13388W        W29649  16.112   0.549  14.603  0.3768  0.4084 -0.0849
13389W        W29650   7.005  14.802  10.173  0.2578  0.1458  0.1972
13390W        W29651  18.796   1.506   5.487 -0.1551 -0.0252  0.0838
13391W        W29652   1.346   9.661   1.972  0.1023 -0.3818 -0.2919
13392W        W29653   0.324  16.704   1.568 -0.1265  0.1074  0.1225
13393W        W29654   8.842   8.203  12.470 -0.0315 -0.0009  0.0170
13394W        W29655   0.365   0.663   1.339  0.5039  0.1677  0.0981
13395W        W29656   6.876   7.305  13.313 -0.0364  0.3022  0.1300
13396W        W29657  12.912   9.533   2.085 -0.0126  0.0790  0.1304
13397W        W29658   0.864   7.464  14.612 -0.0711 -0.2334  0.1873
13398W        W29659   9.201  10.260  10.679  0.3795  0.0542 -0.1330
13399W        W29660   9.736   5.450   9.900 -0.2455  0.3013 -0.3728
13400W        W29661   3.157  14.994  13.695  0.1659  0.4359 -0.1659
13401W        W29662  13.285  18.631  13.111 -0.0339 -0.0725  0.1306
13402W        W29663   1.660   0.829   1.637  0.0133 -0.0910 -0.3549
13403W        W29664  17.003   5.997  11.426 -0.1674 -0.0670  0.2022
13404W        W29665  19.106   8.338  13.176  0.0520 -0.1544  0.0076
13405W        W29666   5.162  18.096   0.238 -0.0031 -0.0349  0.0359
13406W        W29667   6.534   0.772  10.944 -0.1275  0.0661 -0.0807
13407W        W29668  11.216   0.403  13.608 -0.4491  0.1331  0.0254
13408W        W29669   8.595   5.098   2.320 -0.0739  0.0640  0.0359
13409W        W29670  19.149  17.607   3.015  0.0058 -0.0635 -0.1293
13410W        W29671  12.959  15.881   4.159 -0.0695  0.1625  0.0462
13411W        W29672  10.214  11.310  12.308  0.1601 -0.1318  0.1094
13412W        W29673  10.242   4.351   2.138 -0.1469 -0.0675  0.0750
13413W        W29674   2.398   9.046  11.252 -0.1717  0.2613 -0.1900
13414W        W29675  12.294  18.370  14.039  0.1401 -0.0113 -0.0688
13415W        W29676   1.527  16.801  11.784  0.0312  0.1008  0.0339
13416W        W29677  15.026   2.976   3.160 -0.1388  0.1155  0.1764
13417W        W29678   4.386   5.423  14.080  0.1982  0.2338  0.0715
13418W        W29679  10.370  17.724   3.796 -0.1634  0.3959 -0.1093
13419W        W29680   1.840  11.228   1.037 -0.1608  0.0580  0.2039
13420W        W29681  14.954  10.942  11.678  0.0720 -0.5261 -0.0714
13421W        W29682  11.506   8.838  13.342 -0.0408 -0.2287  0.1779
13422W        W29683   8.361   0.618   0.441  0.3172 -0.1537 -0.0966
13423W        W29684   6.610   0.607   3.604 -0.1527 -0.0257 -0.0845
13424W        W29685  19.053   3.020   4.374 -0.1065 -0.1793 -0.0159
13425W        W29686   5.298   3.312   5.017  0.0923  0.1979  0.1440
13426W        W29687   4.422   3.779  14.208 -0.1678  0.1457  0.2069
13427W        W29688   4.952  15.702   4.103 -0.1516  0.0231 -0.1378
13428W        W29689   3.273  17.605  13.181  0.1453  0.0571 -0.0868
13429W        W29690   5.323   9.235   4.468 -0.0295  0.0679 -0.0783
13430W        W29691  14.708  18.017   3.845  0.1413  0.1206 -0.0026
13431W        W29692   3.033   7.037  13.913 -0.2446 -0.1379  0.0888
13432W        W29693  11.588   7.895   4.135 -0.2638 -0.0606  0.0814
13433W        W29694  15.858   7.407  11.350 -0.0364  0.2139 -0.0447
13434W        W29695  11.690  17.842  14.350 -0.0903 -0.1377  0.3475
13435W        W29696   9.599  15.788   0.161 -0.2248  0.1470  0.2660
13436W        W29697   5.294   2.452  10.200  0.4459 -0.2061 -0.3947
13437W        W29698  16.003   8.407  11.796 -0.0544  0.3150 -0.2106
13438W        W29699   6.710   2.949   2.742 -0.1319 -0.2184 -0.3883
13439W        W29700   4.428  18.374   1.687 -0.1103  0.0640 -0.0706
13440W        W29701   6.739   8.581   4.128  0.0737 -0.4651  0.0168
13441W        W29702   1.584   4.961   1.308 -0.2235  0.0987  0.0001
13442W        W29703   9.638  11.371   2.590  0.0487 -0.1855 -0.0185
13443W        W29704   6.074   2.158  13.542  0.0352  0.0817 -0.2267
13444W        W29705  17.595  15.785  10.807  0.3385  0.1588 -0.0792
13445W        W29706   7.566  13.220   2.375 -0.0016 -0.1986  0.0297
13446W        W29707   6.623  10.645  11.881 -0.0593  0.0905 -0.0472
13447W        W29708   2.900   4.631  13.033 -0.0780 -0.2594  0.0219
13448W        W29709   3.415   0.564   1.274  0.2318  0.4580 -0.4474
13449W        W29710   4.797  14.550   3.502  0.0445 -0.1063  0.0370
13450W        W29711  19.067   7.365   1.732 -0.0313 -0.0448 -0.2591
13451W        W29712   8.816  13.751   2.678 -0.2146  0.3758 -0.1193
13452W        W29713  13.964   7.866   5.555 -0.1143 -0.0211  0.0174
13453W        W29714   7.088   3.753   0.216  0.1036  0.2343 -0.0943
13454W        W29715  13.975  12.920   1.937 -0.2300  0.0367  0.1254
13455W        W29716  16.560  16.819  12.485 -0.3189 -0.0103  0.2110
13456W        W29717  14.523   8.609  12.914  0.2972 -0.2711 -0.2088
13457W        W29718   3.486   5.304  12.597  0.0310 -0.0859 -0.2339
13458W        W29719  16.971   0.878  10.885 -0.1044 -0.1217  0.0102
13459W        W29720  18.952  15.074   4.816  0.1010 -0.4346 -0.2496
13460W        W29721  16.965  12.455   1.283 -0.1093 -0.0605 -0.2658
13461W        W29722  14.289   2.363   0.803 -0.0831 -0.1875  0.0066
13462W        W29723  12.270  11.766  14.016  0.1017 -0.0633 -0.0753
13463W        W29724   3.952  17.285   0.799 -0.1079 -0.0109  0.2288
13464W        W29725   0.984  19.063   1.172 -0.0518  0.0140  0.4235
13465W        W29726  16.234   1.916  10.471  0.0570 -0.0878  0.0451
13466W        W29727  15.575  15.719  10.034 -0.0329 -0.4541 -0.0490
13467W        W29728   7.457   0.091   3.019  0.1000 -0.4029 -0.0438
13468W        W29729  16.650   9.732   2.816 -0.0783 -0.2619 -0.2191
13469W        W29730   3.940  10.125   0.754 -0.0103  0.2765 -0.1549
13470W        W29731  16.423  13.004   3.977  0.3593  0.3594 -0.2546
13471W        W29732   0.848  12.368   0.805 -0.0290  0.2565  0.2953
13472W        W29733  10.548  11.586  14.761  0.0254 -0.0816 -0.1835
13473W        W29734  14.982   3.796  12.703  0.1470  0.1054 -0.2087
13474W        W29735   9.407   7.283  12.395 -0.4032  0.2189  0.2386
13475W        W29736  19.255  11.367   1.931  0.0383  0.0388 -0.3072
13476W        W29737  15.889  16.847   1.795  0.0410  0.3465 -0.0719
13477W        W29738  16.102   9.654  13.041  0.0547 -0.1039  0.1118
13478W        W29739   8.966   4.931  11.691 -0.0904  0.1488  0.1029
13479W        W29740   5.047   0.877  14.273 -0.0649  0.2227  0.1137
13480W        W29741  16.254  12.098  12.281 -0.2843  0.1677 -0.2185
13481W        W29742   2.769   2.693  10.206  0.3167 -0.0988  0.0786
13482W        W29743   4.271   9.393   5.829 -0.1382 -0.0206 -0.1364
13483W        W29744   4.658   6.867   3.426 -0.0534 -0.0924  0.0072
13484W        W29745   5.363  14.464   4.511  0.1207  0.2364 -0.2827
13485W        W29746   5.951   0.993  13.835 -0.3704 -0.0254 -0.0706
13486W        W29747   9.463   2.444  10.552 -0.0635  0.4101  0.1939
13487W        W29748   2.967  19.085   1.004  0.3814  0.0306  0.1592
13488W        W29749  13.529  12.814  11.605  0.2874 -0.2542  0.2531
13489W        W29750  14.815  17.299  13.230 -0.0907  0.4385  0.1453
13490W        W29751   8.964  15.666   3.125  0.2073 -0.0251  0.1089
13491W        W29752   4.369   6.278  10.748 -0.0946 -0.0857 -0.0183
13492W        W29753  10.902   3.103  13.716 -0.1718  0.0638  0.1879
13493W        W29754   2.471   8.984  13.166 -0.3229  0.1804  0.0125
13494W        W29755  14.999   6.062  11.655  0.0376 -0.1051  0.0374
13495W        W29756   8.596   9.205  12.933  0.3330 -0.0978  0.2183
13496W        W29757   4.796  18.373   1.322  0.3479  0.0785 -0.2278
13497W        W29758  16.107   6.579  12.606  0.2828 -0.0076 -0.0657
13498W        W29759  13.155   7.748   3.532  0.1848 -0.3318 -0.0417
13499W        W29760  18.209  18.604   1.570 -0.0372 -0.1788  0.0452
13500W        W29761  13.807   8.229   3.434 -0.3143 -0.2898 -0.0277
13501W        W29762  14.937  11.279  14.021  0.1861 -0.0106  0.2488
13502W        W29763  14.286  16.216   4.407  0.0501 -0.0159 -0.1591
13503W        W29764  15.816  19.406   1.843  0.1932 -0.2152  0.1704
13504W        W29765   9.756  10.987   3.520 -0.1643  0.0389  0.2158
13505W        W29766  15.471  17.870   0.674 -0.2332 -0.2798  0.0769
13506W        W29767   6.661   9.933  13.504 -0.2506  0.0401 -0.2707
13507W        W29768   1.396   7.843   4.412 -0.0314 -0.1800 -0.1479
13508W        W29769  18.270   9.690   3.432 -0.5304  0.0048 -0.0742
13509W        W29770  17.559   6.221  14.308 -0.2490  0.1304 -0.1806
13510W        W29771   4.986   6.939  12.905 -0.1919  0.1052  0.1383
13511W        W29772   7.475  19.424  11.332 -0.1608 -0.1625  0.1121
13512W        W29773   6.660   6.431   1.264  0.3965 -0.2671 -0.1444
13513W        W29774   1.017  11.173   4.660  0.2925  0.3089 -0.0612
13514W        W29775  11.739  12.202   0.388  0.1992  0.1849 -0.1512
13515W        W29776  17.282   3.244  10.506  0.1241  0.0633  0.2431
13516W        W29777  19.133  11.628   3.751 -0.1184  0.1194  0.1974
13517W        W29778   1.149  18.866   3.152 -0.1316  0.1912 -0.0414
13518W        W29779   2.638   2.130  12.734  0.2899  0.2950  0.2066
13519W        W29780  17.938   3.548  10.992  0.1474  0.2242  0.2790
13520W        W29781  18.615  14.925  10.672 -0.3476 -0.0419 -0.0444
13521W        W29782   2.773   2.723   4.485 -0.5188 -0.2331 -0.0661
13522W        W29783   4.374  17.958   4.240  0.1653  0.4086 -0.2110
13523W        W29784  12.543  11.882  11.143  0.2353 -0.1889 -0.0234
13524W        W29785  19.138   0.067   5.510  0.1808  0.1960  0.3083
13525W        W29786   5.946  17.578   1.667  0.0573  0.0690  0.1772
13526W        W29787   6.901   3.518  11.602  0.1386 -0.0746  0.0098
13527W        W29788   2.197   5.769  14.316  0.0385 -0.0080  0.1717
13528W        W29789   5.777  11.094  13.282  0.1667  0.4406 -0.1665
13529W        W29790   0.760  11.604  10.897 -0.2241  0.0210  0.2300
13530W        W29791  17.821   8.946   3.034 -0.0148 -0.2358 -0.2193
13531W        W29792   7.294  19.038   3.048 -0.1569  0.1755 -0.4337
13532W        W29793  10.491  15.843  13.174 -0.1426  0.0600  0.2403
13533W        W29794   3.039  17.023   2.428  0.1905  0.3023 -0.0256
13534W        W29795   1.458  16.082   5.600 -0.0853  0.0391 -0.0522
13535W        W29796   9.541  14.695   4.817 -0.2181 -0.1992  0.0755
13536W        W29797   8.165   0.188   0.113  0.6957  0.0575 -0.0355
13537W        W29798   0.938  14.170   5.355  0.1680 -0.1451 -0.4185
13538W        W29799  14.270   2.316   2.244 -0.0493  0.1746 -0.0608
13539W        W29800   8.042  12.643  10.167 -0.0347  0.0111  0.2955
13540W        W29801   6.674  12.713   2.397  0.0654  0.0097 -0.0714
13541W        W29802  12.140   6.975   5.258  0.0253  0.0519 -0.0873
13542W        W29803  10.159   3.347  13.846  0.1289 -0.4718 -0.1224
13543W        W29804   8.135   5.764  11.029  0.0686 -0.2316 -0.1084
13544W        W29805  19.223  10.586   0.308 -0.3569  0.1119 -0.0158
13545W        W29806  11.651   4.228   0.188  0.2155  0.0737 -0.7432
13546W        W29807   5.636   1.120   4.592  0.0870  0.0503 -0.0237
13547W        W29808  15.394  17.635   4.532  0.0145  0.1398 -0.0959
13548W        W29809   9.149  18.727  10.669 -0.2517  0.2489  0.0326
13549W        W29810   7.332  18.533  12.360 -0.2210 -0.0576  0.0855
13550W        W29811  18.807   0.424  11.797  0.2324 -0.2929  0.1086
13551W        W29812   4.575   5.161   2.126  0.5751  0.0112 -0.3241
13552W        W29813  16.615  17.114   0.349 -0.0133  0.0662  0.1981
13553W        W29814  13.113   4.371   3.846 -0.2690 -0.1143 -0.1514
13554W        W29815   7.233  15.173  11.667 -0.0560 -0.0275 -0.4703
13555W        W29816  17.015  10.617  14.172 -0.2370  0.0344  0.1591
13556W        W29817  12.594  13.454   2.897  0.1797 -0.1856  0.0414
13557W        W29818  16.920   0.318  13.526 -0.1713 -0.1026  0.0138
13558W        W29819  15.170  14.018   2.941 -0.3910  0.1388 -0.1073
13559W        W29820   8.092   5.012   2.066  0.6293 -0.0413  0.4653
13560W        W29821  17.045  18.051   1.070 -0.0985 -0.1845 -0.2431
13561W        W29822  10.222  14.326   2.876 -0.0969  0.2883  0.0284
13562W        W29823  16.839   0.630   1.135  0.0369  0.3683  0.0804
13563W        W29824  13.014   2.834   0.507 -0.1060 -0.0458 -0.2433
13564W        W29825  12.006  12.923   1.506  0.2290  0.1848  0.0921
13565W        W29826  12.849   1.706   0.696  0.1353  0.3587 -0.0482
13566W        W29827  18.477   0.417   3.332 -0.3181 -0.1782  0.0425
13567W        W29828  10.844  14.785   3.021 -0.5615 -0.1370 -0.2394
13568W        W29829  17.410   5.119  12.976 -0.2955  0.2448  0.1753
13569W        W29830   1.997   5.442  13.432  0.0494 -0.0447 -0.3561
13570W        W29831  17.836  16.849  14.727 -0.2387  0.1434  0.2711
13571W        W29832  18.479   6.383  10.266 -0.2933  0.1057  0.1533
13572W        W29833  17.471  13.168   1.020  0.1631 -0.3120  0.1718
13573W        W29834  11.965  14.915  11.693  0.2442 -0.1188  0.2097
13574W        W29835  10.735  12.887  12.060 -0.0245 -0.0132 -0.2280
13575W        W29836   6.079   2.157   0.598 -0.0278  0.1593  0.1763
13576W        W29837   9.368   4.310  12.272 -0.4175 -0.4144  0.1913
13577W        W29838   0.533   4.433   1.998  0.2403  0.5214  0.0232
13578W        W29839  12.897  17.464   5.458  0.3445  0.1666  0.0515
13579W        W29840  13.216  10.023   2.712 -0.2353  0.2220 -0.3194
13580W        W29841  18.445   4.517   0.518 -0.1271  0.0056 -0.2530
13581W        W29842   7.289   1.508   0.469  0.1209 -0.1899 -0.1502
13582W        W29843  16.111  15.212  14.731  0.1312  0.1726 -0.0678
13583W        W29844  18.672   3.344   4.450 -0.1368 -0.4115  0.0121
13584W        W29845  11.869   1.774   3.006 -0.0544  0.0411  0.0522
13585W        W29846   2.807  12.682   0.677 -0.1686 -0.2184  0.1536
13586W        W29847   5.500  12.276  14.387 -0.0509 -0.3301 -0.1949
13587W        W29848  19.419  11.498  14.501 -0.2424 -0.2053  0.0179
13588W        W29849  13.360  11.651  11.129  0.3598  0.3162  0.2866
13589W        W29850   1.093  10.463   2.210  0.3343 -0.0502  0.0411
13590W        W29851   0.916   5.478  14.137  0.3032  0.1197  0.1366
13591W        W29852  13.022  15.727  14.641  0.1338 -0.0341  0.0554
13592W        W29853  18.752   9.788   3.713  0.2154 -0.2402 -0.1109
13593W        W29854   0.679  12.900   0.039 -0.0569 -0.2777  0.1176
13594W        W29855   3.396  17.559   1.797 -0.3184  0.0694 -0.2903
13595W        W29856   1.488  16.548   3.062 -0.2615  0.0460 -0.0527
13596W        W29857   5.564  12.880  13.795  0.0808 -0.0046 -0.0249
13597W        W29858   1.633  16.514   2.518 -0.1339  0.2882 -0.1036
13598W        W29859  10.457  10.225   4.562  0.0397 -0.0335 -0.0651
13599W        W29860  10.778  19.348   3.733  0.0527 -0.0372 -0.2372
13600W        W29861  13.067   1.482  12.915  0.3672  0.0559 -0.0802
13601W        W29862   1.074   7.174   2.367  0.2598 -0.1454  0.1483
13602W        W29863  16.793  11.269  12.654  0.1164  0.1252  0.3609
13603W        W29864   4.865   6.102  11.084 -0.4700 -0.3670  0.0217
13604W        W29865   9.409  10.610   3.296  0.0315 -0.1838 -0.3517
13605W        W29866   8.127   0.068  14.423  0.0025 -0.2571  0.3574
13606W        W29867   7.574   1.195  10.259 -0.2383  0.0071  0.1382
13607W        W29868   2.215  19.302  13.127  0.0334 -0.2306  0.0972
13608W        W29869   9.076   7.229   0.336 -0.0554  0.0587  0.2611
13609W        W29870  12.175  12.955  13.670  0.1643  0.1060 -0.0852
13610W        W29871  13.867   1.632  13.209  0.1389 -0.3406 -0.2712
13611W        W29872   6.749   8.214  13.385 -0.3491 -0.0335  0.1687
13612W        W29873  11.562   1.720  12.452 -0.1004 -0.1940  0.2143
13613W        W29874  15.116  10.753  10.883 -0.1090 -0.1494 -0.0435
13614W        W29875   9.058  16.034   4.129 -0.2659 -0.4004 -0.1488
13615W        W29876  10.988  16.934  12.688 -0.2647 -0.2304 -0.1004
13616W        W29877  11.485  11.447   0.997 -0.1083  0.1248  0.0954
13617W        W29878  18.872  16.419  12.082 -0.1437  0.1852 -0.0645
13618W        W29879  12.861   0.212  12.673  0.0594  0.0063 -0.0161
13619W        W29880   4.541  13.853   3.714 -0.2824  0.3130 -0.2241
13620W        W29881  17.603  16.076  12.469  0.0032  0.0682 -0.0691
13621W        W29882  18.831  18.660  11.498  0.1480 -0.0054  0.0767
13622W        W29883   1.069   0.298  12.683 -0.1137  0.0943 -0.1228
13623W        W29884   9.353   0.312  13.778 -0.0939 -0.1366 -0.0213
13624W        W29885   1.904   9.260   0.689  0.0594 -0.3390  0.2250
13625W        W29886   7.060  18.483  11.258  0.0193  0.2497 -0.2352
13626W        W29887   0.088  15.856   4.820 -0.1486  0.0879  0.0117
13627W        W29888   4.629  10.740  11.271 -0.1698 -0.0175 -0.0970
13628W        W29889  18.154  14.215  11.748 -0.0315 -0.0638 -0.0804
13629W        W29890  15.233   0.132   4.598 -0.0678 -0.0235 -0.0759
13630W        W29891   7.333   7.185   4.564  0.2542  0.1956 -0.3923
13631W        W29892   4.007  17.225   0.270  0.1054  0.1066 -0.3602
13632W        W29893   8.546  18.826   3.055  0.0221 -0.0215 -0.3006
13633W        W29894   0.683  10.790  11.400 -0.0057 -0.1161 -0.0974
13634W        W29895   2.476   1.932  10.680  0.1694  0.0486  0.2456
13635W        W29896  16.790   1.254   5.949 -0.0047 -0.1903  0.2932
13636W        W29897   1.722  17.021  10.755 -0.1727 -0.2358  0.2398
13637W        W29898  10.282  19.138   4.389  0.2089  0.1402  0.2215
13638W        W29899   6.286   9.829   9.777  0.1254 -0.0415  0.1706
13639W        W29900   5.606   4.746   0.320  0.1260  0.2426 -0.2797
13640W        W29901   4.692   2.180  12.033  0.1206  0.2089  0.1849
13641W        W29902   8.973  14.395   3.615 -0.0250 -0.0404 -0.1982
13642W        W29903   9.660   4.056   1.979 -0.1522 -0.0011  0.0392
13643W        W29904   3.767   0.745  10.370  0.1023 -0.0087 -0.1619
13644W        W29905   3.418  17.122  13.130  0.2666 -0.1568 -0.0140
13645W        W29906  17.949   1.231  11.076 -0.2936 -0.2235 -0.1187
13646W        W29907   4.826  17.694   4.683  0.0639 -0.2837 -0.2963
13647W        W29908  18.190   3.682  11.904 -0.4259  0.1010 -0.3572
13648W        W29909   5.492   1.237   9.674  0.0284  0.1575  0.1115
13649W        W29910  10.641  13.673   4.772 -0.2773 -0.4091  0.1564
13650W        W29911  10.273  13.330  13.290  0.0771  0.1690 -0.3626
13651W        W29912  13.355  14.729  11.149  0.0018  0.2848  0.1929
13652W        W29913   5.213   0.420   5.312  0.2805 -0.0930 -0.3262
13653W        W29914   3.758   1.808   2.206 -0.1087 -0.1353 -0.2012
13654W        W29915  11.156  11.923  10.257  0.0418  0.0586 -0.1710
13655W        W29916  13.158  11.246   0.460 -0.2255 -0.1740  0.2357
13656W        W29917  14.307  11.031   2.669 -0.3617 -0.0547 -0.2497
13657W        W29918  13.832   2.415   3.328  0.0508  0.2102  0.0568
13658W        W29919  17.390   3.098  13.327 -0.2634 -0.0977 -0.1144
13659W        W29920  18.650  14.476   1.522  0.1185 -0.1611 -0.2119
13660W        W29921   5.971  11.537  12.539  0.1311 -0.3427  0.2075
13661W        W29922   8.498  12.711   4.568 -0.0794 -0.0064 -0.0791
13662W        W29923  13.482  11.771  12.236 -0.0842 -0.2769  0.3003
13663W        W29924  15.030   6.514  11.458 -0.3321 -0.0796 -0.1746
13664W        W29925  16.156  16.093  11.182 -0.0895 -0.2401 -0.0456
13665W        W29926   6.580  17.069   0.601  0.2424 -0.1756 -0.1474
13666W        W29927   0.963   7.113  14.232 -0.1511 -0.2830 -0.3407
13667W        W29928  12.406   1.080   0.193  0.0496  0.0110 -0.0080
13668W        W29929   4.221  17.984  12.493 -0.2489 -0.1582  0.0594
13669W        W29930  15.276   9.983   4.408 -0.3248 -0.0882 -0.2362
13670W        W29931  11.297  10.205   4.191  0.2434  0.1194  0.0875
13671W        W29932  12.960   2.349   4.040 -0.0618  0.0299  0.0022
13672W        W29933  17.315  18.643   5.563 -0.3049 -0.1711  0.2250
13673W        W29934  12.545  13.807   3.408 -0.2695 -0.2004 -0.1023
13674W        W29935   5.246  18.587   2.931  0.1465 -0.3932 -0.2700
13675W        W29936   1.281   9.916  13.769  0.0527  0.2852 -0.0785
13676W        W29937  12.832  18.326   3.680  0.2855 -0.1066  0.2723
13677W        W29938  10.313   8.017   2.902 -0.4122 -0.2638 -0.0803
13678W        W29939  10.002   1.765  13.417 -0.2619  0.0961  0.2007
13679W        W29940  10.055  10.354   4.813  0.2453 -0.1525  0.4278
13680W        W29941  13.385  10.008  11.605 -0.1117 -0.2460  0.0434
13681W        W29942   1.539  11.142  11.423  0.0243  0.0436 -0.1400
13682W        W29943  17.424   4.543   5.476 -0.0849  0.3519 -0.2736
13683W        W29944  17.194   6.555  12.264  0.3735 -0.2100  0.1615
13684W        W29945   1.042   6.451   3.984  0.2488 -0.1869  0.0067
13685W        W29946  16.018   9.769  11.621  0.0346  0.1180  0.2620
13686W        W29947  12.253   5.727   2.095  0.1142 -0.0142  0.1522
13687W        W29948  18.836  14.634  13.311  0.0429 -0.1100 -0.1715
13688W        W29949  19.342   6.165   2.481 -0.2182  0.1276  0.2189
13689W        W29950   0.966   6.173   1.765  0.0069 -0.0448  0.0939
13690W        W29951   6.022   6.340   3.195  0.1540  0.1738  0.1727
13691W        W29952  11.063   8.246   5.277 -0.1204 -0.0025 -0.1254
13692W        W29953  10.429  10.575   0.612 -0.0001  0.0369  0.1352
13693W        W29954   5.045   9.134  13.471 -0.2185  0.1104  0.2160
13694W        W29955  18.324   7.218   4.735 -0.0019 -0.2300  0.0273
13695W        W29956   9.284   8.121  12.236 -0.2435  0.1603  0.0837
13696W        W29957  11.520   7.253   1.691 -0.1166 -0.1639 -0.3877
13697W        W29958   6.009   8.257  12.952  0.0706  0.4262  0.1552
13698W        W29959   4.331  12.535   0.338 -0.3660 -0.2378 -0.0181
13699W        W29960   7.089   0.304  10.171  0.0729 -0.1467  0.3908
13700W        W29961  10.663  19.060  13.660 -0.2012  0.0422 -0.2940
13701W        W29962   8.916  17.590   0.559 -0.2448  0.0938 -0.2098
13702W        W29963   4.190  10.949  14.561 -0.3031 -0.0343 -0.0913
13703W        W29964   0.883  18.073   4.034  0.1161  0.0589 -0.1909
13704W        W29965  16.688   9.953   9.295 -0.0422  0.3561 -0.0771
13705W        W29966  17.762  12.653   1.100  0.1835 -0.1623  0.0377
13706W        W29967   1.590   2.193  14.012 -0.1406  0.1229  0.2599
13707W        W29968  15.524   3.448   1.165 -0.1672  0.1106  0.0202
13708W        W29969  10.790  10.227   2.508 -0.3203 -0.2967  0.0261
13709W        W29970   6.708  19.396   4.421  0.0350  0.0970  0.0738
13710W        W29971  15.236  18.115   3.695  0.0269 -0.4237 -0.3426
13711W        W29972   2.124   2.544  11.887 -0.1119 -0.1686 -0.2235
13712W        W29973   8.234  14.916   0.739 -0.1311 -0.1144  0.0328
13713W        W29974  11.370   0.293   3.981 -0.1214 -0.1212 -0.1625
13714W        W29975   6.408   0.823   2.360 -0.0819 -0.1289  0.0285
13715W        W29976  16.783   9.884  12.307  0.0077  0.0260 -0.0168
13716W        W29977  14.014  18.943   2.688  0.0967 -0.2313  0.1207
13717W        W29978   6.081   9.388  13.945  0.0453 -0.1518  0.0886
13718W        W29979   4.214   3.372   1.844 -0.1756  0.2271  0.0618
13719W        W29980   5.223  11.710   2.222  0.1840 -0.1578 -0.1152
13720W        W29981  15.344  13.555  11.628 -0.0803 -0.1486  0.0756
13721W        W29982   6.526  13.771  10.736  0.3709  0.0710  0.0647
13722W        W29983  17.159   9.034   2.317  0.0516 -0.2029  0.3205
13723W        W29984   0.521   7.082  11.991 -0.2421  0.2254  0.2617
13724W        W29985  16.015   0.031  13.923 -0.0091  0.1401  0.2498
13725W        W29986  12.602  12.246  11.436 -0.0941  0.1297  0.0632
13726W        W29987  13.384   4.852   3.695  0.2833 -0.1763 -0.0284
13727W        W29988  17.692  16.173   4.187 -0.0727 -0.1001 -0.0976
13728W        W29989  12.884  10.015   4.065 -0.3204 -0.0461 -0.2069
13729W        W29990  16.856   4.358   3.607  0.0991 -0.0908 -0.1881
13730W        W29991  18.574  13.759  11.062  0.2232 -0.0314 -0.0793
13731W        W29992   0.193  14.547   0.989 -0.0324  0.1800 -0.1342
13732W        W29993  17.416   9.370  13.393 -0.0169 -0.1277 -0.1561
13733W        W29994  18.659   2.920  11.493  0.1576  0.1840 -0.1093
13734W        W29995  17.369   2.733  13.019  0.0140  0.2129  0.1277
13735W        W29996  15.156  19.282   1.193 -0.0627 -0.3133 -0.0774
13736W        W29997  10.514  11.842   1.398  0.0942 -0.3627  0.1048
13737W        W29998  11.468   0.110  11.350 -0.2585 -0.0004 -0.2923
13738W        W29999   4.069   9.670  11.330  0.0580 -0.1730  0.1430
13739W        W30000   6.700   2.567   3.116  0.0771 -0.0278 -0.1202
13740W        W30001   8.533  12.659  10.697 -0.0973  0.0886  0.2953
13741W        W30002   7.424   9.678   0.478 -0.0143  0.1495 -0.1702
13742W        W30003  12.318   9.820   2.911 -0.0687 -0.3205  0.0325
13743W        W30004   4.313   5.782   3.888 -0.1103  0.0377  0.0030
13744W        W30005  16.310  15.619   1.355  0.1868  0.1558 -0.1946
13745W        W30006   8.894  13.979   2.095 -0.0521 -0.1282 -0.2056
13746W        W30007   2.200   4.417   5.122 -0.2297 -0.0161  0.0775
13747W        W30008  10.705  14.004   0.401 -0.3325 -0.5709 -0.0772
13748W        W30009   1.501  11.213   0.380 -0.0518  0.0657 -0.0305
13749W        W30010   3.464  17.413   3.596 -0.1750  0.2057 -0.1884
13750W        W30011   0.018   7.981   5.371  0.0436  0.1842  0.0772
13751W        W30012   7.873   7.236   4.529 -0.2249  0.1693 -0.0996
13752W        W30013  11.263   3.073   1.165  0.0829  0.3342  0.0841
13753W        W30014  11.473  13.745  12.009  0.0586 -0.0399  0.0356
13754W        W30015   0.804  12.827  13.598  0.0346  0.1686  0.1691
13755W        W30016  19.225   9.105  12.170 -0.2112  0.1053  0.1894
13756W        W30017  11.451  16.117  11.288  0.2336 -0.3664  0.1529
13757W        W30018  16.607  16.362  13.405  0.4961  0.0467 -0.1533
13758W        W30019  10.030   5.976   2.454 -0.0222  0.1331 -0.0206
13759W        W30020   9.499  15.837   4.754  0.0003  0.2038 -0.1179
13760W        W30021  17.247   1.799   5.309  0.0306 -0.2267  0.1705
13761W        W30022  17.769  12.669  13.990 -0.0220 -0.0121  0.1069
13762W        W30023  17.068   1.651   4.451  0.1315 -0.3576  0.1224
13763W        W30024  15.125   9.414   1.458 -0.1291  0.0047 -0.1727
13764W        W30025   0.887   4.962  13.951  0.3365  0.1565 -0.1523
13765W        W30026  14.302   0.138  10.410 -0.1711 -0.1981 -0.1730
13766W        W30027   5.111   3.813   3.126  0.2690 -0.1850  0.1860
13767W        W30028  18.688  11.903   2.696 -0.2639 -0.1148  0.2966
13768W        W30029   0.029  10.529  14.706 -0.4657  0.0533  0.1391
13769W        W30030  16.724  18.950  12.188  0.1920 -0.0875  0.1623
13770W        W30031   1.706   6.396  11.382 -0.2078 -0.2431 -0.2610
13771W        W30032  15.817   2.628   2.150 -0.1346 -0.1739 -0.1538
13772W        W30033   3.918   8.792   0.970 -0.2173  0.1084 -0.2770
13773W        W30034   0.147   0.859  11.335  0.1413  0.0556  0.2816
13774W        W30035  10.577   2.232  14.090 -0.0484  0.0652 -0.1221
13775W        W30036   2.197   4.015   2.949  0.0383 -0.0807  0.3073
13776W        W30037   6.991   8.753  12.003 -0.1632 -0.0956 -0.1432
13777W        W30038   8.154  10.828   4.676  0.2248 -0.3174 -0.1820
13778W        W30039   8.870   2.211   9.146  0.0693 -0.1533 -0.0552
13779W        W30040  17.931  13.041   3.250 -0.1557  0.0591  0.1737
13780W        W30041  14.867   8.443   0.921  0.2287 -0.0230 -0.1323
13781W        W30042  11.907   4.897  13.396  0.2461 -0.1080 -0.0980
13782W        W30043   0.746   7.118  10.921 -0.2286 -0.0104 -0.0831
13783W        W30044  16.919  18.973  12.742  0.1019 -0.3504  0.1185
13784W        W30045  15.381   9.288  10.576 -0.1325  0.1864 -0.0206
13785W        W30046  14.489   5.356   3.752  0.2699 -0.1541 -0.0075
13786W        W30047   5.454   5.410  11.889  0.1175 -0.1187 -0.2253
13787W        W30048  17.746  18.829  14.811 -0.1169 -0.1314 -0.1827
13788W        W30049   5.747   7.588  11.461  0.0433 -0.2778 -0.0186
13789W        W30050   1.893   9.844  13.397 -0.2255 -0.2094 -0.1566
13790W        W30051   8.669  12.608  12.873  0.1941 -0.3440 -0.2538
13791W        W30052  10.837  11.793   4.393 -0.0861  0.0704 -0.1884
13792W        W30053   5.190  18.061  10.530  0.3997  0.2154 -0.0360
13793W        W30054   1.431   4.083   4.192  0.4136  0.2849 -0.2714
13794W        W30055   5.677  14.004  12.523 -0.2408  0.0514  0.0904
13795W        W30056  16.395   4.862  12.557 -0.2568  0.1835 -0.0992
13796W        W30057  17.645  13.200   0.011  0.0959  0.0588 -0.4938
13797W        W30058   6.973   7.978  10.314 -0.0877  0.4776 -0.2752
13798W        W30059  19.056   0.454   2.554  0.0532 -0.1894 -0.0742
13799W        W30060  13.053   1.514  11.361 -0.0882  0.1688  0.2409
13800W        W30061   6.133   7.133  10.655 -0.1099 -0.3282  0.2647
13801W        W30062  18.763   6.473  13.920 -0.1352  0.2736 -0.1270
13802W        W30063   3.704  15.438  12.752  0.0201 -0.3567  0.0340
13803W        W30064   9.217  17.687  11.046 -0.0145 -0.0345  0.0598
13804W        W30065  10.389   1.277   4.280 -0.1419  0.1740  0.3507
13805W        W30066  13.129  16.951   1.795  0.0663  0.0448 -0.0776
13806W        W30067  14.733   9.096   1.647 -0.2044 -0.0017 -0.0304
13807W        W30068   1.753   8.063  13.732 -0.1939  0.0891 -0.0845
13808W        W30069   4.260   2.920  14.692 -0.1752  0.3326 -0.2197
13809W        W30070  14.274   1.918  10.737 -0.1376  0.1948 -0.4247
13810W        W30071   5.339   9.026   5.191 -0.2586 -0.2110 -0.2267
13811W        W30072   2.313  18.247  13.971  0.0666  0.1119 -0.2950
13812W        W30073   5.333   6.814  10.943 -0.3505  0.1544 -0.4335
13813W        W30074   3.187   3.434   5.352  0.0734 -0.3173  0.0836
13814W        W30075  16.492   9.525   4.228  0.1054 -0.2786  0.0014
13815W        W30076  14.613  15.023   1.905 -0.0312 -0.0730 -0.0071
13816W        W30077  14.245  17.844  12.449  0.0614  0.0229 -0.2301
13817W        W30078  18.840  15.858  13.947 -0.2864  0.0044 -0.0637
13818W        W30079  17.931   4.161   0.618  0.0188 -0.3466 -0.0858
13819W        W30080  10.604   5.799  12.188  0.0216  0.1512  0.0345
13820W        W30081  10.242   3.968  11.894 -0.1767  0.0571  0.1219
13821W        W30082   7.741   8.099   4.303  0.1105  0.1272  0.2103
13822W        W30083  17.324   5.087  14.740  0.0871  0.2247  0.0454
13823W        W30084   9.710  11.746   0.193  0.1742 -0.4461 -0.0164
13824W        W30085   6.933   8.025   2.014 -0.1056 -0.2267 -0.3259
13825W        W30086   8.357   2.247  14.812 -0.2362  0.0823 -0.0583
13826W        W30087  19.085  14.418  10.807 -0.0706 -0.0685 -0.3748
13827W        W30088   3.877   6.595  11.732  0.0135 -0.3876  0.1949
13828W        W30089  11.660   3.449   9.142  0.1409 -0.2337 -0.1233
13829W        W30090  16.010  10.836   0.426  0.2026 -0.1590 -0.1512
13830W        W30091   4.483   7.730  12.571 -0.0361  0.0136  0.0127
13831W        W30092   7.112  17.002   4.573 -0.2447  0.3917  0.0878
13832W        W30093  17.826  18.023  13.641  0.3484  0.0062  0.1332
13833W        W30094  10.913   8.966   1.496 -0.0791  0.0752  0.2465
13834W        W30095  15.413   7.972  10.620  0.2289 -0.5213  0.1214
13835W        W30096   9.550  15.138  13.292  0.0594  0.1415 -0.2781
13836W        W30097   1.243  12.630  13.031 -0.0667  0.0311  0.3304
13837W        W30098  12.329   5.990   0.241  0.1454  0.0084 -0.0920
13838W        W30099  18.360   0.635  14.262  0.6313  0.1744 -0.0297
13839W        W30100  19.310   6.275   4.271 -0.0833 -0.3452  0.1752
13840W        W30101   3.788  18.256  13.471 -0.0099 -0.1445 -0.2879
13841W        W30102  10.651   4.181   5.280 -0.0282 -0.0727 -0.5453
13842W        W30103  18.831  12.406   3.050 -0.0777  0.2144 -0.4636
13843W        W30104  13.196  16.843   3.695  0.6490 -0.1065 -0.3089
13844W        W30105   5.179  15.382  13.491 -0.0276 -0.2503 -0.0045
13845W        W30106  14.831   8.729   3.650  0.2936 -0.3572 -0.1723
13846W        W30107  16.887  16.822   1.129 -0.1709 -0.0297  0.0467
13847W        W30108   0.624   1.954   2.927 -0.2603  0.1491  0.2852
13848W        W30109   2.993  17.195  12.285 -0.2089 -0.1397 -0.2766
13849W        W30110   6.329   9.804  11.294  0.1798 -0.4576  0.1896
13850W        W30111   5.242   7.097   0.333  0.2495  0.0445 -0.1731
13851W        W30112  11.515  14.607   5.168  0.0371 -0.1274 -0.0449
13852W        W30113  14.133   1.865  11.331  0.0526  0.1666 -0.3755
13853W        W30114  12.634  10.811  11.676 -0.0815 -0.0835 -0.1549
13854W        W30115   0.927   5.943  12.852 -0.0407  0.0011 -0.0603
13855W        W30116  13.790  17.929  12.280  0.3225  0.0073 -0.0901
13856W        W30117   9.404   7.897   3.133  0.3888  0.1408  0.0226
13857W        W30118   6.779   2.323  13.402 -0.0381 -0.2350 -0.0955
13858W        W30119  13.804  17.534   5.511  0.0093  0.0828 -0.2112
13859W        W30120  13.649   1.577   2.272  0.0832 -0.2657 -0.0623
13860W        W30121   1.438   5.324  13.887  0.1738  0.3277 -0.2259
13861W        W30122   7.062   2.509   2.735  0.2044 -0.0285 -0.0796
13862W        W30123  19.480  13.003   0.569 -0.2667  0.4570 -0.1030
13863W        W30124  14.224  13.278  11.522  0.2395 -0.2617 -0.4283
13864W        W30125   6.854  14.837   4.376  0.0667  0.1988 -0.0277
13865W        W30126   3.691   8.399  14.639  0.2633  0.2422  0.2564
13866W        W30127   4.495   0.194   2.724 -0.0566  0.1749 -0.2177
13867W        W30128   2.430  18.315  10.299 -0.1222 -0.0639 -0.1097
13868W        W30129   7.758   0.526  14.338  0.3742  0.4408  0.1745
13869W        W30130  10.837   3.799   3.338 -0.4196 -0.1247 -0.1542
13870W        W30131   7.323   4.234   0.194  0.1000  0.1524  0.0950
13871W        W30132  13.697   4.023  10.054  0.1640  0.0007 -0.2191
13872W        W30133  14.787   5.624  13.606  0.1577 -0.1650  0.0647
13873W        W30134   9.412   8.798   8.908  0.2931  0.0658  0.1914
13874W        W30135   6.645  10.641   3.014 -0.0734  0.1706  0.0782
13875W        W30136   4.842  12.920  11.804  0.0168 -0.0031  0.2989
13876W        W30137   7.779   8.221  11.773 -0.1542 -0.2115  0.0601
13877W        W30138   7.328  13.567  11.068 -0.2819  0.2759 -0.2186
13878W        W30139   6.582  16.842   5.567 -0.3557 -0.3682 -0.4225
13879W        W30140   1.777  14.763  13.553  0.1516 -0.3024  0.1351
13880W        W30141  12.688  16.579   3.746  0.1306  0.0200  0.1954
13881W        W30142  17.126   1.836  12.662  0.0407  0.1191 -0.1677
13882W        W30143   9.866   0.213  11.580 -0.0616  0.3061 -0.2499
13883W        W30144  11.845   8.379  12.683  0.0340 -0.0915  0.3326
13884W        W30145   4.054  15.390  13.665  0.1326 -0.0592 -0.3566
13885W        W30146   7.476   0.758   3.859 -0.0278 -0.0017 -0.0874
13886W        W30147  18.555  11.195  10.234  0.4521  0.0727  0.0946
13887W        W30148  12.216   0.727  12.264 -0.0406 -0.0568  0.0807
13888W        W30149   5.863   7.069   2.628  0.1234  0.2250  0.1217
13889W        W30150  16.410  12.390   4.201 -0.0496  0.0300  0.1877
13890W        W30151   2.044  17.814   0.667 -0.2101  0.2371  0.1817
13891W        W30152  16.601  16.681   2.384 -0.2403 -0.2057  0.0735
13892W        W30153  12.086   1.572   1.549  0.0882 -0.0848 -0.1000
13893W        W30154   8.821   8.580   1.029  0.3925 -0.3166 -0.1389
13894W        W30155   4.713   7.494   3.504  0.0366  0.3678 -0.1790
13895W        W30156  11.037  16.374  10.619 -0.4145 -0.0117 -0.0402
13896W        W30157   1.258  15.135   4.932  0.1429 -0.0787  0.0240
13897W        W30158  18.258   7.933   4.738 -0.0512  0.0740  0.1205
13898W        W30159   3.420   0.752  11.445 -0.0655 -0.0286  0.2352
13899W        W30160  12.389   4.209  10.061 -0.2881 -0.0847  0.0057
13900W        W30161  11.762  13.791  11.607  0.0971  0.3561 -0.0331
13901W        W30162  10.871   6.271  10.192 -0.0917  0.0848  0.0941
13902W        W30163   2.086  12.966   0.196  0.0406 -0.4042 -0.1422
13903W        W30164  14.629  11.500  11.141 -0.3900  0.1447 -0.2477
13904W        W30165  11.118  10.717  13.476  0.1453 -0.5270 -0.2495
13905W        W30166   9.343   3.891  13.278  0.2204  0.0498 -0.0987
13906W        W30167   9.665   1.359  10.416  0.2116  0.2525  0.0683
13907W        W30168   8.914  18.878  14.770 -0.2158  0.3511  0.0783
13908W        W30169  12.747   2.820  13.845  0.0901 -0.3202  0.0976
13909W        W30170   2.513  11.636  12.692 -0.1480 -0.2982  0.2425
13910W        W30171   5.502  17.048   2.918  0.2035  0.1117  0.1712
13911W        W30172  11.458  14.589   3.799  0.0715 -0.0035 -0.2272
13912W        W30173  13.108  15.430  10.639 -0.1853 -0.0533  0.2436
13913W        W30174   8.383  18.641  13.841 -0.2463  0.0495 -0.0230
13914W        W30175   1.794  15.650   4.352 -0.1391  0.1412 -0.1263
13915W        W30176   1.860  13.431   1.965 -0.0621  0.1547 -0.1151
13916W        W30177   0.905   8.374  10.323  0.1350  0.5867 -0.0017
13917W        W30178   7.048  16.474  14.146 -0.1173  0.3037  0.1026
13918W        W30179  10.622   1.464   1.765  0.1919  0.3629 -0.1113
13919W        W30180  18.061   4.390   3.440 -0.3980  0.1431 -0.0426
13920W        W30181   3.897  17.998  13.918 -0.1794  0.2222 -0.2196
13921W        W30182   6.362  13.511  12.764  0.1129 -0.1041  0.0283
13922W        W30183  10.214  17.491   1.668  0.3240 -0.1053  0.1142
13923W        W30184  18.086  11.970  11.491 -0.1059 -0.2261 -0.1357
13924W        W30185   6.263  17.986   1.739  0.1061 -0.0517  0.1126
13925W        W30186   5.557   6.119   1.999  0.1156 -0.3646 -0.0318
13926W        W30187   1.716  12.097   0.963  0.1732  0.4780  0.2546
13927W        W30188   9.618   5.716  14.361 -0.2048  0.2650 -0.1499
13928W        W30189   2.762  18.507  11.304 -0.2438 -0.0974  0.1887
13929W        W30190   2.802   1.091   1.209  0.1840 -0.1067 -0.1122
13930W        W30191   9.708   8.046   9.553  0.2085 -0.2431 -0.2428
13931W        W30192  15.511  12.000   5.636 -0.0265  0.1119 -0.4975
13932W        W30193   6.196  16.705  11.260 -0.2356  0.1708 -0.3898
13933W        W30194  14.088   3.910  12.213 -0.0774 -0.0401 -0.2248
13934W        W30195   7.293  10.222   4.624  0.1791  0.0740  0.2338
13935W        W30196  10.670   1.442  11.730 -0.0232 -0.1708 -0.1555
13936W        W30197  16.010  15.693   0.947 -0.1160  0.2040 -0.2790
13937W        W30198   1.957  12.987   5.711 -0.3319 -0.2740 -0.2740
13938W        W30199   2.232  12.188   1.093 -0.0825 -0.1324 -0.0542
13939W        W30200   2.795   7.892   2.784  0.0512  0.0706 -0.0391
13940W        W30201  14.288   2.359  11.388 -0.0365  0.1457  0.1583
13941W        W30202   1.838  10.178  12.525  0.0047  0.0789  0.0493
13942W        W30203  16.321  15.332  13.789 -0.1114 -0.0569  0.1184
13943W        W30204  19.440   0.986   1.822  0.3057  0.0066  0.2227
13944W        W30205  16.114  10.420   5.300 -0.1206  0.1181  0.2794
13945W        W30206   1.588   1.539   9.945 -0.1105  0.0749  0.2008
13946W        W30207   7.679   0.987  12.277  0.1752  0.2052 -0.0255
13947W        W30208  18.468  16.128   0.886  0.2633 -0.0404 -0.2691
13948W        W30209  12.814   5.189   0.419 -0.1477 -0.1751  0.1435
13949W        W30210  13.709  15.509   1.864  0.1155  0.2146  0.4325
13950W        W30211  12.374   9.628  12.010 -0.1682 -0.4315  0.2822
13951W        W30212   4.212  11.994   4.304  0.1489  0.2122 -0.2169
13952W        W30213  16.390   3.920   2.310  0.0187  0.1796 -0.0116
13953W        W30214   3.905   4.774  12.775 -0.3213 -0.0951 -0.0848
13954W        W30215  19.437   3.842   2.496 -0.1146  0.6034 -0.0850
13955W        W30216   5.452  11.401  12.438  0.0205  0.0737 -0.0077
13956W        W30217   7.965  12.979   0.083 -0.0528 -0.0191  0.0192
13957W        W30218   3.145   2.906   2.770  0.3392 -0.0968 -0.1220
13958W        W30219   8.510   4.790   4.309 -0.0007 -0.0404 -0.3196
13959W        W30220  16.933   3.040  14.129  0.2409  0.1504  0.1087
13960W        W30221  13.004  17.303   3.032 -0.1640 -0.1133 -0.3511
13961W        W30222  18.900  14.092   4.713 -0.1304  0.0218  0.2195
13962W        W30223  13.313   3.116  11.530 -0.1587  0.0589  0.3100
13963W        W30224   6.606   2.853  14.751 -0.2574 -0.0721  0.1837
13964W        W30225  13.483  15.566  11.572 -0.0091 -0.0996 -0.4462
13965W        W30226  13.028   3.228  13.851  0.0620 -0.0151 -0.2506
13966W        W30227  14.214  18.472  14.023  0.2798 -0.1714 -0.0692
13967W        W30228  13.533   2.528  13.694 -0.1573  0.0124  0.0300
13968W        W30229   9.981   8.547   0.767  0.0520  0.0521 -0.0209
13969W        W30230  14.616  15.472  13.259 -0.0574  0.0332  0.2140
13970W        W30231   7.991   4.494   1.972  0.0241 -0.1060 -0.1371
13971W        W30232  12.768  14.575  14.312  0.2691 -0.2675 -0.0360
13972W        W30233   7.398   7.466  12.565 -0.1648  0.2275 -0.0622
13973W        W30234  17.437   7.099  11.780 -0.1566  0.1964 -0.3144
13974W        W30235   0.661  17.532   4.158 -0.2939  0.2165  0.3037
13975W        W30236  12.064  11.686  11.312 -0.0845 -0.1557  0.1032
13976W        W30237   1.151   6.462  11.815  0.4993 -0.0273 -0.1664
13977W        W30238   1.764   0.008  13.940  0.5450 -0.0354 -0.3231
13978W        W30239   7.290  11.170  14.076  0.0925  0.2393  0.0956
13979W        W30240   9.637   4.070   9.617  0.0350 -0.1027 -0.1700
13980W        W30241  13.084  18.211   0.016 -0.1745 -0.0941 -0.3179
13981W        W30242   8.734  14.143  13.817 -0.1628  0.3105 -0.1273
13982W        W30243   9.687   5.230  13.177  0.1032 -0.2187  0.0712
13983W        W30244  11.384  16.707  14.564  0.1415  0.1429 -0.1429
13984W        W30245   8.427   2.331  10.929  0.0192 -0.1296 -0.1896
13985W        W30246  13.231   3.354   3.543  0.1857  0.0284 -0.0154
13986W        W30247  17.204  11.995   4.011 -0.0782  0.1477 -0.1627
13987W        W30248   9.496  11.881  12.167 -0.0794 -0.0062 -0.0202
13988W        W30249  11.796  15.888   2.504 -0.0483  0.0993 -0.1328
13989W        W30250   2.200   0.832   3.934  0.3462 -0.3105  0.0640
13990W        W30251   2.557  11.365   2.792  0.0405 -0.1660 -0.1911
13991W        W30252  15.519  12.469  14.682 -0.0437 -0.3626  0.0250
13992W        W30253  10.219   5.146   4.345  0.3375 -0.1960 -0.1810
13993W        W30254  16.012  13.767   3.632 -0.1651  0.0152  0.0217
13994W        W30255   6.052   5.937   9.915  0.3006 -0.0490 -0.1443
13995W        W30256  11.600   6.153  14.314  0.4264 -0.0448  0.0999
13996W        W30257   7.247   6.325  11.210  0.4230  0.1408  0.1958
13997W        W30258  11.594  17.960   9.546 -0.0765  0.0488 -0.1189
13998W        W30259   2.763   4.783   3.557  0.0177  0.1672 -0.6403
13999W        W30260   3.155   1.369   0.867 -0.0182 -0.0965  0.0064
14000W        W30261   6.618   5.460   0.804  0.0516  0.1037 -0.2063
14001W        W30262   3.443   2.241  14.459 -0.1016 -0.2093  0.0525
14002W        W30263  11.699   2.191  11.662 -0.0944 -0.0616 -0.0093
14003W        W30264  12.081  13.471   0.694 -0.1162 -0.1141  0.4655
14004W        W30265  11.792  10.937  11.587 -0.0755 -0.4343 -0.0602
14005W        W30266  17.400   0.385  12.368  0.0619 -0.1215  0.1729
14006W        W30267  10.556  11.343   4.490  0.0206 -0.2685 -0.0724
14007W        W30268  15.458   0.199  11.308 -0.2622  0.2559 -0.1517
14008W        W30269   1.047   1.779   3.719  0.1282  0.0824 -0.1278
14009W        W30270   2.083   6.650   4.318  0.2850 -0.0629 -0.3563
14010W        W30271  12.031   1.383  11.923  0.2720 -0.4643 -0.0112
14011W        W30272   6.027  10.595  11.564 -0.0002  0.1290 -0.3047
14012W        W30273  18.965  13.015   3.656 -0.1883 -0.3354  0.0057
14013W        W30274  17.401   1.127   2.097 -0.1627 -0.0227  0.3365
14014W        W30275  12.872  13.511   0.015 -0.0015 -0.3281 -0.0539
14015W        W30276  18.948  17.095   1.214  0.1510 -0.1096 -0.2999
14016W        W30277   5.898  13.032   4.904 -0.1252 -0.0358 -0.1034
14017W        W30278  16.138   8.511   0.322 -0.5008 -0.2149 -0.4167
14018W        W30279  18.529  16.703  13.986  0.0295 -0.0853  0.1288
14019W        W30280  12.543  10.473   0.091  0.0010 -0.2484  0.2205
14020W        W30281   8.462   1.406   5.033 -0.1824  0.2042  0.3611
14021W        W30282  12.494  12.685   6.318 -0.0117  0.0618  0.4478
14022W        W30283  15.195  13.875   0.438  0.2040  0.0460  0.0941
14023W        W30284   4.076  16.387  11.992  0.0253 -0.3797  0.0028
14024W        W30285   9.820  13.380   5.645  0.1869  0.0520  0.1903
14025W        W30286  15.240   5.675  12.259 -0.1140  0.0502 -0.0094
14026W        W30287   9.361   8.361  10.713  0.0915  0.0507 -0.4159
14027W        W30288  10.755  11.168  13.561  0.3166 -0.2222 -0.4723
14028W        W30289  17.902   7.212  12.313  0.2481  0.0328 -0.1086
14029W        W30290   1.817   4.434   1.596  0.0577  0.0791  0.0658
14030W        W30291   7.017  10.371  13.098  0.2138  0.4591  0.3030
14031W        W30292  11.162   3.625   1.145  0.0988  0.0659  0.1424
14032W        W30293  10.315   3.095   2.524  0.2294  0.0810 -0.1827
14033W        W30294   7.216   5.142  14.201  0.0979  0.0827 -0.3643
14034W        W30295  12.155  12.351   4.198 -0.1611  0.2297 -0.4075
14035W        W30296  10.232   2.179  13.640 -0.1128 -0.1949 -0.0066
14036W        W30297  11.359   6.880   1.101  0.0479  0.1505  0.1079
14037W        W30298   4.639   0.656   4.451 -0.1740 -0.0019 -0.2793
14038W        W30299   6.765  19.400   0.397 -0.2089  0.0486 -0.2194
14039W        W30300   0.599  10.872   1.539  0.0398 -0.1891 -0.0061
14040W        W30301   7.735  11.726  14.222  0.2129 -0.3384  0.5256
14041W        W30302   8.638  11.169  10.720 -0.2390 -0.3024 -0.1106
14042W        W30303   6.422  14.373   0.998  0.1151 -0.0353 -0.3477
14043W        W30304   2.020  13.581  14.089 -0.2611  0.1209 -0.2053
14044W        W30305   7.944   9.417   1.669  0.4991 -0.0216 -0.0690
14045W        W30306  19.108   1.280  14.433 -0.0397  0.1159  0.4945
14046W        W30307  11.956   8.805   0.451  0.2492 -0.1480  0.1749
14047W        W30308   1.689   0.581  13.183  0.1375 -0.0532 -0.2289
14048W        W30309   5.513  10.667  13.374 -0.0042  0.0084  0.2884
14049W        W30310  14.242  13.745   5.453  0.0633  0.4199  0.1877
14050W        W30311   2.239  13.615  10.900 -0.0693  0.0333  0.1406
14051W        W30312   0.091  12.039   1.482 -0.0272 -0.1317 -0.1001
14052W        W30313  13.313  11.855   4.666  0.0854  0.0779 -0.2097
14053W        W30314   0.281   4.571   1.530  0.1098 -0.1641  0.0772
14054W        W30315   8.069  11.753  12.464  0.2069 -0.0961  0.1807
14055W        W30316  17.993  16.170   2.531  0.1390  0.2421  0.3064
14056W        W30317  14.958   9.012  13.056  0.3172  0.2229 -0.0863
14057W        W30318  13.925  14.786  14.239  0.0503 -0.1980  0.0688
14058W        W30319   5.886   0.214  10.972 -0.1918 -0.1445  0.1422
14059W        W30320  10.631  10.305  13.466 -0.1716  0.0804 -0.0118
14060W        W30321   8.588  16.846  12.126  0.0881 -0.1432 -0.2490
14061W        W30322  12.848  16.203   0.529  0.2547  0.0525  0.2628
14062W        W30323  16.035   7.761   1.327 -0.1135 -0.0307 -0.0838
14063W        W30324   3.535  18.092   2.282 -0.1950  0.1232 -0.1796
14064W        W30325   4.791  16.198  12.360  0.1790 -0.3669 -0.3005
14065W        W30326   1.965  19.108  11.659  0.0457  0.0945  0.2539
14066W        W30327   8.724  15.522   0.521 -0.1121  0.1300  0.0441
14067W        W30328   7.315  18.400  12.858  0.0442  0.1788 -0.0652
14068W        W30329  11.961  18.083  12.626 -0.0484  0.0810  0.1356
14069W        W30330   6.264   3.127  10.850  0.1087  0.0934 -0.1499
14070W        W30331  11.629  10.295  13.856  0.3525 -0.1934 -0.2184
14071W        W30332   9.048  16.699   1.736  0.1543 -0.0876  0.1435
14072W        W30333   4.045  15.543   4.810 -0.0512  0.0327 -0.1034
14073W        W30334  11.716   9.264   0.184  0.0411  0.0185 -0.1547
14074W        W30335  11.688  17.663   4.367 -0.1675 -0.0445  0.1977
14075W        W30336   5.027  11.386   9.709  0.1697 -0.1984 -0.0348
14076W        W30337   7.091  15.831  13.653  0.3548  0.0987 -0.0784
14077W        W30338  13.675   1.401   0.013  0.1645 -0.2741 -0.0358
14078W        W30339   7.536   9.632   0.997 -0.0956  0.1558 -0.3296
14079W        W30340   3.835   8.765  12.832  0.0375  0.1179 -0.0622
14080W        W30341   5.089   5.388  14.664 -0.1890  0.1115  0.1147
14081W        W30342  13.095   4.357  11.569 -0.0364  0.3867  0.0529
14082W        W30343  12.829  11.444   0.052 -0.4464 -0.2190 -0.2056
14083W        W30344   9.640   0.054  14.804 -0.0205  0.2190 -0.3579
14084W        W30345   2.350   5.369   2.785  0.0336 -0.0899  0.0705
14085W        W30346   4.275  15.252   5.156  0.0764  0.1324 -0.1200
14086W        W30347   0.120  13.529  11.726 -0.0435 -0.0916  0.4989
14087W        W30348   7.591  13.033  13.210 -0.1890 -0.2013  0.3035
14088W        W30349   2.237  11.773   4.613 -0.1598  0.0637  0.1422
14089W        W30350  11.522   3.846   1.765 -0.3501  0.0596  0.2038
14090W        W30351  16.680   8.215  11.656 -0.0700  0.4251 -0.1614
14091W        W30352  17.987   8.543   3.367 -0.3279  0.0566  0.0129
14092W        W30353  11.778  17.393  11.662 -0.2980 -0.1813  0.0934
14093W        W30354  10.802  12.777  13.774  0.0505 -0.4074 -0.0821
14094W        W30355   5.392  15.243   5.042  0.0599 -0.2948  0.0438
14095W        W30356  13.087  10.612  10.490 -0.2912  0.2129  0.0917
14096W        W30357   2.523   3.752  13.082  0.1118  0.1262 -0.0693
14097W        W30358  10.967  15.944   1.615 -0.1045 -0.0752  0.1913
14098W        W30359   3.523   1.840  13.449 -0.2854 -0.0353  0.1436
14099W        W30360  13.612  16.979  13.530 -0.1774 -0.0481 -0.0282
14100W        W30361  11.101   8.740  12.925 -0.0467  0.2100 -0.1058
14101W        W30362   8.765  16.145  12.236 -0.2022 -0.3289  0.0605
14102W        W30363   8.892  13.739   4.820  0.3002 -0.1407  0.2445
14103W        W30364  11.333   0.679  13.171 -0.0025 -0.0264 -0.1507
14104W        W30365  13.270   4.885  12.622  0.1188 -0.0143 -0.2453
14105W        W30366   8.735   8.891  14.079 -0.0378  0.2400 -0.0693
14106W        W30367   9.973  12.385   4.420  0.1451  0.2642 -0.2031
14107W        W30368   1.447  16.546   5.511  0.3356 -0.2917 -0.1665
14108W        W30369  11.013  19.079   3.211  0.1546 -0.0654 -0.1206
14109W        W30370  13.664   9.655  13.110 -0.0762 -0.3855  0.0603
14110W        W30371   1.699  14.052   2.568 -0.1271 -0.2435 -0.1687
14111W        W30372   7.760  15.648  10.828 -0.0341  0.1961  0.0951
14112W        W30373   2.735   9.275   1.028  0.2221 -0.1179 -0.3600
14113W        W30374   7.048   0.582  10.674  0.1170 -0.0395  0.0733
14114W        W30375   3.532  16.075  13.494  0.1083  0.1412  0.1578
14115W        W30376   8.005   2.270   2.433 -0.2996 -0.1662 -0.2019
14116W        W30377   7.350  12.315   9.509 -0.2018 -0.1489 -0.3107
14117W        W30378   4.824   1.673  13.286 -0.2101  0.1709  0.0573
14118W        W30379  11.489   8.252   2.706 -0.0715 -0.0195 -0.0596
14119W        W30380  15.928  12.069   1.171  0.1695  0.2089 -0.0314
14120W        W30381   0.608   0.061   2.739  0.4644  0.2362  0.1434
14121W        W30382  15.728  10.041  13.096 -0.3421 -0.1723  0.0826
14122W        W30383  13.313   9.063   3.120  0.0559 -0.2157  0.3333
14123W        W30384  17.746  14.181   0.817  0.0357  0.0861 -0.1047
14124W        W30385   9.980   6.596   4.676 -0.1959  0.0088  0.0839
14125W        W30386   3.028   5.942   9.231  0.0372  0.0958  0.2830
14126W        W30387   7.545  13.906  13.630 -0.0867  0.0383 -0.3966
14127W        W30388  14.778  10.887   1.252 -0.1157 -0.0985 -0.0490
14128W        W30389   0.979  10.137   4.322  0.1155  0.0334  0.0862
14129W        W30390   3.331  15.516  11.657 -0.0914 -0.0734 -0.0732
14130W        W30391   3.623  19.010  14.530  0.0267  0.1784 -0.2792
14131W        W30392  17.957   4.000  13.172  0.2216 -0.0672 -0.0003
14132W        W30393  15.048   1.898  13.145  0.0655 -0.1282 -0.0969
14133W        W30394  14.416   4.591   0.522 -0.0319 -0.2191 -0.1783
14134W        W30395  14.574  16.506  13.860 -0.0726 -0.2835 -0.3252
14135W        W30396  17.148  17.542  14.440 -0.3143 -0.0252 -0.0553
14136W        W30397   4.396   7.910  10.029 -0.2095  0.2910 -0.1209
14137W        W30398   7.988  12.428  10.634  0.1330  0.0829  0.1203
14138W        W30399   6.310   5.524   9.833  0.1003 -0.0036  0.2726
14139W        W30400   2.294  17.816  14.510  0.3357  0.2344  0.3878
14140W        W30401  11.833   3.160   5.307 -0.1287 -0.2976  0.0378
14141W        W30402  11.506  13.746   4.533  0.0309 -0.0642 -0.3414
14142W        W30403  14.152   5.904  11.396  0.3870  0.1989 -0.0053
14143W        W30404   0.042  14.018  14.016 -0.5016  0.1132  0.0557
14144W        W30405   4.580  12.600  11.496  0.4718 -0.0225 -0.3456
14145W        W30406   9.070   3.416   9.645  0.0528 -0.3871  0.1640
14146W        W30407  14.067  16.924  12.654 -0.0186  0.0938  0.0014
14147W        W30408  19.126   7.032  10.118  0.1141  0.0472  0.0636
14148W        W30409   1.445   1.984  10.161  0.3401  0.0523 -0.1121
14149W        W30410   9.617   5.227  14.148 -0.0243  0.1119  0.0305
14150W        W30411  17.569  18.079   4.792 -0.3191  0.2422 -0.0294
14151W        W30412   8.581  16.889  11.177  0.2630 -0.0861  0.1808
14152W        W30413   2.037   5.251   1.083 -0.1907  0.0760 -0.0537
14153W        W30414   1.418  13.035  11.253  0.2086  0.1328  0.1434
14154W        W30415  11.019   8.067   2.570  0.1234 -0.1676  0.1827
14155W        W30416  10.511  18.877  11.030 -0.4892  0.3280  0.0532
14156W        W30417   6.725   9.281   4.618  0.1070  0.4659 -0.0005
14157W        W30418   8.188  14.981   2.701 -0.0562 -0.3190 -0.2839
14158W        W30419  11.747  16.037   3.848 -0.0317 -0.0209  0.0082
14159W        W30420  18.516   0.303  11.210  0.4718 -0.0561  0.0791
14160W        W30421  16.401  18.460   4.526 -0.2379  0.3267 -0.1609
14161W        W30422   0.262  12.620  13.492  0.1905  0.0978  0.0456
14162W        W30423  14.410   7.244  13.101  0.2854  0.0834 -0.3492
14163W        W30424   6.639   8.195  14.444  0.2266  0.0412 -0.0950
14164W        W30425   1.160  12.758  13.943 -0.1191  0.3936  0.2163
14165W        W30426  11.569   0.032  13.447 -0.0518  0.0322  0.0610
14166W        W30427   5.380  16.944   4.511 -0.0430  0.0171  0.1092
14167W        W30428  14.113   9.371  13.089  0.0239  0.0727  0.0294
14168W        W30429  18.689  14.149   2.487  0.1935  0.1133  0.1671
14169W        W30430  16.606   7.373  11.781  0.1515  0.0006  0.1834
14170W        W30431   1.006  14.526  12.885  0.0974  0.0450  0.1597
14171W        W30432  14.008  19.482  11.355  0.2725 -0.0894  0.3317
14172W        W30433   5.414  18.145  12.240  0.2995  0.0729  0.0957
14173W        W30434   6.192   7.806  14.253 -0.2147 -0.1624  0.1472
14174W        W30435   8.990  12.810  10.924  0.0058  0.1178  0.0623
14175W        W30436   5.329   8.348   3.577  0.1597  0.0474 -0.1554
14176W        W30437   9.317  12.875  11.820 -0.1043 -0.2017  0.0991
14177W        W30438  18.287  13.452   1.592  0.4954 -0.1257  0.2852
14178W        W30439  15.476   2.502   4.744  0.0944  0.1074  0.2794
14179W        W30440   3.561   6.790   2.496 -0.2177 -0.0173 -0.2131
14180W        W30441   1.040  18.419  14.122  0.0927 -0.1667 -0.2352
14181W        W30442   9.648  13.949  13.979 -0.1573  0.0199 -0.3325
14182W        W30443  16.261   6.989   4.207 -0.0435  0.1312 -0.2552
14183W        W30444   4.521   8.038  10.673  0.0224  0.0830  0.0724
14184W        W30445   2.812   2.675   9.316 -0.0862 -0.0407 -0.1783
14185W        W30446   8.141   2.768  10.764 -0.1332 -0.0397  0.2013
14186W        W30447   8.789   2.331  12.665  0.5701 -0.0293  0.1160
14187W        W30448   6.924   9.084  13.395  0.2149  0.1674 -0.0726
14188W        W30449  12.559   0.851   5.284  0.0062  0.0711 -0.2009
14189W        W30450   6.562   7.642  14.784  0.0852  0.1454 -0.3347
14190W        W30451  14.710  17.436   6.212 -0.0464 -0.4824 -0.0737
14191W        W30452  10.690   3.213  11.739 -0.0178 -0.0018  0.3019
14192W        W30453   0.188  12.155   4.944 -0.0117 -0.0150  0.3698
14193W        W30454   9.977   4.385   1.034 -0.0051 -0.2336  0.1587
14194W        W30455  12.795  15.144   0.640 -0.2478 -0.1887  0.1566
14195W        W30456   5.099   9.489   3.218 -0.0283  0.2113  0.1213
14196W        W30457   2.951   2.992  12.843  0.2104 -0.0905  0.1320
14197W        W30458   0.761   0.194   3.228  0.1117  0.0976  0.2180
14198W        W30459   9.759   2.282  13.829  0.0251  0.0256 -0.0322
14199W        W30460   4.554  10.887   9.879  0.0029 -0.3764  0.0726
14200W        W30461  13.633  13.437  12.275  0.3259  0.2820 -0.1102
14201W        W30462   6.939  11.122  14.454  0.1792  0.2927 -0.2931
14202W        W30463   1.934   8.694  11.883 -0.2173 -0.1409  0.1286
14203W        W30464   7.656   0.697   2.344  0.3851 -0.1372 -0.2490
14204W        W30465   7.566   0.499  10.917 -0.3071 -0.0534 -0.3084
14205W        W30466   2.550  10.845   2.902  0.0747  0.1711  0.1380
14206W        W30467   7.743   8.693   0.072 -0.0968 -0.3810 -0.0232
14207W        W30468   1.719   3.515  13.857 -0.2972  0.2557 -0.0310
14208W        W30469  10.056   9.939   2.066 -0.5101  0.0715  0.3667
14209W        W30470  10.737  11.084   1.402 -0.4803 -0.0759  0.1511
14210W        W30471   4.274   5.319   3.764  0.3727 -0.0043 -0.0536
14211W        W30472   3.232  15.915  12.087 -0.0508 -0.2158  0.1336
14212W        W30473   2.871   0.766   0.178 -0.2765 -0.0156  0.3176
14213W        W30474  10.464  14.224   5.705  0.1765 -0.0635  0.1113
14214W        W30475   7.186   0.085   5.172 -0.0385 -0.0235 -0.2679
14215W        W30476   7.842  15.927   1.514  0.1573  0.1290 -0.2756
14216W        W30477  16.292   5.673   3.862 -0.1326  0.1417  0.0898
14217W        W30478  13.162   7.010  13.100 -0.0209  0.3359 -0.2233
14218W        W30479   2.181   2.112  14.634  0.0117  0.1212  0.1169
14219W        W30480   9.400  15.803  12.043 -0.0338  0.1258 -0.0517
14220W        W30481   2.083   2.229  14.105 -0.0702  0.1800 -0.0294
14221W        W30482  15.765  16.666   1.315  0.1379 -0.0146  0.0466
14222W        W30483  17.879  16.089  12.919  0.2126 -0.3412  0.0307
14223W        W30484   8.535   7.240   8.846 -0.2717 -0.1412 -0.1124
14224W        W30485  16.824  16.272   2.145  0.1027 -0.0193  0.1702
14225W        W30486  18.684  15.793  11.230 -0.1408  0.1119  0.1509
14226W        W30487   0.644  14.297  14.219 -0.1113  0.3559 -0.1092
14227W        W30488   1.457  10.804   0.049 -0.2013 -0.4646  0.1053
14228W        W30489  12.601   3.392   0.706 -0.1510  0.0842  0.0272
14229W        W30490   4.625   0.970   1.427  0.1615  0.0532 -0.1488
14230W        W30491   0.798  17.977  13.895  0.0241  0.0886  0.0140
14231W        W30492  17.735   5.399   4.758  0.0066 -0.0758  0.1915
14232W        W30493   7.843  10.741  11.820  0.0041  0.1272 -0.2667
14233W        W30494   2.146   8.580   3.318 -0.1685 -0.3074 -0.0269
14234W        W30495   6.426   6.589  13.411  0.0481  0.0173 -0.0486
14235W        W30496   4.772  17.125   4.129 -0.0123 -0.0025  0.2493
14236W        W30497  17.454   9.155   1.418 -0.0676 -0.0988  0.0183
14237W        W30498  17.957  11.707   1.720 -0.2291  0.0288  0.1372
14238W        W30499   6.981   1.614   3.348  0.0344 -0.1025  0.0252
14239W        W30500   3.137  14.135   4.198 -0.2521  0.6203  0.2353
14240W        W30501  16.784   9.946   4.094 -0.2273 -0.0494  0.0338
14241W        W30502   6.172   8.993  13.620  0.0982  0.2388  0.0454
14242W        W30503  18.575  18.420   0.902 -0.1800  0.1220  0.3631
14243W        W30504   5.029  15.247  10.584  0.1272 -0.2619 -0.3174
14244W        W30505  11.393  11.687   1.653  0.1883  0.0400 -0.2546
14245W        W30506  11.292   9.632  12.157  0.0778 -0.1982 -0.0145
14246W        W30507  14.318  14.524   3.810 -0.1430 -0.2514 -0.2022
14247W        W30508  15.920  17.950  10.774 -0.4888  0.3212  0.1582
14248W        W30509  11.299   5.640   4.651  0.0155  0.0002 -0.0472
14249W        W30510   5.813  11.006  12.437  0.3532 -0.3288 -0.1903
14250W        W30511   0.776  12.843   3.784  0.0572  0.0498  0.1920
14251W        W30512   1.034  18.294  12.669  0.1417  0.2306  0.0623
14252W        W30513   2.919   0.219  13.825 -0.2022 -0.0680  0.1182
14253W        W30514   4.705  12.206  13.073  0.0096  0.0625  0.0499
14254W        W30515  17.754  11.338  13.252 -0.1314 -0.2204  0.2662
14255W        W30516   3.120  17.446   2.750 -0.1903 -0.1669  0.1360
14256W        W30517  18.563  18.730   1.274  0.0062 -0.1026 -0.2111
14257W        W30518   9.799   0.556  10.760 -0.3349 -0.0950 -0.2764
14258W        W30519  12.849   0.260   6.190  0.2035 -0.0656  0.1261
14259W        W30520   3.945   1.663   1.734 -0.2326  0.2820  0.0412
14260W        W30521   6.220   4.885   3.194  0.1006 -0.0483 -0.0042
14261W        W30522  17.990   0.003  14.069 -0.3762  0.1162  0.0022
14262W        W30523  17.291   8.148  11.940  0.1437 -0.1051 -0.2137
14263W        W30524  10.139  16.022   1.428 -0.3237 -0.1807 -0.2174
14264W        W30525   5.429   7.983  10.575 -0.2773  0.3210  0.0894
14265W        W30526  19.371  16.301   2.285  0.0696 -0.0553 -0.1273
14266W        W30527  18.775  10.844   5.318 -0.1871  0.3080 -0.1358
14267W        W30528  11.137  17.201  14.627 -0.1477  0.3569 -0.1314
14268W        W30529  13.796  11.925   4.805 -0.0372 -0.0324 -0.1677
14269W        W30530  12.262  19.403  14.096 -0.1943  0.2928 -0.1902
14270W        W30531  18.888  14.785   1.238  0.1431 -0.2474  0.7184
14271W        W30532   6.142  11.208   3.342 -0.0677  0.1266 -0.3768
14272W        W30533  14.589  19.410  11.546 -0.0891  0.0490 -0.1161
14273W        W30534  16.505  11.492   0.177 -0.0640 -0.0791 -0.3713
14274W        W30535  11.724  13.437   2.283 -0.1251 -0.1351 -0.1162
14275W        W30536   1.401  12.313  13.773  0.0969 -0.0418  0.0141
14276W        W30537  17.516   8.378   4.413 -0.0718  0.2338 -0.1733
14277W        W30538   6.463   6.756   0.183 -0.1134 -0.2683  0.0062
14278W        W30539   1.203   3.537  12.773  0.0096 -0.1291 -0.2034
14279W        W30540  19.349   7.749  14.741  0.0662 -0.2291 -0.1413
14280W        W30541   4.554   6.055  13.651  0.0548 -0.1220 -0.0981
14281W        W30542  14.226  14.288   5.366 -0.3097  0.2583  0.2406
14282W        W30543   5.947  11.473   0.199 -0.3947  0.1018  0.1684
14283W        W30544   7.083   9.948  12.041  0.1281 -0.0286 -0.2266
14284W        W30545   3.718   0.731  13.933  0.0648 -0.1349  0.0509
14285W        W30546  12.412   1.915  10.825 -0.2309 -0.1689 -0.0713
14286W        W30547   3.739  14.234  11.065 -0.0328 -0.0333 -0.1307
14287W        W30548   8.877   9.945  12.872 -0.2059  0.1400 -0.0140
14288W        W30549   5.331   0.430   4.361 -0.1408 -0.1720 -0.1987
14289W        W30550  12.229   4.736   1.886 -0.1749  0.3371  0.0338
14290W        W30551   7.066  16.426  11.848  0.1602  0.1722 -0.0373
14291W        W30552  14.812   3.124  14.312 -0.1729  0.7609  0.2303
14292W        W30553  17.667   5.651  13.717 -0.0460  0.0348  0.0633
14293W        W30554   1.538   7.298   2.263  0.1650  0.0077  0.0060
14294W        W30555  13.147   3.241  13.252  0.1992 -0.1915 -0.1671
14295W        W30556  10.702  13.624   3.678  0.2062 -0.4395 -0.0850
14296W        W30557   2.701  15.507  10.072 -0.0832  0.1407 -0.2555
14297W        W30558  16.760   0.700   2.108  0.3015 -0.0259 -0.0708
14298W        W30559  11.998  15.359   3.187 -0.0503  0.0433  0.0231
14299W        W30560  10.646  10.993   3.108 -0.1135  0.1956 -0.0103
14300W        W30561   6.000  12.121  11.568  0.0740 -0.0255 -0.1307
14301W        W30562  17.850   7.282   2.506 -0.0517 -0.2473 -0.0405
14302W        W30563  13.360  17.601   1.691  0.0194  0.1473 -0.1235
14303W        W30564  15.356   6.489   2.301 -0.1189  0.0742 -0.2546
14304W        W30565  11.072   9.266   2.728  0.0927  0.1739 -0.0361
14305W        W30566   0.080   9.066  14.250 -0.0602  0.0106  0.0387
14306W        W30567   4.009   4.033   2.124 -0.0741 -0.0104  0.2228
14307W        W30568  13.013   6.946  13.585  0.0372  0.0456  0.0953
14308W        W30569   7.961  16.930   1.757 -0.3113 -0.0248  0.0140
14309W        W30570   5.312  16.467   4.593  0.0279 -0.2932  0.3476
14310W        W30571  15.402  15.105  13.926 -0.1566 -0.1701 -0.1125
14311W        W30572   6.698  12.561   0.544 -0.1642  0.1537  0.3072
14312W        W30573  16.411   6.124  11.985  0.0725  0.0405 -0.0061
14313W        W30574  18.577  16.146  10.905  0.3624 -0.2381  0.1805
14314W        W30575  16.290   9.992   2.620 -0.1202 -0.1833  0.3082
14315W        W30576   9.780  10.770  14.268 -0.0474  0.2380  0.2110
14316W        W30577   6.379   5.844  10.335  0.0230  0.0463 -0.2344
14317W        W30578  13.569   3.948  12.410 -0.2912  0.0458 -0.0140
14318W        W30579   9.609   8.450   3.515 -0.0519  0.0900  0.0633
14319W        W30580   5.362   5.127  11.140 -0.1284 -0.1019  0.0688
14320W        W30581  18.925   3.906  11.327 -0.2340  0.0195  0.0160
14321W        W30582  12.102   0.059   5.320  0.1475 -0.0692  0.5330
14322W        W30583  14.164  19.119  14.206 -0.1167  0.0997  0.0299
14323W        W30584  16.710   4.280   2.468 -0.0339 -0.2207  0.0046
14324W        W30585   5.214   3.250  10.854 -0.3638 -0.2581 -0.0200
14325W        W30586  13.343   1.555  13.386  0.0261 -0.0178  0.5102
14326W        W30587  15.646  17.523   1.861 -0.0146  0.0287  0.4041
14327W        W30588   8.921  10.728  10.716 -0.1514 -0.0047  0.1745
14328W        W30589  19.290  13.809  11.533  0.0098 -0.0914 -0.3121
14329W        W30590  10.693   1.286  13.615 -0.0624 -0.1045  0.0153
14330W        W30591   8.781  19.414   1.953  0.1245  0.0984 -0.0245
14331W        W30592   6.499   2.640   9.969 -0.3765 -0.1036 -0.3245
14332W        W30593   7.843   0.439  10.373 -0.1354 -0.0924 -0.0441
14333W        W30594   8.979  15.580  11.987  0.3879  0.0770  0.0119
14334W        W30595  12.262   1.509   2.771  0.2817  0.0439  0.1333
14335W        W30596  14.756  13.066   3.454 -0.0093  0.2303  0.2382
14336W        W30597  15.154  10.269  13.886  0.2355 -0.0294  0.2283
14337W        W30598   2.998  19.232   3.242  0.2719  0.1708  0.1145
14338W        W30599   3.852  13.849   3.989  0.2537 -0.1471 -0.0660
14339W        W30600   5.156   8.522  12.634 -0.0550  0.1130  0.1596
14340W        W30601   6.329   3.261   1.865  0.0202 -0.0436  0.0708
14341W        W30602   5.332  17.404   3.487  0.2227 -0.0990 -0.4637
14342W        W30603  16.002  11.657   0.245 -0.2144 -0.1323  0.1884
14343W        W30604  10.560   5.666   2.991 -0.0627 -0.1375  0.0800
14344W        W30605   6.429   7.448   9.707  0.4291 -0.0275  0.1238
14345W        W30606   5.018   7.011   4.366  0.1355  0.0720  0.1698
14346W        W30607  12.968  16.253  14.607  0.0720 -0.1750  0.0008
14347W        W30608   7.076  15.475  14.019  0.0092  0.1431  0.0906
14348W        W30609  14.163   0.191   3.357 -0.0407 -0.3293  0.1967
14349W        W30610  12.479   4.584  10.368  0.2410  0.0903 -0.0570
14350W        W30611  18.165   4.441  10.975 -0.1093 -0.1299 -0.2023
14351W        W30612   4.412   9.017  11.017 -0.3243 -0.1489 -0.0355
14352W        W30613  16.973   0.557   5.066 -0.0236 -0.0887  0.1842
14353W        W30614  11.764   2.808   3.679  0.0381 -0.1391 -0.4209
14354W        W30615   4.460   6.483   9.268 -0.0180 -0.1710  0.0194
14355W        W30616   3.884   0.999   2.645 -0.0180 -0.3172 -0.1138
14356W        W30617  16.593   5.800  10.094  0.0560 -0.1514 -0.1999
14357W        W30618   8.052   6.162   0.802 -0.3861  0.1291  0.0893
14358W        W30619   0.670   6.068  13.310 -0.4225 -0.0617 -0.1605
14359W        W30620  16.791   1.469   1.572 -0.1951  0.1899 -0.0166
14360W        W30621   8.718  11.496   2.658 -0.1455  0.0489 -0.2927
14361W        W30622  15.519   0.619   3.336  0.1538  0.0471  0.0124
14362W        W30623   9.024   2.357   3.526  0.0868 -0.1442 -0.1161
14363W        W30624   7.312   7.284  13.015 -0.0207  0.0597 -0.1333
14364W        W30625   1.316  17.180  14.213 -0.2651 -0.2810  0.1697
14365W        W30626   0.841   2.113  12.062 -0.1447  0.0107 -0.2023
14366W        W30627   4.313  18.788   0.624  0.1331 -0.2862 -0.3407
14367W        W30628  13.109   4.626  13.427  0.0517  0.0961  0.3298
14368W        W30629   7.326  15.238  12.706  0.4224  0.4605 -0.3589
14369W        W30630  15.822   5.127  11.663 -0.0617 -0.3716 -0.0408
14370W        W30631   2.697   5.539   1.753 -0.1381 -0.1575 -0.1312
14371W        W30632   1.798   8.358   3.094  0.2010 -0.0017 -0.1216
14372W        W30633  16.630  10.313   2.446  0.1856  0.1008  0.0748
14373W        W30634   8.788   9.879   2.364  0.1533 -0.0014 -0.0022
14374W        W30635   4.554   9.860  11.826 -0.3024 -0.0686 -0.0716
14375W        W30636  12.734   3.985  13.943 -0.2366 -0.0015  0.2683
14376W        W30637  14.574  18.228   4.768  0.0361 -0.1961 -0.1691
14377W        W30638  19.211  13.292   5.023  0.0255  0.2143  0.1870
14378W        W30639  10.286   2.911   0.073 -0.3030 -0.1278 -0.1876
14379W        W30640  16.641   8.448   2.303  0.1652 -0.0764  0.0274
14380W        W30641  17.844  16.355   2.967  0.0801 -0.4646  0.2082
14381W        W30642  18.106  16.368  14.677  0.4258 -0.0709  0.1027
14382W        W30643   2.692  11.722   3.903  0.1304 -0.0188 -0.0227
14383W        W30644   9.437   4.229  10.052  0.1273 -0.0462 -0.1603
14384W        W30645   8.315  18.349   2.787  0.4168 -0.3774  0.0256
14385W        W30646  17.682   1.586   3.236  0.1712  0.1453 -0.2976
14386W        W30647   8.616   8.401  10.279  0.0777  0.0154 -0.0092
14387W        W30648   3.244   7.644   3.528 -0.0762  0.0464  0.0627
14388W        W30649  15.036   2.854  11.451 -0.1479 -0.2042 -0.0173
14389W        W30650  11.410   4.112  13.492  0.2311 -0.1409 -0.0118
14390W        W30651  18.769  16.479   3.505 -0.1037 -0.2217 -0.3341
14391W        W30652   3.116   3.897  12.289  0.0065 -0.1121 -0.2066
14392W        W30653  15.288  16.125   0.702 -0.1371 -0.4533  0.0431
14393W        W30654   3.574   9.065   5.506  0.1946 -0.0944  0.2106
14394W        W30655  16.429  10.357   0.269  0.1808  0.0812 -0.5784
14395W        W30656  19.273  10.599   4.904  0.1938 -0.1676  0.2108
14396W        W30657   4.673  17.920   3.701  0.5637  0.1722  0.2236
14397W        W30658   1.918   8.263  14.517  0.4202  0.0495 -0.1705
14398W        W30659  11.788  15.573  13.853 -0.0638 -0.2107  0.1604
14399W        W30660  14.391   9.770  11.886 -0.3236  0.1060  0.1207
14400W        W30661  15.846   3.397  14.259 -0.0802  0.3213 -0.2614
14401W        W30662  12.733   4.580   2.068  0.2035 -0.0611 -0.0332
14402W        W30663   4.536  18.747   2.759 -0.0841  0.5124 -0.1838
14403W        W30664  17.351  11.691   0.904  0.2142 -0.1764 -0.1099
14404W        W30665   9.093  17.054  12.370  0.1552  0.2340 -0.2233
14405W        W30666   4.749   9.934  13.537 -0.0117  0.1491 -0.0183
14406W        W30667  14.736  15.340   3.176  0.1913 -0.3853 -0.4868
14407W        W30668  11.617   5.011   9.316 -0.2071  0.1213 -0.1366
14408W        W30669  17.509  11.804  13.307  0.1110 -0.2412 -0.1079
14409W        W30670  19.051  15.739   0.114 -0.0454  0.1882  0.2055
14410W        W30671  14.238  16.272  11.965  0.0086  0.0378  0.0669
14411W        W30672  17.209   2.396   3.721  0.0773  0.1798 -0.0983
14412W        W30673   2.858   0.401  11.612  0.2291  0.2373 -0.1557
14413W        W30674   3.162   0.490  14.692  0.0739  0.1755  0.0516
14414W        W30675  10.629   1.412   3.925 -0.1427  0.2288  0.1493
14415W        W30676  18.103  19.173  13.409 -0.1381  0.2809  0.2940
14416W        W30677   7.369  16.244  13.806 -0.1502  0.1900 -0.0240
14417W        W30678   2.298   1.265   4.704  0.0317  0.0429 -0.0621
14418W        W30679   5.498   0.280  11.292  0.1380  0.0786  0.1561
14419W        W30680  10.673  19.165  10.703 -0.0873 -0.0931  0.0557
14420W        W30681   9.554  15.489   1.095  0.2988 -0.0887 -0.0378
14421W        W30682   4.312   2.528   3.752 -0.1119  0.4129  0.2765
14422W        W30683   3.444  11.831  12.876 -0.0454 -0.2508 -0.0518
14423W        W30684   5.769   0.514  11.793  0.4366  0.1060 -0.0310
14424W        W30685  11.393  11.292  12.728  0.3081  0.2210 -0.0707
14425W        W30686   7.967   5.385  13.395  0.3290  0.0672  0.0534
14426W        W30687   7.439   1.411   3.289  0.0294 -0.0741  0.0735
14427W        W30688   9.484   3.340  12.214 -0.0245 -0.0538  0.2436
14428W        W30689  13.223   5.583   1.133 -0.0240 -0.2535 -0.1687
14429W        W30690   7.109   7.620   1.187  0.0748  0.0627 -0.0077
14430W        W30691  19.115   7.337   3.940  0.2930  0.2822  0.1979
14431W        W30692   1.012   2.439   4.879 -0.0463 -0.2186  0.0099
14432W        W30693   9.766   1.945  12.974  0.1107 -0.1316  0.4084
14433W        W30694   1.972  14.155  11.660 -0.2284 -0.1519  0.1992
14434W        W30695  15.314   7.863   0.153 -0.3885  0.0491  0.0127
14435W        W30696  12.502  11.002  13.730 -0.3775  0.2391  0.0158
14436W        W30697   7.176   7.741  12.949  0.0188 -0.1164 -0.0184
14437W        W30698   8.543  19.319  14.321  0.1501 -0.1518  0.0474
14438W        W30699  12.492   1.579   3.334  0.3595 -0.2732  0.0195
14439W        W30700   6.298  14.937   4.053  0.0507  0.1047 -0.0591
14440W        W30701  10.109   9.804  10.730  0.1319  0.0368  0.3195
14441W        W30702  19.449  19.280  11.457 -0.1932  0.3117 -0.0077
14442W        W30703  10.337  13.968  11.268  0.0952 -0.1799  0.1966
14443W        W30704  10.918   2.777  11.656  0.3395  0.0146 -0.1251
14444W        W30705   4.767  18.974  10.704  0.0323  0.1467 -0.1719
14445W        W30706  10.761   6.945  13.772  0.1215  0.0439 -0.0453
14446W        W30707  16.475  12.302  13.663  0.0035 -0.1097 -0.1331
14447W        W30708  10.140   1.986   8.842  0.0476 -0.2677 -0.1645
14448W        W30709  10.336   7.443   4.118  0.1300  0.0196  0.0013
14449W        W30710   6.474  15.427   9.721  0.0672 -0.1703  0.0729
14450W        W30711   0.492  10.178   1.844 -0.2528 -0.1683  0.3250
14451W        W30712  12.200   8.985   3.556 -0.4597 -0.1050 -0.3414
14452W        W30713   0.546   7.811   3.354  0.2891 -0.3371 -0.2400
14453W        W30714   4.881   8.662   3.754 -0.0835 -0.1739  0.2677
14454W        W30715   9.265  16.759   5.013  0.0220 -0.1683 -0.0489
14455W        W30716   9.766   9.747   9.366  0.5903  0.1177  0.0009
14456W        W30717   6.869   9.667  14.506 -0.0377 -0.1215  0.2427
14457W        W30718   2.513   4.453   9.117  0.0348  0.0429  0.0623
14458W        W30719   6.984  10.435   5.291 -0.0428 -0.1152  0.2489
14459W        W30720  10.943   9.292   3.234 -0.0183 -0.0257  0.2459
14460W        W30721   5.573  17.174   0.347 -0.0589 -0.0613 -0.3110
14461W        W30722   6.722   3.341   4.486 -0.1576 -0.0353  0.0171
14462W        W30723  18.934   3.115   2.015 -0.1080 -0.4864  0.0747
14463W        W30724   1.748   1.615   0.874  0.0352 -0.0279 -0.1843
14464W        W30725  13.551   2.136  12.554 -0.0104 -0.0963 -0.0119
14465W        W30726   3.791   3.141   1.508 -0.1755 -0.1058 -0.2516
14466W        W30727   7.799  17.857  12.054  0.0004 -0.2167  0.4579
14467W        W30728   7.264   6.100  12.409  0.1909  0.0560 -0.1751
14468W        W30729  15.250   7.438   1.850 -0.2408  0.1115 -0.5341
14469W        W30730   2.001  16.533   1.985 -0.0892 -0.0604  0.1838
14470W        W30731  14.926   1.303  14.222 -0.0782  0.0963  0.1877
14471W        W30732   6.400   0.907   1.288 -0.0939 -0.2246  0.1615
14472W        W30733   7.838   0.907   1.182 -0.0631  0.2351  0.1844
14473W        W30734   0.946   3.950  12.662  0.1118  0.1128 -0.2810
14474W        W30735   3.103   9.441  10.997 -0.1221  0.0488 -0.0927
14475W        W30736   3.008  18.541   0.279 -0.2694 -0.0476 -0.2722
14476W        W30737   1.130  16.771   2.135 -0.0533  0.1415 -0.2249
14477W        W30738   8.808   6.736   3.616 -0.4299 -0.0611  0.3096
14478W        W30739  17.277   7.084   0.753 -0.0661  0.1984  0.0959
14479W        W30740   3.992   0.569   0.122  0.1167  0.3292  0.1975
14480W        W30741   8.733   4.621  10.799  0.3006 -0.0827 -0.2342
14481W        W30742  15.971  10.571   4.331 -0.1370 -0.0998 -0.1018
14482W        W30743   1.603   3.155   2.591 -0.1419  0.0511  0.1928
14483W        W30744   4.999  12.266  14.089 -0.0850  0.1201  0.0207
14484W        W30745   8.282   8.395  11.949 -0.0522 -0.0084  0.3807
14485W        W30746  10.178   8.541   3.076  0.0117  0.2864 -0.0419
14486W        W30747   9.862  13.659   0.641  0.2190  0.0048 -0.0366
14487W        W30748  17.841  17.226  12.114 -0.1587 -0.2325 -0.4062
14488W        W30749   8.373  19.251  11.455 -0.4291  0.0136 -0.2524
14489W        W30750  17.356   2.518  11.500  0.1826 -0.0733  0.2413
14490W        W30751  16.498   1.605   3.741 -0.2087  0.2893 -0.2388
14491W        W30752   7.951  15.022   1.804  0.2021  0.2731 -0.2737
14492W        W30753   0.624   0.700   4.278 -0.0556  0.1788  0.1747
14493W        W30754  16.104  16.449   1.069 -0.1270  0.2347  0.1394
14494W        W30755   5.369  10.772  14.342  0.0347 -0.0996  0.0722
14495W        W30756  14.444   3.260   0.010  0.1087  0.3757 -0.1518
14496W        W30757  12.345  12.468   3.284 -0.1014  0.2804 -0.0967
14497W        W30758   1.538   8.069  14.213 -0.3184  0.3671 -0.2904
14498W        W30759  15.962   8.235   1.224 -0.1014 -0.1290  0.0655
14499W        W30760  10.460   6.435  10.954  0.3725  0.0573 -0.2755
14500W        W30761  11.723   1.710  14.644  0.1286 -0.2850  0.0059
14501W        W30762  10.949  18.573   4.376 -0.0971 -0.0741 -0.0491
14502W        W30763   0.261   7.276   3.072 -0.1753  0.0537  0.2577
14503W        W30764  14.646  12.340  11.677  0.0383  0.0339 -0.1935
14504W        W30765  10.346   0.653  10.659 -0.0632 -0.1367  0.3574
14505W        W30766   8.367  16.397  12.013  0.0689  0.1819 -0.0480
14506W        W30767  11.614  19.044   3.128  0.1372  0.0231 -0.0043
14507W        W30768   0.098  17.487   0.635  0.0100 -0.0856  0.1511
14508W        W30769   3.705  10.989  14.223 -0.3867  0.0940 -0.2204
14509W        W30770   9.147   2.705  14.114  0.2090  0.1852 -0.1071
14510W        W30771  19.387  14.086  10.413 -0.0001 -0.0444 -0.3918
14511W        W30772  15.045  16.710  14.021 -0.2506 -0.2264 -0.0250
14512W        W30773  11.432   2.292  13.092  0.0148 -0.3155  0.1459
14513W        W30774  16.609   8.707   5.480  0.3151  0.1717 -0.2437
14514W        W30775  12.257   1.685  11.317 -0.2251 -0.1617 -0.1314
14515W        W30776  16.309   3.940  11.103  0.0599 -0.0772 -0.2088
14516W        W30777  16.225  19.246  11.729 -0.5005  0.3829  0.0806
14517W        W30778  11.682  10.853   4.055 -0.0902 -0.1089  0.0879
14518W        W30779  12.961  10.081  13.742  0.1090  0.1543  0.4261
14519W        W30780  13.500   6.560   4.812 -0.1189  0.1905  0.1095
14520W        W30781  13.720  10.276   5.807  0.1912 -0.1311  0.5221
14521W        W30782   7.041   2.603  14.662 -0.0138  0.5791 -0.2079
14522W        W30783  13.337  14.859   1.109 -0.0002  0.0881 -0.1206
14523W        W30784   2.702   4.879   2.310  0.0063 -0.2892 -0.0706
14524W        W30785  10.062  14.433   1.043  0.3624  0.0194  0.0587
14525W        W30786   3.005  16.977   4.763  0.0588  0.0927 -0.1011
14526W        W30787  12.103  18.610  13.541  0.3258  0.1779 -0.0148
14527W        W30788   9.625   3.458   1.989  0.1030  0.0834  0.0566
14528W        W30789  14.653  17.812   5.406 -0.2865 -0.1827 -0.0756
14529W        W30790  17.282   0.228   3.043 -0.1521  0.0190 -0.2520
14530W        W30791   3.886  16.658  11.158  0.0796  0.0666  0.2531
14531W        W30792   7.515   3.278  12.837  0.0346 -0.1894 -0.0408
14532W        W30793   3.409   7.535  13.001  0.0257 -0.1270 -0.2302
14533W        W30794  14.833  12.960   1.705  0.1822 -0.1689 -0.0285
14534W        W30795  10.518   1.752  13.881 -0.1377  0.3484 -0.2420
14535W        W30796   7.031  16.327   0.666 -0.0822  0.0475 -0.2413
14536W        W30797  18.629  15.316  13.742  0.0385 -0.3217 -0.0725
14537W        W30798   7.912   2.363  10.933 -0.2750 -0.0594 -0.0593
14538W        W30799   3.107   9.747   4.813 -0.2026 -0.1529  0.1723
14539W        W30800   3.674  15.815  13.910 -0.0126  0.1477 -0.0911
14540W        W30801  18.695   9.763  13.342  0.3249 -0.4643 -0.1002
14541W        W30802   0.074   5.243  13.632  0.0187 -0.1275  0.3954
14542W        W30803   2.991   0.648   0.978 -0.0702 -0.3019  0.1726
14543W        W30804  12.662  15.232  10.653  0.1077 -0.0554 -0.2245
14544W        W30805   9.181   9.885   0.765  0.2778 -0.0216  0.2635
14545W        W30806   1.403   6.075   4.393  0.0597 -0.0068  0.0880
14546W        W30807   8.181   4.492   0.682  0.4997 -0.0589  0.1011
14547W        W30808  11.717   9.822  10.457  0.1249 -0.1516  0.1863
14548W        W30809   6.543  11.542   4.854 -0.2341  0.0405 -0.0339
14549W        W30810   9.044  10.737  13.846 -0.2774  0.2324  0.2730
14550W        W30811  16.925   3.134   1.814  0.1705 -0.0178 -0.1411
14551W        W30812   5.499  13.671   1.194 -0.0387  0.2356 -0.1575
14552W        W30813  14.624  10.541  13.860 -0.0196  0.2293 -0.0968
14553W        W30814   4.421  18.358   3.849  0.1077  0.1591  0.2220
14554W        W30815   7.898  11.349   9.880  0.0268  0.0649  0.0558
14555W        W30816   1.471  17.912   1.975 -0.2452  0.1261  0.2087
14556W        W30817   3.559   6.769  14.548 -0.0433  0.0200  0.0872
14557W        W30818   0.952   9.888   3.077 -0.1981 -0.2216  0.1745
14558W        W30819  15.656   1.103  12.476  0.1728 -0.2337  0.0941
14559W        W30820  10.742   6.622  14.253  0.0576  0.0499  0.0089
14560W        W30821  17.258  19.277   4.003 -0.0788 -0.0211  0.0185
14561W        W30822   5.614   1.937  10.718 -0.1223 -0.1222  0.3988
14562W        W30823  12.555   0.019   1.685  0.1051 -0.1132  0.3086
14563W        W30824   9.777  16.570  11.480  0.1588 -0.1162  0.1068
14564W        W30825  16.432   1.418   2.361 -0.3028  0.0419 -0.2006
14565W        W30826  14.866   1.895  14.810 -0.1734  0.1185  0.2556
14566W        W30827   2.768  13.256  12.209  0.1535  0.1132  0.0620
14567W        W30828  17.399   0.540   4.770  0.2630  0.2142  0.3960
14568W        W30829   7.719   3.471  14.307 -0.3176  0.0529 -0.1198
14569W        W30830  18.543  12.751  11.781  0.0682  0.0668  0.0123
14570W        W30831  17.783   7.152   0.636 -0.1373 -0.0091 -0.0032
14571W        W30832  13.116  17.748   4.463  0.2928  0.3014  0.0938
14572W        W30833  11.013   1.799  12.574 -0.0996 -0.1674 -0.2022
14573W        W30834   6.902   3.982  13.127 -0.0881  0.0878  0.0370
14574W        W30835   9.346   5.430  11.583  0.3559  0.0947  0.1022
14575W        W30836   4.840   4.237   2.500 -0.2194  0.0389  0.3237
14576W        W30837   4.538   8.781   0.603  0.1805  0.2365 -0.1329
14577W        W30838   7.670  14.018   3.134  0.1649  0.4319 -0.2522
14578W        W30839  12.564  14.314  14.766  0.1822  0.1949  0.1861
14579W        W30840   4.574   2.636  11.675 -0.2730  0.2935  0.2189
14580W        W30841  16.075  18.033  14.085  0.0783 -0.0128 -0.1065
14581W        W30842  17.427   1.090  11.000  0.1430  0.0525 -0.1177
14582W        W30843  12.332  13.550   4.096  0.0659 -0.0031  0.1112
14583W        W30844   7.018  18.072   5.104 -0.2316 -0.2283 -0.1825
14584W        W30845   1.104  11.605   3.687  0.1214 -0.1847  0.3174
14585W        W30846  16.478  12.250   3.694 -0.0336  0.5165 -0.1044
14586W        W30847   4.763  14.780  10.914  0.1817 -0.1550 -0.1383
14587W        W30848  10.431  17.065  13.040  0.1723  0.0685 -0.0531
14588W        W30849   7.339   8.225   1.622  0.0802  0.0369  0.1391
14589W        W30850   4.848   9.417  10.962  0.4835 -0.0046  0.2632
14590W        W30851  15.727   5.482   3.058  0.2854  0.0926  0.5350
14591W        W30852  11.123  18.684  11.864  0.4615 -0.0644 -0.0203
14592W        W30853   8.304  15.773   0.466  0.1846  0.0059 -0.0941
14593W        W30854   7.150   2.058  13.723  0.1577  0.3100  0.0122
14594W        W30855   1.824   9.603  14.413  0.0851  0.1467  0.0418
14595W        W30856   8.681   8.277   3.062  0.0722 -0.1566  0.5128
14596W        W30857  16.154   5.632   2.839  0.0210  0.5360  0.0628
14597W        W30858  16.363   5.330  11.634  0.1566  0.2393 -0.2533
14598W        W30859   1.973   0.588  11.622  0.0108  0.2091 -0.0204
14599W        W30860   6.614  16.908  14.050 -0.0332 -0.1671  0.1072
14600W        W30861  17.377  13.741   1.697  0.1478 -0.1982  0.0252
14601W        W30862  12.340  17.745  12.553  0.1260 -0.0526 -0.1731
14602W        W30863   2.172   7.851  12.310  0.1750  0.4861  0.0137
14603W        W30864  10.008  19.400   2.623  0.1262 -0.0917  0.2735
14604W        W30865   6.015  13.049   1.822 -0.0309 -0.1718  0.1305
14605W        W30866   2.678  18.457   2.778  0.0395 -0.0232 -0.1202
14606W        W30867  17.874   0.310   4.444  0.1984 -0.0395 -0.0506
14607W        W30868  15.521  10.775   4.999 -0.1827 -0.0000  0.0448
14608W        W30869  12.640   0.739   2.668  0.1470 -0.0484 -0.0282
14609W        W30870  10.983  17.701   3.006  0.0198 -0.4561 -0.1278
14610W        W30871  17.871  11.154  13.699 -0.1381  0.0021  0.2188
14611W        W30872   4.106  14.084   1.455 -0.4930  0.0313  0.2506
14612W        W30873   5.307  16.402  12.315  0.0963 -0.2039  0.1034
14613W        W30874  16.684  17.555   2.807 -0.0920  0.0082  0.0385
14614W        W30875  18.397   6.706   1.328 -0.0519 -0.2369 -0.1231
14615W        W30876  11.667  16.816   0.634 -0.0551  0.2013 -0.3048
14616W        W30877  17.959   8.718  11.472 -0.3131 -0.0527 -0.1530
14617W        W30878   8.099  14.944  11.075 -0.0623 -0.2169 -0.2599
14618W        W30879  16.339   4.583  13.886  0.3078 -0.0786 -0.0411
14619W        W30880  12.882   4.354  10.599 -0.0502 -0.0552 -0.1093
14620W        W30881   0.596   2.427  10.934 -0.2006  0.2190  0.0823
14621W        W30882  18.423  19.426  12.714  0.1081 -0.1427 -0.0463
14622W        W30883   1.362   7.420  10.316  0.0067 -0.2655  0.0864
14623W        W30884  10.438  18.147  11.775 -0.0011 -0.2458 -0.0292
14624W        W30885   5.357   4.880  12.794  0.0289  0.2255 -0.0684
14625W        W30886   5.648  14.240  10.369  0.1593  0.0236 -0.4655
14626W        W30887  14.092   2.163   4.649  0.0239  0.2026  0.0449
14627W        W30888   1.886  18.152   2.237 -0.0196  0.1190 -0.1973
14628W        W30889   6.524   3.496   2.315 -0.3312  0.0546 -0.2011
14629W        W30890   2.427  10.750  13.188 -0.2260  0.0352  0.2044
14630W        W30891  16.892  10.531  10.869  0.4927  0.0406 -0.0654
14631W        W30892   1.150  14.851   4.403  0.1991  0.2609  0.1283
14632W        W30893  10.017  16.201   0.715 -0.1431 -0.1555  0.2430
14633W        W30894  11.493  19.321   1.756  0.0906 -0.1405 -0.0171
14634W        W30895   2.952  18.271   0.700 -0.1803  0.5031  0.1218
14635W        W30896   4.043  13.711  14.316  0.2836 -0.3865 -0.3234
14636W        W30897  11.550  15.698   0.176  0.0748 -0.1043  0.0487
14637W        W30898  16.890   9.875  11.813 -0.1012  0.3319 -0.0379
14638W        W30899   2.227   8.619  11.153  0.1659 -0.0941  0.2272
14639W        W30900   7.808  16.566   5.154 -0.1353  0.1047  0.2246
14640W        W30901  19.320   5.396   1.245 -0.0378  0.1593  0.3742
14641W        W30902   7.611  18.298   1.803 -0.2371  0.3409  0.0462
14642W        W30903   9.353  13.202  13.286  0.2216  0.0875 -0.0000
14643W        W30904   1.430   3.445  12.345 -0.0685  0.3405  0.4348
14644W        W30905   9.513   2.315   3.419  0.0753 -0.1416 -0.5034
14645W        W30906  14.979   7.919  12.534  0.1693 -0.1089 -0.0129
14646W        W30907   0.210   3.455  10.825  0.3351 -0.0019  0.1817
14647W        W30908   4.182  10.931  13.403 -0.0227 -0.4648  0.0688
14648W        W30909  11.477   6.025  11.397 -0.1031 -0.3701  0.0170
14649W        W30910  15.878  13.497  13.946 -0.2777 -0.0699 -0.2168
14650W        W30911   3.006  16.181   2.935  0.0196 -0.1496 -0.0839
14651W        W30912   1.548   9.960   2.474 -0.0446 -0.2667 -0.1213
14652W        W30913   9.770   5.310  10.669 -0.3785  0.0890 -0.1789
14653W        W30914   9.474   1.787  11.495  0.0876  0.0477 -0.1993
14654W        W30915   2.968  11.808  13.028  0.1316  0.0720  0.0017
14655W        W30916   0.591   9.491   5.531 -0.3545 -0.1874 -0.2454
14656W        W30917   2.827   4.833  11.992  0.1742  0.0746  0.0406
14657W        W30918   2.727  14.855  10.292 -0.1817 -0.2754  0.1443
14658W        W30919   1.578  13.883  14.119  0.0811  0.2776 -0.0780
14659W        W30920  17.564   4.689  13.259  0.0668  0.3691 -0.0140
14660W        W30921  15.415   7.413  14.772 -0.0154  0.1759 -0.2091
14661W        W30922   1.049  17.638  11.723 -0.1117 -0.0806 -0.0216
14662W        W30923  11.224  15.320   3.262  0.0362 -0.3595  0.0643
14663W        W30924   8.908  18.074  12.316 -0.1543  0.1310  0.1619
14664W        W30925  13.507   9.973  13.527  0.3092 -0.2801  0.2522
14665W        W30926  18.352  11.298   1.064 -0.2812  0.3355 -0.1682
14666W        W30927  18.220  15.741  13.829 -0.0464 -0.1099  0.3971
14667W        W30928  10.229  17.866  11.401  0.1704 -0.1186 -0.0632
14668W        W30929  15.313   9.725  14.114 -0.0005 -0.0831  0.1034
14669W        W30930  15.937  16.897  14.102 -0.1645  0.1386  0.1129
14670W        W30931   8.050   7.512  11.156 -0.0888  0.0583  0.0360
14671W        W30932  16.303   3.532  14.064 -0.0508 -0.0385  0.1562
14672W        W30933  18.050  16.657   0.335 -0.0715 -0.1295 -0.1411
14673W        W30934  17.069  14.254  11.155 -0.1186  0.4375  0.0781
14674W        W30935   5.866  15.591   0.474  0.0740  0.0194  0.1385
14675W        W30936  17.904  12.741   4.693 -0.0436 -0.2191 -0.3742
14676W        W30937   1.156  12.673   3.497 -0.3628 -0.4159 -0.1555
14677W        W30938  10.588  18.265   0.105 -0.2520 -0.1653  0.2379
14678W        W30939   2.214   2.355  10.872 -0.0231 -0.0892  0.0320
14679W        W30940  14.464  11.566   0.914  0.0816  0.0841  0.0617
14680W        W30941  17.516  18.983  11.165  0.0716 -0.2511 -0.0507
14681W        W30942  17.832   4.737  14.176 -0.0010 -0.1020 -0.1028
14682W        W30943   5.428  10.401   1.802  0.0984  0.0244  0.1170
14683W        W30944   9.466  12.561   1.872  0.2441  0.0631 -0.1658
14684W        W30945   7.722   4.532  11.681 -0.3377 -0.0678 -0.2493
14685W        W30946  15.113  10.821   0.166 -0.2197  0.0792  0.1307
14686W        W30947  15.726  11.996  12.554 -0.1951 -0.2514  0.0512
14687W        W30948   3.933   4.487   3.484  0.0713  0.2815 -0.2576
14688W        W30949   1.935  18.714   3.279  0.3719 -0.0844 -0.0701
14689W        W30950   7.730  13.987  12.906  0.1237  0.1318  0.2756
14690W        W30951   0.748  15.206   4.589 -0.0244  0.1294  0.6071
14691W        W30952   3.728   3.693  10.034 -0.0177  0.1172  0.0585
14692W        W30953   9.562   2.002   2.173 -0.2441 -0.0998  0.3169
14693W        W30954   4.248  13.543   0.380  0.0359  0.4006  0.0729
14694W        W30955   3.393   2.764   0.940 -0.0151 -0.2747 -0.0680
14695W        W30956   3.120   6.048  14.059 -0.0767  0.1269 -0.0660
14696W        W30957   3.159  18.382   2.455  0.2291  0.0436 -0.0726
14697W        W30958   3.807  13.896   5.958  0.2841 -0.0055  0.0063
14698W        W30959   2.041   9.345   2.824 -0.0548  0.2586  0.0984
14699W        W30960   2.853  11.659   1.641  0.1027 -0.2288 -0.0103
14700W        W30961   2.372  16.788  14.550 -0.2656  0.1354  0.1841
14701W        W30962   3.521   3.146  13.465  0.2626  0.1283  0.0382
14702W        W30963   8.739  11.044   0.888 -0.0513  0.1486  0.1641
14703W        W30964   4.147   0.301   0.615  0.1083 -0.1373  0.0380
14704W        W30965   2.348  13.014   4.203 -0.1601 -0.0573  0.2464
14705W        W30966  15.316  17.916  14.548  0.1284 -0.1124  0.3094
14706W        W30967  11.910   2.024   4.490  0.1388 -0.1260  0.1250
14707W        W30968   2.600   5.364   2.345  0.1359  0.0108  0.1081
14708W        W30969  18.880   8.337  12.652  0.0266 -0.0397  0.0108
14709W        W30970   4.019  13.683  12.375  0.2334 -0.0846 -0.1228
14710W        W30971  11.342  10.868  10.747 -0.1662 -0.1162  0.1457
14711W        W30972  18.850  15.271   3.941 -0.0199  0.0239  0.0119
14712W        W30973   8.554  10.344   1.189 -0.1778  0.0617  0.1739
14713W        W30974   3.572  17.061  12.298 -0.0332 -0.2913  0.5234
14714W        W30975   0.426   4.611   2.999 -0.1447 -0.1675  0.2100
14715W        W30976   8.958   5.525   0.752  0.1601  0.0022  0.0206
14716W        W30977  16.300   0.091   0.325 -0.2146 -0.1711  0.3082
14717W        W30978  16.493   5.466  13.391  0.0364 -0.2184  0.0038
14718W        W30979  15.989   8.540  12.385 -0.0526  0.0695 -0.3073
14719W        W30980  15.662   1.666   0.119  0.1350 -0.3215  0.1809
14720W        W30981  16.150   2.597   0.312  0.0385  0.1129 -0.3274
14721W        W30982   3.168  18.877   1.596 -0.2652  0.2395 -0.1933
14722W        W30983  14.205   5.816   3.368  0.1043  0.0718 -0.1748
14723W        W30984   9.106  14.933  13.072 -0.1996 -0.0432  0.2183
14724W        W30985   5.939   1.173  11.180  0.0214  0.3630 -0.2409
14725W        W30986   8.813   0.727   0.366  0.0353 -0.1560  0.0781
14726W        W30987  19.054  13.402  14.255 -0.0528 -0.2653 -0.0307
14727W        W30988  14.454  15.055  12.810  0.3451  0.1792  0.2762
14728W        W30989   2.442   9.216   4.182  0.0289  0.0907 -0.0626
14729W        W30990   8.120   2.043  12.929 -0.0462  0.2575  0.0452
14730W        W30991   9.040  17.958  11.503  0.0687  0.3941 -0.1801
14731W        W30992   3.923   2.056   4.482  0.1630 -0.1750 -0.2009
14732W        W30993   0.322   8.876   1.080  0.0908  0.1270 -0.1580
14733W        W30994  15.651   1.526  11.667 -0.3191  0.0677  0.2950
14734W        W30995  13.806  17.927  11.725  0.1224 -0.0307 -0.1920
14735W        W30996  10.198   1.630  14.314  0.1608  0.0668  0.1784
14736W        W30997   6.180  10.944   0.070 -0.4143  0.0454  0.1022
14737W        W30998  15.728   6.068   3.617 -0.0987 -0.0485 -0.0193
14738W        W30999  15.177   2.524   0.094 -0.0658  0.0115 -0.0527
14739W        W31000  18.819   3.157   2.970 -0.0518 -0.2773  0.1083
14740W        W31001  13.376   7.052   2.874  0.1390 -0.1333 -0.0462
14741W        W31002  10.941   4.086  13.454  0.0119 -0.0735  0.2646
14742W        W31003  15.507   1.198   4.664 -0.2013 -0.1445 -0.1907
14743W        W31004   9.393   9.952  11.891 -0.1552 -0.0756  0.1329
14744W        W31005   6.287  15.060   0.119  0.1354 -0.1460  0.2334
14745W        W31006   4.636   5.718   1.103 -0.4238 -0.1370 -0.1718
14746W        W31007  16.051  19.430  10.683 -0.2728  0.0490 -0.2110
14747W        W31008   2.437  11.339   3.659  0.1728  0.0323 -0.1971
14748W        W31009   2.778  16.179  12.381 -0.1438 -0.1787 -0.0470
14749W        W31010   9.341  17.679   3.348  0.0669  0.1543  0.0028
14750W        W31011   3.188   5.238  14.400  0.0560 -0.0836  0.0057
14751W        W31012   2.091   8.949   1.048  0.0682  0.0261 -0.1375
14752W        W31013   6.667   2.058   2.864 -0.2788 -0.1697  0.1460
14753W        W31014   2.989   0.907   4.124 -0.0140 -0.0879  0.3328
14754W        W31015  18.211  10.457   2.443 -0.1195  0.1006  0.1674
14755W        W31016   0.558  15.963   0.255 -0.2182 -0.0992 -0.0220
14756W        W31017   3.048   5.186   4.367 -0.0632  0.0324  0.0587
14757W        W31018  17.942   1.515   5.603 -0.2403  0.2603 -0.0083
14758W        W31019   1.255  14.406   1.102  0.0658  0.1062 -0.0275
14759W        W31020   3.785  14.154  14.130  0.3785  0.2955  0.0786
14760W        W31021   1.966  14.162  12.823 -0.1492 -0.1363 -0.0543
14761W        W31022  12.214   2.657  13.262  0.0293 -0.2215 -0.0898
14762W        W31023   7.466  17.068   4.231 -0.0277 -0.0568 -0.2928
14763W        W31024   6.753   3.091   2.108 -0.0879  0.0641  0.1217
14764W        W31025   2.344  10.106  14.763 -0.1060  0.1179  0.2539
14765W        W31026  16.064  15.733  14.788 -0.0159  0.0972 -0.2989
14766W        W31027  10.712  15.654  11.186 -0.0967 -0.1017 -0.1978
14767W        W31028   2.350  14.353  13.225 -0.3481 -0.3906 -0.1082
14768W        W31029   3.841   8.297   2.067 -0.2689  0.0054  0.3283
14769W        W31030  18.123  15.798  10.702  0.0635 -0.3131 -0.0412
14770W        W31031  14.482   3.905  12.532  0.1041  0.0714 -0.2651
14771W        W31032   6.842   5.921   2.863  0.0347 -0.0408  0.1857
14772W        W31033  12.444   3.208  12.015  0.3390 -0.1951  0.3396
14773W        W31034   7.950   8.249   3.472 -0.0676  0.0268  0.2448
14774W        W31035  10.082   0.321   1.317  0.5107  0.2806  0.0868
14775W        W31036   6.127  17.317   0.005 -0.1082 -0.2209 -0.2669
14776W        W31037   4.804   4.260   3.354 -0.1326 -0.0117  0.1442
14777W        W31038   7.244  11.450   3.846  0.1400  0.0940 -0.0080
14778W        W31039   9.904   2.642  10.326  0.4685 -0.1539 -0.1144
14779W        W31040  16.418   5.001   1.180 -0.0873  0.2083 -0.1539
14780W        W31041  12.368   5.772  12.192  0.1039 -0.2273 -0.1602
14781W        W31042  11.873   1.744   0.838 -0.4938 -0.2953  0.0621
14782W        W31043  18.153   4.454  13.936  0.0049 -0.0557 -0.0577
14783W        W31044   6.242  15.344  14.533  0.0495  0.0603 -0.3055
14784W        W31045   0.438   8.693   9.805 -0.1863 -0.1965  0.1765
14785W        W31046  14.090   2.574   1.301  0.2142 -0.4792  0.0424
14786W        W31047  17.179   2.428  13.763 -0.0438 -0.2902  0.1261
14787W        W31048   7.631   7.448   9.858  0.1130  0.1176 -0.4082
14788W        W31049   0.713  11.259  13.335  0.0106  0.0037 -0.0482
14789W        W31050   3.419  12.308   3.586  0.4199  0.1118  0.2722
14790W        W31051  11.937   4.177  10.414 -0.0497  0.0346 -0.2964
14791W        W31052  15.395  12.548  11.161 -0.2585 -0.3236  0.4182
14792W        W31053   5.528  11.699   0.777 -0.0560 -0.2209 -0.0426
14793W        W31054  18.043  15.751   2.285 -0.0403 -0.0477  0.0239
14794W        W31055  19.410   3.912   9.383  0.1204 -0.0256 -0.0614
14795W        W31056  12.533  19.218  14.536  0.3156  0.3310  0.3652
14796W        W31057  19.042   2.677   3.628  0.0598 -0.0392  0.2122
14797W        W31058   0.863  14.332  13.333  0.0004  0.1006 -0.2588
14798W        W31059   8.611   9.916  13.355 -0.2611 -0.1253 -0.1849
14799W        W31060   0.276   5.833   2.706 -0.0159 -0.2405 -0.3125
14800W        W31061  11.142   2.043  10.420 -0.3420  0.0316 -0.0456
14801W        W31062  12.443   3.587  13.060  0.0902 -0.0108  0.2480
14802W        W31063   5.797  16.977   4.175  0.0678  0.0635 -0.0425
14803W        W31064  13.962   6.438   1.732  0.2885 -0.1799  0.0633
14804W        W31065   0.356   2.584   1.287  0.1183 -0.4011  0.2326
14805W        W31066   5.007  12.341   2.951 -0.1479  0.3257 -0.3032
14806W        W31067  13.394  15.942   3.889  0.1308  0.1429  0.3906
14807W        W31068  18.406   9.590   4.839 -0.0627  0.2378 -0.0751
14808W        W31069  16.514  15.238  11.449 -0.0887  0.3589  0.0314
14809W        W31070  10.160   3.923   1.173  0.1004 -0.1582 -0.0219
14810W        W31071  11.832  19.290   5.605 -0.0846 -0.1571  0.1857
14811W        W31072   3.342   0.278   3.329 -0.0680 -0.1959  0.0946
14812W        W31073  10.940   6.422   0.992 -0.1463  0.5399 -0.1757
14813W        W31074   9.274  13.936   1.402  0.0615 -0.1294  0.3417
14814W        W31075   8.825   2.933   3.404 -0.0473 -0.0428 -0.2322
14815W        W31076  14.749   7.034  12.739 -0.2060 -0.2909 -0.2197
14816W        W31077   8.040   3.050  13.082 -0.1514  0.0191 -0.0003
14817W        W31078   1.008  10.026   0.963 -0.1020  0.0585  0.2238
14818W        W31079   3.274  16.052  10.740 -0.0052  0.0273  0.2159
14819W        W31080  13.011   9.638  11.938 -0.2655  0.0904  0.1700
14820W        W31081  18.528  16.495   0.316  0.0318 -0.0619  0.1069
14821W        W31082   5.161  17.079  13.883  0.1639  0.2789 -0.5396
14822W        W31083  16.881  11.368  12.119 -0.0118 -0.1228 -0.0388
14823W        W31084  17.211   4.540  14.378 -0.0657 -0.4194 -0.0908
14824W        W31085  13.796   1.635  13.684 -0.1595  0.1073  0.1077
14825W        W31086  12.469   2.418   3.256  0.0846 -0.0621  0.0587
14826W        W31087   0.612   5.591   3.068 -0.3130  0.1099 -0.2909
14827W        W31088   2.080  15.487  11.379 -0.1522 -0.3762  0.0366
14828W        W31089   0.478  13.261  12.687 -0.1037 -0.0864 -0.2699
14829W        W31090  12.182  16.063   1.841  0.4540 -0.2271 -0.0656
14830W        W31091  18.081  10.597  14.385  0.1652 -0.1485 -0.0669
14831W        W31092   9.254  15.594   3.790 -0.0773 -0.0754  0.0435
14832W        W31093   5.859   9.259   4.371 -0.3020 -0.0149  0.1785
14833W        W31094   4.914   3.527  10.525 -0.1193 -0.1658  0.0988
14834W        W31095  16.046   8.242   9.520  0.1621 -0.0441  0.3099
14835W        W31096  14.454   0.238   0.141 -0.2569 -0.2233  0.1500
14836W        W31097   2.368   2.103   3.684  0.1443 -0.0946  0.0834
14837W        W31098   4.733   9.107  14.172 -0.0587  0.3627 -0.0046
14838W        W31099   4.046  17.474  12.300 -0.0826 -0.0015 -0.0859
14839W        W31100  12.159  15.983  11.604 -0.0081  0.1367  0.0906
14840W        W31101  14.559   1.949   2.359  0.2189 -0.0432  0.0400
14841W        W31102  10.715  12.759   2.044  0.1144  0.2247 -0.2719
14842W        W31103   4.813   5.501   0.225 -0.0171 -0.2686  0.1923
14843W        W31104  11.215  14.447   2.729 -0.1525  0.4409 -0.1262
14844W        W31105  13.274  14.474  14.744 -0.0006  0.1882 -0.1721
14845W        W31106  11.751   7.056  10.796  0.0671  0.0123 -0.1662
14846W        W31107   7.732  16.663  12.079  0.1022  0.4231  0.2220
14847W        W31108   0.621   8.078  14.207 -0.1642  0.1151  0.0119
14848W        W31109   6.789   2.713   9.584  0.0883 -0.0510 -0.1299
14849W        W31110   4.111  10.357   4.101  0.3601  0.1754  0.0399
14850W        W31111   9.170  10.217   3.560 -0.1308 -0.2036  0.1633
14851W        W31112  11.661   2.192   1.779  0.1428  0.0529  0.1467
14852W        W31113   8.042  13.006  13.945  0.2568  0.1688 -0.0143
14853W        W31114   6.863  17.052   2.798 -0.0328  0.1645  0.3067
14854W        W31115  13.868   5.726   4.299  0.0237 -0.0159 -0.2409
14855W        W31116   4.240   7.672  10.431 -0.1235 -0.0349 -0.0535
14856W        W31117   8.013   5.753  13.006  0.2143  0.0487  0.1695
14857W        W31118   6.070  15.466   2.603 -0.1315 -0.0429  0.1806
14858W        W31119  11.764  16.338   1.658  0.0402  0.1440  0.4697
14859W        W31120  15.000  11.375  13.074 -0.0204  0.2598  0.0263
14860W        W31121  12.066  16.495  14.451 -0.1583 -0.0079  0.2417
14861W        W31122   9.613  16.600  14.413 -0.1029  0.0185 -0.1208
14862W        W31123  11.291  11.206  11.740  0.0778  0.2520 -0.0685
14863W        W31124  14.140   4.986  13.052 -0.1596 -0.0464 -0.2182
14864W        W31125  13.565   5.812  13.315  0.2942 -0.2161 -0.2137
14865W        W31126   0.509   8.540  10.705 -0.0022 -0.1104  0.0451
14866W        W31127   1.047  10.914   9.745 -0.1462 -0.0583 -0.1553
14867W        W31128   7.310   2.925   2.217 -0.2170  0.0331  0.0601
14868W        W31129  18.618  13.648   9.511 -0.1419 -0.3627 -0.0938
14869W        W31130  14.653  16.857   4.948 -0.1930 -0.0463  0.3076
14870W        W31131  13.279   9.198  10.746 -0.0672 -0.1456 -0.1084
14871W        W31132   9.678  12.534  11.624 -0.5080  0.0999 -0.0373
14872W        W31133  12.964   6.344   3.319  0.0717  0.0738 -0.2320
14873W        W31134   1.021  16.259   3.777  0.0678  0.0698  0.0965
14874W        W31135   1.652   1.047   2.871 -0.0093  0.0498  0.0813
14875W        W31136  13.563  14.402   4.557  0.1558  0.1574 -0.0312
14876W        W31137   9.650  11.906   3.243 -0.1253  0.2409  0.0918
14877W        W31138   3.645   3.189  10.005 -0.1543 -0.2619  0.0549
14878W        W31139  18.334  10.729   1.010 -0.1806 -0.0807 -0.2034
14879W        W31140  16.835   4.934   4.888  0.2659 -0.1085  0.2267
14880W        W31141   8.549   3.999  11.626  0.0615 -0.2206 -0.0379
14881W        W31142   5.892   2.943   2.106 -0.2677  0.0768  0.1145
14882W        W31143   0.906   6.201   2.372 -0.1307 -0.0480  0.1069
14883W        W31144   3.419  13.672  10.713  0.1836 -0.3085  0.0401
14884W        W31145   3.461   2.113  13.997  0.0208  0.0315  0.0206
14885W        W31146   7.283   7.516   2.325 -0.0713  0.4123 -0.0577
14886W        W31147  16.985  13.459  11.251  0.1937 -0.0716  0.0797
14887W        W31148  17.302  10.728   4.286 -0.1990  0.0319 -0.1500
14888W        W31149   5.255   1.084  12.519 -0.1566 -0.2291  0.4424
14889W        W31150   3.536   1.416  14.554 -0.1296  0.0757  0.1650
14890W        W31151  19.200   7.660  12.164  0.0815 -0.0271  0.4021
14891W        W31152  15.976  10.620   4.846  0.0468 -0.4898  0.1244
14892W        W31153   2.434  15.728   2.372  0.0108 -0.4532 -0.1585
14893W        W31154  12.350   2.962   2.862  0.2074  0.4013 -0.0965
14894W        W31155  12.519   3.201  11.001  0.1096  0.0976  0.0743
14895W        W31156  18.106   1.117  12.277 -0.0948 -0.0764  0.0076
14896W        W31157   4.094  11.464   2.213  0.0685 -0.0349  0.3835
14897W        W31158  19.278  17.385   2.577 -0.0894 -0.2063 -0.2055
14898W        W31159   5.874   1.128   3.743  0.0736  0.1425 -0.2814
14899W        W31160   0.994  14.415   3.504  0.0766 -0.1605 -0.0377
14900W        W31161   3.891  15.910  11.866  0.2559  0.0887 -0.2028
14901W        W31162  17.106   9.446  14.292  0.3105 -0.1203  0.1430
14902W        W31163   1.096  15.925  13.256 -0.1382  0.0815  0.2574
14903W        W31164   4.575   9.967   0.224  0.0222  0.2304  0.0501
14904W        W31165   4.290   0.754   1.741  0.1119  0.1824  0.1119
14905W        W31166  12.881   0.823   2.208 -0.2808  0.2895 -0.0922
14906W        W31167  11.536   2.582   3.248 -0.2597  0.4324 -0.0904
14907W        W31168   4.724   7.197   3.916 -0.0330 -0.2734 -0.1791
14908W        W31169  15.950   7.461   3.662 -0.1311  0.1368  0.3750
14909W        W31170   1.633   9.618  10.496 -0.2472 -0.2388 -0.3448
14910W        W31171  15.952   0.062   1.296  0.0513  0.0157 -0.1567
14911W        W31172   2.909   7.932  13.417 -0.1068  0.2439  0.0387
14912W        W31173  11.771  15.350  11.917  0.3707 -0.0129  0.0840
14913W        W31174  16.787   4.430   4.555  0.3837  0.2001  0.1353
14914W        W31175   3.654  19.111   3.595 -0.0283 -0.0698 -0.1026
14915W        W31176  11.826  18.199  14.004 -0.0597 -0.2126  0.0028
14916W        W31177  16.846   7.892   0.084  0.1951  0.1318  0.2136
14917W        W31178   4.083   1.307   5.080  0.1022 -0.1203 -0.0998
14918W        W31179  16.427  18.923   2.595 -0.1547 -0.1319 -0.3246
14919W        W31180   4.790  13.412   3.568 -0.1907 -0.1027 -0.1028
14920W        W31181  10.853   4.699  10.420 -0.0557  0.1314 -0.1382
14921W        W31182  14.924   9.665   4.705 -0.2400  0.0873  0.0061
14922W        W31183   0.894   6.630  11.408 -0.3193  0.1646  0.1183
14923W        W31184   7.185  12.879  14.361  0.1441 -0.0998  0.1574
14924W        W31185   0.068   0.866   3.883 -0.0292  0.0152 -0.1166
14925W        W31186   0.182   2.523   2.273  0.2205 -0.2402  0.1677
14926W        W31187   1.579  18.157  12.771  0.2633  0.2778 -0.0764
14927W        W31188  10.400   5.362  12.674 -0.1711 -0.1862  0.2558
14928W        W31189  17.166   5.210  11.690  0.2430 -0.0857 -0.0675
14929W        W31190  12.068   6.066  14.233  0.0649  0.0242 -0.1559
14930W        W31191   2.032  11.704  12.411  0.1677 -0.2890 -0.1235
14931W        W31192   7.701   4.396   1.547 -0.0620 -0.1418  0.0343
14932W        W31193  12.860   9.761   4.968 -0.2147  0.3110  0.3344
14933W        W31194   8.877   9.418   2.292  0.1654  0.0838  0.1344
14934W        W31195  16.967   7.305  10.781 -0.1962  0.0592  0.1716
14935W        W31196  15.295   5.672  10.951  0.0412  0.0541 -0.2024
14936W        W31197  10.739   8.083  10.327  0.0448 -0.1531  0.2213
14937W        W31198  15.778  19.270  11.151  0.1954 -0.0129 -0.2833
14938W        W31199   7.060   8.610   1.311 -0.0845  0.3331 -0.3902
14939W        W31200   2.311  16.591   3.506  0.2129  0.3382  0.1288
14940W        W31201   5.618  13.433  10.423  0.4638 -0.0906 -0.0413
14941W        W31202  13.498  17.469  11.474  0.1801  0.2365  0.1700
14942W        W31203  14.791   9.867  13.156  0.0437 -0.3617  0.1309
14943W        W31204  12.788  10.873   0.786 -0.0846 -0.2104  0.1360
14944W        W31205   9.179   0.405   5.455 -0.0800 -0.1986  0.2552
14945W        W31206  13.305  19.409  12.609  0.1921  0.3188  0.1546
14946W        W31207  13.856   9.908  11.969  0.1007 -0.0500 -0.0156
14947W        W31208   3.578   7.220  10.476 -0.2479  0.1719 -0.1916
14948W        W31209  10.797   6.840  12.954  0.1311  0.0440  0.1233
14949W        W31210   3.990  15.078   3.932  0.2140  0.5051  0.1406
14950W        W31211   2.321   9.318  13.640  0.0487 -0.0356 -0.2205
14951W        W31212   5.735   3.836  10.195  0.1941  0.2164 -0.3149
14952W        W31213  12.127  14.673   2.105 -0.2551 -0.1879 -0.4330
14953W        W31214  10.644   8.416   2.914  0.1179 -0.1234  0.0365
14954W        W31215  12.440   9.844   2.158 -0.0226  0.1655  0.2637
14955W        W31216   5.290  15.852  11.677  0.2050 -0.0967  0.1648
14956W        W31217   2.676  12.135  12.811  0.0227 -0.2238 -0.4542
14957W        W31218   4.331   9.642  14.304  0.2326 -0.3536 -0.2008
14958W        W31219   8.493  14.758   3.059  0.2670 -0.1785 -0.0132
14959W        W31220   7.985   0.974   0.201 -0.0827 -0.3700  0.4721
14960W        W31221  16.125  12.871  12.957  0.0839 -0.0893  0.0953
14961W        W31222   9.622   9.311   3.244 -0.0370 -0.2009  0.1259
14962W        W31223   9.257   8.542  12.586  0.0138  0.2865 -0.1830
14963W        W31224   2.564   1.955   0.229 -0.0528 -0.1339 -0.0273
14964W        W31225  17.164   9.542  12.651 -0.0839  0.0900 -0.0425
14965W        W31226  16.612  13.598   2.260 -0.0362  0.0010 -0.2970
14966W        W31227  16.940  16.584   1.614  0.1503 -0.0517  0.1099
14967W        W31228   9.940   5.904   9.449 -0.0013 -0.1161 -0.0274
14968W        W31229   8.727  10.184   4.435 -0.1414  0.1393  0.1815
14969W        W31230  12.765   5.452   4.515 -0.0060  0.0720  0.3622
14970W        W31231  13.738   1.605   2.799  0.3813  0.0464  0.1544
14971W        W31232  17.742  19.486  12.529  0.0563  0.2211  0.1749
14972W        W31233  10.958   5.859   2.687 -0.1035 -0.0585 -0.1752
14973W        W31234   8.220  13.054  11.706 -0.0628  0.0711 -0.3159
14974W        W31235  12.045   1.423  14.412  0.2161  0.1652 -0.1082
14975W        W31236   6.903   2.187  12.135  0.1635  0.1683 -0.0204
14976W        W31237   2.777   3.668   2.198 -0.0275  0.0528  0.0934
14977W        W31238  15.995  11.677   4.930  0.1743  0.3645 -0.0000
14978W        W31239  10.770   4.504  10.928  0.1428 -0.2500 -0.0876
14979W        W31240   0.354   6.085  11.453  0.0741  0.1046  0.2114
14980W        W31241   7.287   1.831   0.986  0.0846 -0.0883  0.2386
14981W        W31242  14.888   9.278  13.451  0.1796 -0.1412  0.1725
14982W        W31243   2.155  13.495   1.540 -0.1447 -0.4530  0.1316
14983W        W31244  13.377  12.154   1.550  0.1291  0.0877  0.2984
14984W        W31245  15.104  12.404  11.895 -0.1238  0.1977 -0.1919
14985W        W31246  10.933   1.051   2.291  0.1921 -0.0052  0.0160
14986W        W31247   1.271  13.990  14.559  0.1492  0.0280 -0.0832
14987W        W31248   5.616   6.246  10.623  0.0540 -0.0323 -0.0104
14988W        W31249   7.684  16.137  12.872  0.0758  0.0440  0.0526
14989W        W31250  13.672   3.839  11.939  0.3277 -0.0353  0.1944
14990W        W31251  11.784   7.889   0.169 -0.1852 -0.3038  0.0184
14991W        W31252   0.746  10.673  13.831 -0.1835  0.1440 -0.5068
14992W        W31253   8.002  17.985   4.517 -0.2707  0.0845  0.2687
14993W        W31254  18.652   9.555  13.860 -0.0379  0.2331  0.3621
14994W        W31255   0.966  18.703  11.913  0.3492 -0.4233 -0.4392
14995W        W31256  15.046  10.423   1.252 -0.1419  0.1550  0.0842
14996W        W31257  18.307   2.307   3.136  0.3280 -0.2580 -0.1526
14997W        W31258   3.628   4.276   2.438 -0.3147 -0.4590  0.1902
14998W        W31259   6.329  13.435  13.289 -0.1185  0.0162  0.0092
14999W        W31260   1.610  19.264  11.336 -0.1891 -0.0418 -0.0617
15000W        W31261  12.263   6.818   4.366  0.1960  0.0253 -0.0481
15001W        W31262  10.836  17.083   3.338  0.2337 -0.2295  0.2313
15002W        W31263   4.092  11.991  14.306 -0.0742  0.0790  0.0317
15003W        W31264   8.009  15.622   5.338  0.0843 -0.3739 -0.0294
15004W        W31265   6.108  10.664   0.521 -0.2693  0.1623 -0.1586
15005W        W31266  12.538   8.041   3.117 -0.1043 -0.0785  0.1703
15006W        W31267  12.767  13.957  12.711  0.4340  0.2219  0.0381
15007W        W31268  10.067   1.136   2.697  0.0210 -0.0714 -0.0959
15008W        W31269   0.350   9.619   1.990  0.0374 -0.0944  0.2945
15009W        W31270  11.936  10.425   5.757 -0.2502 -0.1701 -0.1306
15010W        W31271  15.894   2.883   4.930 -0.1921 -0.3565  0.0261
15011W        W31272  17.669   8.618   0.800  0.1094 -0.2068 -0.1819
15012W        W31273   7.122   1.537   2.917  0.0191 -0.1881 -0.4457
15013W        W31274  12.737  12.935  13.066  0.1255 -0.2167 -0.0859
15014W        W31275  15.416   5.726  10.468  0.0048  0.1626  0.1662
15015W        W31276   7.536   4.796  13.364  0.0213 -0.1290  0.2812
15016W        W31277  11.776  17.442  12.156 -0.0178  0.1293  0.0590
15017W        W31278  16.757  17.738   4.112 -0.3648 -0.4159  0.1457
15018W        W31279  15.166  12.717   2.895  0.1929 -0.3319 -0.1491
15019W        W31280   1.368  10.242   2.940  0.0435 -0.1523  0.1574
15020W        W31281  18.022  13.717  13.523 -0.0766  0.0097 -0.3919
15021W        W31282   8.385  14.352  12.944  0.2557  0.1274 -0.2877
15022W        W31283   8.341  10.802   2.065  0.0580 -0.2588  0.0527
15023W        W31284  12.807   1.874   5.135 -0.2163  0.1739 -0.0177
15024W        W31285   0.269  16.540  11.629  0.2775 -0.1531 -0.2543
15025W        W31286   5.085  16.947   1.197 -0.2424 -0.1820 -0.1180
15026W        W31287   2.913   4.391   4.371 -0.4791 -0.4536  0.2030
15027W        W31288   2.265   9.500   4.721 -0.0970  0.1163  0.0782
15028W        W31289  13.257   2.077   4.964 -0.1709  0.0224 -0.0277
15029W        W31290  15.692  16.067  14.423  0.0317  0.0611 -0.1136
15030W        W31291  16.435   8.419  12.073  0.3160 -0.0958 -0.4777
15031W        W31292   7.210  19.417   3.926 -0.1814 -0.2839  0.1508
15032W        W31293   0.059   6.661   3.782 -0.2812  0.0986 -0.3945
15033W        W31294  15.819   0.666   3.798  0.0350 -0.2984  0.1611
15034W        W31295  16.568  19.337   1.976  0.1077  0.1821  0.0136
15035W        W31296   3.036   0.670   2.129 -0.2569 -0.0010 -0.2709
15036W        W31297  10.007  12.378  10.909 -0.2601 -0.1432  0.2913
15037W        W31298  15.330  11.585   4.207  0.1610  0.1615  0.0572
15038W        W31299  11.105   7.595   4.138 -0.1804 -0.0536 -0.1507
15039W        W31300   3.953   5.645   0.167 -0.1700  0.1445 -0.2543
15040W        W31301   5.556   0.583   3.789  0.5324 -0.0372  0.0074
15041W        W31302   5.923  10.952   0.920  0.2730 -0.0025  0.1656
15042W        W31303  11.100   9.575   9.808  0.1557 -0.2043  0.0206
15043W        W31304  10.213   2.906  10.039  0.1235  0.1985  0.4993
15044W        W31305   0.628   3.604  10.502 -0.1052  0.1063  0.0389
15045W        W31306  16.446   3.449   2.125  0.0608  0.0058 -0.0167
15046W        W31307  19.400  10.134   1.607 -0.3263 -0.1211  0.2578
15047W        W31308   9.797   9.875  11.224  0.3038  0.0596  0.2195
15048W        W31309   7.232   1.808  12.167  0.1670  0.2477  0.0473
15049W        W31310  18.759   6.664  11.942 -0.2953 -0.3101 -0.2687
15050W        W31311   4.114   3.838   9.695 -0.0816 -0.0762 -0.1050
15051W        W31312  11.103   2.544   4.615 -0.1124 -0.2799 -0.2589
15052W        W31313   9.023  19.404  14.651  0.1241 -0.0529  0.0915
15053W        W31314  10.475  11.812  12.232  0.2256  0.1998 -0.0565
15054W        W31315   5.759   8.039  14.117  0.2552 -0.1576 -0.1984
15055W        W31316   2.992   8.345   3.034 -0.0166  0.1457 -0.0011
15056W        W31317   2.850  12.260   3.312 -0.2887 -0.0224  0.0112
15057W        W31318   8.296  16.346   2.536  0.1996  0.0601  0.0509
15058W        W31319  17.618  14.885   4.920 -0.0569 -0.0421 -0.2243
15059W        W31320   9.295  10.234  13.746  0.2259  0.2235  0.2955
15060W        W31321   2.515   8.888  13.672 -0.0780  0.1063 -0.3549
15061W        W31322  17.360  11.366  10.962 -0.0141  0.4584 -0.2265
15062W        W31323   9.821   8.306  14.666 -0.1841 -0.1013  0.0434
15063W        W31324   1.057   5.723   3.188 -0.0560 -0.0188 -0.1088
15064W        W31325  17.717   2.426   4.643  0.0044 -0.4155 -0.2937
15065W        W31326  12.292  15.432  10.926 -0.1655  0.1378 -0.0468
15066W        W31327  17.413  16.991  12.814 -0.1524 -0.3408 -0.0462
15067W        W31328  17.779  14.744   3.176  0.0803  0.0593  0.1294
15068W        W31329   7.525   4.331  13.054 -0.1857  0.2644  0.2137
15069W        W31330   1.249  17.592   3.956 -0.0189 -0.0399  0.0374
15070W        W31331   7.464  17.760   3.712 -0.0368 -0.0490 -0.0161
15071W        W31332   0.187  18.918  14.541  0.1701 -0.3056  0.1392
15072W        W31333  17.724  12.716   0.634  0.1957 -0.1799 -0.2344
15073W        W31334   3.707   4.666  10.891  0.1730 -0.0887  0.0219
15074W        W31335  12.749  17.233   1.962  0.3146  0.4873 -0.0342
15075W        W31336   3.390  10.474   2.345  0.1830  0.1908 -0.1420
15076W        W31337   7.846   6.379  12.852 -0.0536 -0.0874  0.0055
15077W        W31338  13.388   7.358   1.824  0.0516 -0.3603 -0.2463
15078W        W31339  12.329  19.260   4.819 -0.1041  0.2013 -0.3135
15079W        W31340   7.816   4.120   2.814 -0.1799 -0.1718  0.2834
15080W        W31341  17.044  16.660  13.774 -0.1793 -0.1594 -0.4019
15081W        W31342  18.911   0.486   0.242  0.1927  0.0188 -0.0992
15082W        W31343   7.528   4.189  11.394 -0.2148  0.1079 -0.0549
15083W        W31344   2.610  14.360   2.231 -0.2770  0.1674 -0.3440
15084W        W31345  15.734  15.674   1.393  0.3752  0.1948  0.1261
15085W        W31346  17.099   0.733  12.573 -0.5090 -0.2191  0.1655
15086W        W31347   8.645   8.171   4.099 -0.1429  0.0703 -0.0259
15087W        W31348   4.210  13.357   0.846 -0.3680 -0.1065  0.1889
15088W        W31349   0.759   0.054   3.740  0.1593 -0.1328  0.0110
15089W        W31350   9.720   6.125   0.526  0.1434  0.1133 -0.1784
15090W        W31351  17.181  19.019  13.177 -0.3628  0.1668  0.0473
15091W        W31352   6.705   9.557  13.166  0.0974  0.2475  0.0008
15092W        W31353  10.477   0.141   4.311  0.1082  0.1092 -0.0238
15093W        W31354  15.536  14.790   4.180  0.0565 -0.1432  0.1968
15094W        W31355   7.514  15.514  12.333  0.0890  0.0609 -0.3971
15095W        W31356   5.289   8.306   0.793  0.0817 -0.0683  0.1476
15096W        W31357   0.312   9.873  11.594  0.0200  0.0681 -0.0975
15097W        W31358  15.194   7.222  10.703  0.0472 -0.1981 -0.1639
15098W        W31359   4.610  10.943   2.735 -0.1375  0.1617 -0.0840
15099W        W31360  17.528   1.519  12.895 -0.1104  0.0097 -0.2022
15100W        W31361   3.069   2.477   4.162  0.3322  0.2469 -0.1841
15101W        W31362   4.121  10.248   0.214 -0.0586  0.1189  0.1720
15102W        W31363  15.310  17.635   2.774  0.3216  0.1436 -0.0209
15103W        W31364   5.727  11.523   3.213  0.0086 -0.2648 -0.0575
15104W        W31365  14.128  18.169  12.036 -0.1945  0.0209  0.1080
15105W        W31366   2.030   1.118   1.692 -0.3197 -0.1771  0.0464
15106W        W31367   8.522  19.380  11.979 -0.2783  0.2419 -0.1001
15107W        W31368  19.055   1.286  13.428 -0.0154  0.0699 -0.2480
15108W        W31369   6.528  10.338   2.613 -0.3724 -0.1900  0.2189
15109W        W31370  14.027  12.431  11.178  0.1577  0.0780  0.0864
15110W        W31371  11.489  12.929   2.312  0.0567 -0.1263  0.1026
15111W        W31372  17.839  11.846   0.590 -0.4227  0.0568 -0.0851
15112W        W31373  17.940  14.965  13.220  0.0191 -0.2050  0.3279
15113W        W31374   1.724   5.572  12.119  0.1168  0.0275  0.0012
15114W        W31375   8.766  17.953   4.891 -0.0421 -0.2406 -0.2941
15115W        W31376  13.547  16.860   4.940 -0.1673 -0.0488  0.2438
15116W        W31377  14.897   2.539  11.823 -0.3355  0.0668  0.0167
15117W        W31378  18.594  13.910   0.915  0.0111 -0.2321 -0.0823
15118W        W31379   2.343  15.822   1.855  0.4368 -0.2277 -0.0058
15119W        W31380   4.146  13.828   3.446 -0.0745  0.0517  0.4179
15120W        W31381  13.747   8.266  12.001 -0.0417 -0.0156 -0.0283
15121W        W31382  15.179  12.073  12.358  0.1526  0.1534 -0.2994
15122W        W31383   9.882  11.381   3.235  0.0117 -0.2819  0.0412
15123W        W31384   1.330  13.159  12.916  0.4189 -0.1314 -0.2736
15124W        W31385  13.317  11.543   6.104  0.1897  0.1642  0.2892
15125W        W31386  18.288   3.110   2.615 -0.0178 -0.2427  0.1006
15126W        W31387   5.284   1.899  11.085  0.2907  0.0839  0.2652
15127W        W31388   6.350   5.144  12.432  0.2152 -0.0903  0.2000
15128W        W31389   0.084  12.589   1.083 -0.3097 -0.3045  0.0441
15129W        W31390   2.151  15.917  12.892  0.0673  0.1149 -0.1781
15130W        W31391   1.151  16.488  11.877 -0.1052 -0.0816  0.3322
15131W        W31392  10.933   8.823   5.112 -0.1444  0.4098 -0.3047
15132W        W31393   7.307  16.590   4.904 -0.0477 -0.0598  0.2245
15133W        W31394  13.973   7.636  10.184  0.0859  0.3961  0.1144
15134W        W31395   7.670  15.361  11.525 -0.0815 -0.0684 -0.0636
15135W        W31396  10.867  18.066   2.590 -0.3958  0.0509 -0.0903
15136W        W31397  11.898  16.238  12.582  0.0896 -0.1658 -0.0317
15137W        W31398  18.550  10.886   0.343 -0.0843 -0.1067  0.0120
15138W        W31399   1.407   8.711  14.345 -0.3042  0.1039  0.1671
15139W        W31400  14.759  17.470   4.178  0.0027  0.0049  0.1216
15140W        W31401  12.043   3.134  10.684 -0.2364 -0.2075  0.1278
15141W        W31402   5.981  15.712  12.685  0.0251 -0.0000  0.0366
15142W        W31403   5.902  14.825  11.076  0.0370  0.1483  0.1144
15143W        W31404  14.530   0.806  12.483  0.2943  0.1906  0.0746
15144W        W31405  12.846  14.506   3.880 -0.0514 -0.1205  0.0532
15145W        W31406  14.458  10.725   2.175 -0.0078  0.0089 -0.2206
15146W        W31407   5.093  12.048   4.033  0.1176  0.0472 -0.0915
15147W        W31408  17.084  14.018   3.613 -0.1191  0.0989 -0.0250
15148W        W31409  12.834  18.532  13.987 -0.2282  0.0194  0.1815
15149W        W31410   3.053   8.330   1.332  0.0527  0.1584 -0.0264
15150W        W31411  13.184  12.189  12.107  0.0336 -0.0516  0.0889
15151W        W31412  17.228   7.435  13.101  0.0073 -0.1161  0.1744
15152W        W31413  17.008   9.414   0.861  0.0694  0.0960  0.1459
15153W        W31414   3.074  11.254  13.804 -0.1750 -0.2171 -0.0615
15154W        W31415   6.393   7.171   2.637 -0.0689 -0.0317  0.0583
15155W        W31416  10.064  16.251   1.972 -0.2657 -0.0405 -0.1518
15156W        W31417   2.815   5.830   0.309 -0.2219  0.1098 -0.0494
15157W        W31418   8.608   0.720  13.389  0.1652 -0.2149 -0.0210
15158W        W31419  18.826  12.529  12.826 -0.0763 -0.2872 -0.2340
15159W        W31420  10.249  13.754   5.566 -0.0732 -0.2857 -0.0955
15160W        W31421   0.616  12.495  13.131  0.1054 -0.1257  0.0688
15161W        W31422  18.934  15.608   0.626 -0.2344  0.1437  0.1461
15162W        W31423   9.682   9.451   2.241 -0.0942  0.3733 -0.0237
15163W        W31424  12.779  14.919   4.840 -0.0834  0.2083 -0.3024
15164W        W31425  16.861  13.096   2.463 -0.1471 -0.0186 -0.3397
15165W        W31426   8.347   9.989  12.721  0.0362  0.0103  0.0354
15166W        W31427   0.967  18.544   2.816  0.2248  0.1646  0.0494
15167W        W31428   2.112  11.777   2.391 -0.1042 -0.2051 -0.4548
15168W        W31429  18.614  19.356  12.186  0.1073  0.1583 -0.3117
15169W        W31430  18.220   0.237   5.353 -0.0366  0.3042  0.2547
15170W        W31431  14.504   8.098  13.101  0.0326 -0.1593  0.3826
15171W        W31432   0.281   0.593  12.230 -0.1057  0.1391  0.0780
15172W        W31433   1.942  15.858   3.249 -0.0367 -0.4337  0.0663
15173W        W31434  11.592   8.610   3.733 -0.2460 -0.2521  0.0429
15174W        W31435   6.204   9.939  13.253  0.0247 -0.1176  0.0576
15175W        W31436  16.478   0.426   5.446  0.1258  0.1060 -0.0859
15176W        W31437   6.598   8.930  12.259 -0.0071 -0.1776 -0.1156
15177W        W31438   5.404  10.987   0.048  0.0608 -0.0400 -0.0069
15178W        W31439   0.659  16.486  10.898  0.1346  0.1106 -0.0439
15179W        W31440  11.066  17.088   2.782  0.1964  0.0863 -0.3114
15180W        W31441  12.973  15.558   2.821  0.0313  0.0220  0.2758
15181W        W31442  11.081   3.592  13.538 -0.0581  0.1596  0.1859
15182W        W31443   5.837  17.567   1.091 -0.3077  0.2242 -0.0472
15183W        W31444   7.257  11.821  14.046  0.2199 -0.0792 -0.0662
15184W        W31445   1.097   5.696   9.628  0.1953  0.0040  0.1063
15185W        W31446   8.179  16.258  14.473 -0.2106  0.0145  0.0856
15186W        W31447   4.264   9.981   2.812 -0.0552  0.3387 -0.4957
15187W        W31448   8.291  15.309  13.207 -0.0153 -0.2168  0.0926
15188W        W31449  17.251  18.493   3.991  0.1750  0.3232 -0.2100
15189W        W31450  15.455  16.535   0.416  0.0073 -0.4133  0.3919
15190W        W31451   9.865   7.116  12.258 -0.0397  0.1902 -0.0751
15191W        W31452   1.030   3.040   0.739  0.2946 -0.0193  0.2528
15192W        W31453   7.152   9.775   9.668  0.1079  0.0733  0.0740
15193W        W31454  18.487  13.509   0.140 -0.0134 -0.1371  0.1767
15194W        W31455  18.494   0.448  12.917  0.0506  0.1667  0.0259
15195W        W31456  18.591   8.890   1.271 -0.0223 -0.0413 -0.3928
15196W        W31457   3.069  11.420  14.351  0.1260 -0.0777 -0.1348
15197W        W31458  15.893   6.015   3.067 -0.0843  0.0797  0.3879
15198W        W31459  18.834   5.284  11.123 -0.0491  0.1536  0.0823
15199W        W31460   4.516   7.115   0.967  0.0725 -0.0982 -0.3568
15200W        W31461  11.158  14.262   5.415  0.1270 -0.1456 -0.0914
15201W        W31462   7.690  11.219   3.599  0.0132 -0.0604 -0.0592
15202W        W31463  16.372  19.292   1.356 -0.3471 -0.1847 -0.1302
15203W        W31464  17.148   5.626  13.061 -0.3630 -0.0592  0.1850
15204W        W31465  15.257  10.071   4.887  0.0505 -0.1356  0.4094
15205W        W31466   2.635  15.813  13.665 -0.2508 -0.2719 -0.0679
15206W        W31467  12.268  15.971  11.133  0.0162  0.0113  0.0745
15207W        W31468   7.501  13.560  14.071  0.0967  0.2068 -0.0226
15208W        W31469  15.119   9.634   5.176 -0.0706 -0.2293  0.2488
15209W        W31470  16.629  12.676   3.549 -0.2298  0.1886  0.0608
15210W        W31471   7.095  19.148  11.772 -0.1356 -0.0527 -0.3170
15211W        W31472   1.251  17.776   1.483  0.1502 -0.3275 -0.5273
15212W        W31473  13.685   5.935  11.467  0.0965  0.0418  0.0594
15213W        W31474   8.417   4.842  12.237 -0.1187 -0.0024  0.0140
15214W        W31475   8.999  15.806   4.621 -0.2832 -0.0951 -0.2744
15215W        W31476   1.936  13.033   2.398  0.0874  0.1441  0.0512
15216W        W31477   2.919   1.866   2.333  0.0379 -0.0031  0.2601
15217W        W31478   0.740  11.537   2.643  0.1683 -0.0769  0.1462
15218W        W31479   4.755  14.875   2.891  0.2414 -0.1649  0.0439
15219W        W31480  17.859  11.236   3.594  0.0143  0.0491 -0.3008
15220W        W31481   0.143  13.823   2.351 -0.4511 -0.0923  0.3217
15221W        W31482   2.804  16.965  10.115  0.2297  0.0304 -0.0731
15222W        W31483   9.550   8.949  14.168 -0.0243 -0.2488  0.1187
15223W        W31484   2.766  11.645  14.011 -0.2055  0.2129 -0.1126
15224W        W31485   7.351  11.117  12.645  0.3490 -0.1317  0.3777
15225W        W31486  11.101   6.996  14.234 -0.3826 -0.1378  0.0405
15226W        W31487  14.306  12.569   4.640  0.1003  0.1002  0.1327
15227W        W31488  14.037  15.310   0.155  0.1010 -0.2568 -0.5453
15228W        W31489  17.180   9.221  11.169 -0.1491  0.1472 -0.1661
15229W        W31490  16.173  18.342   3.212 -0.1966 -0.2050 -0.1242
15230W        W31491  15.030   2.650   3.850 -0.1609 -0.0746  0.1553
15231W        W31492  14.475   4.870  12.630 -0.1095 -0.0391 -0.2242
15232W        W31493  17.098  17.268  11.950  0.3579 -0.1213 -0.0226
15233W        W31494  12.647   9.989  14.691 -0.1080  0.0321  0.1054
15234W        W31495   4.793  19.307  14.423 -0.2042  0.0434  0.0144
15235W        W31496  15.754  10.269   3.250 -0.0330  0.3044  0.2493
15236W        W31497  18.548  18.115  13.744 -0.1841  0.2744 -0.0083
15237W        W31498   0.609  12.190   1.548  0.0765  0.0039 -0.0054
15238W        W31499  16.080   2.381   4.029 -0.1925 -0.0066 -0.2043
15239W        W31500  13.103  17.697   1.121 -0.1857  0.0161 -0.2997
15240W        W31501   5.250  18.748  12.194  0.2924 -0.0186  0.0702
15241W        W31502   2.325  10.597   5.308  0.0329 -0.1701 -0.1150
15242W        W31503   3.629  16.697   4.216 -0.0141 -0.0399  0.1008
15243W        W31504  17.243   1.898   3.423 -0.4483  0.1001  0.1939
15244W        W31505   2.774   9.881  13.547 -0.0531 -0.0555  0.0450
15245W        W31506  18.294   6.553  13.851  0.0874  0.0642 -0.3899
15246W        W31507  15.473   8.647   9.639 -0.1856 -0.1179  0.4560
15247W        W31508   4.984   9.162  12.208 -0.0862  0.0160 -0.0501
15248W        W31509   8.042  13.729   3.508 -0.1277 -0.1489 -0.1133
15249W        W31510   6.377   0.348   1.594  0.0747  0.1330  0.1230
15250W        W31511   6.996  15.941   1.772 -0.0247 -0.4179 -0.4200
15251W        W31512  15.954   3.127  12.691  0.0710  0.2631 -0.0663
15252W        W31513  11.348  12.271  11.226  0.0160  0.0175 -0.1016
15253W        W31514  18.953   7.561   2.692  0.0392 -0.0149 -0.4970
15254W        W31515   3.033   4.379  10.377 -0.5634 -0.0685  0.1041
15255W        W31516  10.482  16.288   3.722  0.0531  0.1948  0.0625
15256W        W31517   4.536  17.976   1.209  0.0589 -0.0843 -0.0971
15257W        W31518  18.375   7.266  14.171 -0.3785 -0.1935  0.2470
15258W        W31519   4.444   7.313  12.954 -0.2109  0.0894  0.2740
15259W        W31520   9.774   6.020  12.307 -0.1104 -0.0057  0.0500
15260W        W31521   5.966  10.129  11.238  0.2514  0.1524  0.1266
15261W        W31522  18.548   5.439  13.948 -0.1931 -0.2591  0.0216
15262W        W31523  19.307   8.218  11.405  0.2174 -0.0586  0.0842
15263W        W31524  10.716   5.104  11.644  0.4573 -0.2400 -0.0807
15264W        W31525   2.417  11.481  11.769 -0.0801 -0.1428 -0.1524
15265W        W31526   6.586  17.382  10.641 -0.0350  0.0689 -0.0071
15266W        W31527   4.692  13.401   4.067  0.0468 -0.1314  0.2529
15267W        W31528   8.195   1.866   9.675  0.3130  0.1628 -0.0410
15268W        W31529   3.608  13.805  10.231 -0.1296 -0.0233  0.2215
15269W        W31530  11.423  12.121  13.470  0.1907  0.2559 -0.1158
15270W        W31531  12.587   6.679   2.321  0.1592  0.2261  0.1841
15271W        W31532   6.904   5.931   4.328  0.0804  0.2487  0.0656
15272W        W31533  15.007   2.621   1.352  0.2771 -0.1343 -0.0955
15273W        W31534  19.383  15.695   0.910  0.0607 -0.1681 -0.1161
15274W        W31535  19.183   4.357  13.324  0.0417 -0.1633 -0.0876
15275W        W31536  17.398  16.357  11.506 -0.2694 -0.0206  0.1121
15276W        W31537   9.289  15.372  10.814 -0.0513 -0.2770 -0.2022
15277W        W31538  15.002   7.292  13.182  0.1625 -0.2463 -0.0277
15278W        W31539   7.302  18.669   1.366  0.1786  0.2246  0.0024
15279W        W31540  10.070  17.379   3.969 -0.1342  0.0938 -0.0089
15280W        W31541  18.274  11.508   0.259 -0.1763  0.2136 -0.0985
15281W        W31542  13.953  17.798   4.285  0.1746 -0.3457  0.2787
15282W        W31543  11.237   1.674   4.121 -0.0986  0.0698  0.0128
15283W        W31544   4.531   6.792   1.927 -0.2969 -0.3393 -0.3640
15284W        W31545   0.270  15.894   1.124 -0.7044 -0.0755  0.0975
15285W        W31546   3.774  11.175   3.397  0.1337 -0.2672 -0.1168
15286W        W31547   2.800  10.811   1.158 -0.2311  0.0824  0.3305
15287W        W31548   6.117  17.869   2.190  0.1739 -0.0041 -0.0568
15288W        W31549  18.223   8.203  11.369  0.0019  0.0655 -0.0695
15289W        W31550  19.295   7.968   2.601 -0.1748 -0.3436 -0.1078
15290W        W31551   6.519   3.494  14.357 -0.2164 -0.2584  0.1402
15291W        W31552  11.705   8.313  14.044  0.1743  0.1615  0.0039
15292W        W31553  19.024  12.825  11.652 -0.0395  0.2819 -0.0033
15293W        W31554   6.781  15.920  10.649 -0.1927  0.3078  0.0702
15294W        W31555   5.280   0.320  13.495 -0.0306 -0.0632 -0.0542
15295W        W31556   3.072   9.768   2.682 -0.1752 -0.1068 -0.1569
15296W        W31557   9.148  15.970  11.106  0.0389  0.1090 -0.2382
15297W        W31558  18.414   7.805  12.501  0.0085 -0.0192 -0.1383
15298W        W31559   7.190  18.491   1.942 -0.0709  0.2059  0.0727
15299W        W31560   2.753   8.613   3.930  0.0295 -0.0701  0.3538
15300W        W31561   8.601   7.663   3.944 -0.1792  0.0726  0.3562
15301W        W31562   7.269   1.633  10.354 -0.1319  0.2892  0.1068
15302W        W31563  10.562   9.488   2.857 -0.0802 -0.0313  0.1525
15303W        W31564   9.657  18.508   2.826  0.1823  0.0091  0.0011
15304W        W31565  16.845  13.810   1.432 -0.1032  0.1883  0.0093
15305W        W31566  15.384  14.494  13.670 -0.1197 -0.3023  0.1479
15306W        W31567  18.220  12.670   0.715 -0.1415  0.1693  0.0258
15307W        W31568  17.579   9.467  12.177  0.1685 -0.2054  0.0993
15308W        W31569  13.726   7.166   1.062 -0.1420  0.0510  0.0662
15309W        W31570  17.004  18.012   2.366 -0.0628 -0.0434  0.0220
15310W        W31571  17.641   8.183   2.644  0.1552 -0.1489  0.3481
15311W        W31572  16.370   6.169  12.493 -0.1718 -0.3027 -0.1489
15312W        W31573   1.735   1.484   1.379  0.0686  0.0342  0.1178
15313W        W31574   9.976  10.458   1.830  0.1935  0.3445 -0.0719
15314W        W31575   0.789   6.128  11.740 -0.1264 -0.3106  0.1779
15315W        W31576   9.823  16.709   3.391  0.3168  0.1362 -0.3582
15316W        W31577  12.132  16.453  11.664  0.0913  0.3265 -0.3123
15317W        W31578  16.302  17.672  13.448  0.3617  0.1576  0.1070
15318W        W31579  19.348  13.829   0.608  0.0119 -0.1539  0.0203
15319W        W31580  19.154  17.608   2.104 -0.0633  0.2512  0.1050
15320W        W31581  18.666   9.744   1.360 -0.4376 -0.1073 -0.0978
15321W        W31582   4.626  18.124  13.310 -0.1068 -0.0858 -0.0758
15322W        W31583  13.636   3.510   2.577 -0.1134  0.4887  0.2586
15323W        W31584  11.823  19.322  12.272  0.2962  0.3129 -0.1578
15324W        W31585  13.063  10.973  14.597  0.0753  0.0597 -0.1253
15325W        W31586  11.597   1.307   2.858  0.2432 -0.0100  0.0122
15326W        W31587  10.457  15.497   0.978 -0.1030  0.2054  0.1468
15327W        W31588   6.695  18.143  10.338 -0.3876 -0.0763 -0.0892
15328W        W31589   8.680   0.273   5.350 -0.0482 -0.2279 -0.0686
15329W        W31590   0.236   3.082  11.385 -0.0205  0.0228 -0.0227
15330W        W31591  12.288   7.989   3.656 -0.1608  0.0380  0.0288
15331W        W31592   8.991   7.826   3.663 -0.0133 -0.3127 -0.2167
15332W        W31593   5.385   5.284   1.951 -0.0857  0.0735 -0.3188
15333W        W31594   7.811  13.952   0.343 -0.0955  0.1098  0.2782
15334W        W31595  12.213  14.075  13.782 -0.2771  0.0928 -0.0406
15335W        W31596   4.582   7.901   2.619  0.1112 -0.1129  0.2100
15336W        W31597   8.635  10.105   1.593 -0.2311 -0.1399  0.0530
15337W        W31598   0.483  15.421  13.898 -0.2107 -0.0463  0.1579
15338W        W31599   5.166  16.941   2.510 -0.1699 -0.1129  0.1444
15339W        W31600  16.294  10.316   3.460  0.3962  0.3078 -0.1884
15340W        W31601  17.747   7.997  12.058  0.0370  0.0984  0.3402
15341W        W31602  12.784   0.349   0.343 -0.1452  0.1585 -0.1199
15342W        W31603   1.476  16.026   3.718  0.1394 -0.0810  0.0720
15343W        W31604  18.478   2.314   0.746  0.2524 -0.0453 -0.0862
15344W        W31605   6.823  10.765   0.000  0.1120  0.1226  0.2115
15345W        W31606   0.852  13.258  11.857  0.2040 -0.2844 -0.0870
15346W        W31607  19.353   8.779  13.944  0.2323  0.1082  0.0993
15347W        W31608   7.459  15.747  14.760  0.3613  0.0152  0.0082
15348W        W31609   4.515   0.871   0.842 -0.3391 -0.0436  0.0293
15349W        W31610   6.853  11.910   4.901 -0.1303 -0.1715 -0.1013
15350W        W31611   1.585   7.966  11.513 -0.0215  0.2687 -0.0567
15351W        W31612  16.698  18.379  14.683  0.4552 -0.0289  0.2648
15352W        W31613  14.552   4.287  13.993  0.0443 -0.1133 -0.0279
15353W        W31614  13.113  18.977   5.119 -0.0380  0.0252 -0.4154
15354W        W31615   0.380   6.047  13.770  0.3270 -0.1169  0.0868
15355W        W31616   6.432   7.521  11.388  0.0485  0.0381  0.0239
15356W        W31617   1.865   2.005   1.349 -0.0259 -0.2802  0.0678
15357W        W31618   1.833   0.558  13.949  0.2474 -0.1004 -0.1376
15358W        W31619   2.585   6.172  13.573  0.1319  0.0937  0.1688
15359W        W31620  11.211  16.982   0.363  0.0095  0.4358  0.2939
15360W        W31621  18.738   7.483   3.181 -0.1910 -0.0534  0.1563
15361W        W31622   2.329   4.068  11.604  0.2641 -0.2765 -0.2872
15362W        W31623   2.512  10.478  14.104  0.6490  0.1046  0.1089
15363W        W31624  15.159   0.991   3.304  0.1106 -0.1934  0.0196
15364W        W31625  15.650  10.898   4.503  0.0664  0.0617 -0.1658
15365W        W31626   6.518  12.296   2.175  0.1878 -0.1103  0.0016
15366W        W31627   0.651  14.054   3.701 -0.1904  0.1387 -0.0691
15367W        W31628   3.782  16.114  12.321 -0.0467  0.2010  0.0261
15368W        W31629   8.183  14.702   1.372 -0.0668 -0.1651 -0.2156
15369W        W31630   6.719  16.452  13.761  0.2004 -0.5448 -0.0244
15370W        W31631  16.012  13.271   5.015  0.2089 -0.1201 -0.1171
15371W        W31632  15.757  14.392   4.017  0.1489 -0.2375 -0.1990
15372W        W31633   1.450   3.214   3.098 -0.0595 -0.1291  0.1035
15373W        W31634   8.031   5.648  12.461 -0.2163 -0.1809  0.3016
15374W        W31635   6.616   9.894   2.840 -0.0885  0.0537 -0.2065
15375W        W31636  14.502  11.222   5.057  0.0002  0.1722  0.0402
15376W        W31637  17.696  17.617   4.989 -0.0171 -0.1709  0.1413
15377W        W31638  16.588   4.311   9.793  0.2996 -0.1491 -0.4071
15378W        W31639   9.603  14.547   0.902 -0.3159 -0.1579 -0.0305
15379W        W31640  12.952   0.923   1.610 -0.1012 -0.1631 -0.0321
15380W        W31641   7.618  10.883   0.190 -0.2150 -0.0607 -0.1830
15381W        W31642  10.427   0.432   0.578 -0.0056 -0.2654  0.1848
15382W        W31643   8.333   6.106   0.411 -0.2019 -0.1895  0.0018
15383W        W31644   9.647  15.920   2.406  0.0883  0.0123  0.1772
15384W        W31645   7.252  13.343  13.009 -0.1671 -0.1010  0.1355
15385W        W31646  14.195   6.549   5.087 -0.1585 -0.1825  0.0755
15386W        W31647   9.181   8.341  11.617 -0.3542  0.1192 -0.0957
15387W        W31648  10.295   9.208   0.009  0.1606  0.0099  0.2846
15388W        W31649   3.183   0.172   1.005 -0.0958 -0.0339 -0.0874
15389W        W31650  11.491   2.623   0.134  0.1889  0.0871 -0.0711
15390W        W31651  15.931  11.651   0.849 -0.1365 -0.3362  0.2478
15391W        W31652   7.577  15.893   2.960 -0.5664 -0.0269  0.1413
15392W        W31653   2.347  14.591  11.731  0.4835  0.1466  0.1465
15393W        W31654  15.131  14.793   2.336  0.2746 -0.1300  0.5399
15394W        W31655  11.321  11.598  12.213  0.0213 -0.3116  0.2257
15395W        W31656  12.538   2.795  12.174 -0.1130  0.1450  0.0696
15396W        W31657   4.383   1.815   0.546 -0.2740  0.3208 -0.0302
15397W        W31658   4.214  18.869  12.356 -0.0450 -0.2266 -0.2038
15398W        W31659  13.476  14.531  12.952 -0.0728  0.1266  0.0535
15399W        W31660   3.821   3.538   0.576 -0.0217  0.3981 -0.1592
15400W        W31661   7.244  18.117   1.408 -0.0540  0.0527  0.0825
15401W        W31662   9.692   7.744  13.064 -0.3832 -0.0506 -0.1719
15402W        W31663   5.407  17.638  14.376  0.1197 -0.1713 -0.0357
15403W        W31664   3.830  17.745   3.248  0.0979 -0.0029 -0.0241
15404W        W31665  17.592   5.664  14.766 -0.0558 -0.0391 -0.2314
15405W        W31666   7.999  14.092   2.704  0.2727  0.4261  0.0743
15406W        W31667  15.768   4.288  14.408  0.0020 -0.2626 -0.1578
15407W        W31668  17.542   6.433  13.344 -0.2953  0.0487 -0.0910
15408W        W31669   6.666  15.848  11.521  0.1156 -0.0048  0.2150
15409W        W31670   5.051   1.255   2.727 -0.0975  0.2140 -0.2121
15410W        W31671  10.540   0.824   1.021 -0.5296  0.1653  0.0875
15411W        W31672   0.086   0.057  12.000 -0.1146 -0.1695  0.2780
15412W        W31673  16.368   7.271   0.959 -0.2575 -0.0860  0.4554
15413W        W31674  17.639   2.044   3.038  0.2336 -0.0371  0.1054
15414W        W31675  18.202  16.889   4.769  0.0532 -0.2979  0.2888
15415W        W31676  13.465   9.540   0.456 -0.0755 -0.0053  0.1457
15416W        W31677   5.054   5.146  11.535 -0.1464  0.0511 -0.0487
15417W        W31678   1.886   1.529   3.149 -0.0815  0.1885 -0.3103
15418W        W31679  17.407  11.690   1.398  0.0739 -0.1459 -0.1315
15419W        W31680   9.739  18.577  13.043  0.2855 -0.5933 -0.1405
15420W        W31681  17.228   2.608  14.208 -0.4797 -0.0098  0.0310
15421W        W31682  19.055  10.014  12.824  0.0344  0.1144 -0.0444
15422W        W31683   6.156   6.455   9.784 -0.0422 -0.0843  0.1155
15423W        W31684  17.789  15.631  14.056 -0.2013 -0.0965 -0.2332
15424W        W31685   0.070  17.790  12.620 -0.0334  0.1307  0.1897
15425W        W31686   9.296   1.828  10.393  0.0740 -0.1595  0.0352
15426W        W31687   3.181   7.785   4.305  0.4960 -0.0757  0.0727
15427W        W31688   2.812   5.613  11.678 -0.0989  0.1990 -0.2858
15428W        W31689  18.037  18.511  10.373 -0.0445  0.1801  0.2357
15429W        W31690   9.687   3.121  12.693 -0.0069 -0.2182  0.1189
15430W        W31691   4.725   1.496   1.466 -0.2003 -0.3340 -0.1806
15431W        W31692   0.179   6.354   0.577  0.0097 -0.0951  0.2445
15432W        W31693   7.180  14.228   3.209  0.5150  0.0037  0.2423
15433W        W31694   5.176  11.555   1.103 -0.0631 -0.2171  0.1162
15434W        W31695   2.906   9.974  10.817  0.2137 -0.1878  0.0281
15435W        W31696   5.767  17.085   0.862 -0.2220  0.3344  0.1410
15436W        W31697  11.528   9.126   2.425  0.1937  0.0170 -0.4482
15437W        W31698  17.632   2.059  12.844 -0.0237 -0.2329 -0.1571
15438W        W31699   4.289   4.534  13.598  0.0630  0.0152 -0.3809
15439W        W31700   3.646   5.594   4.296  0.0390 -0.1411 -0.2017
15440W        W31701  18.739  15.823  12.310  0.0959  0.0667 -0.0922
15441W        W31702   9.531  18.430   2.215  0.3235 -0.1870  0.3690
15442W        W31703   5.927   4.210   0.961  0.3397 -0.0156  0.2074
15443W        W31704   8.670  10.146  11.865  0.2264  0.0780 -0.1129
15444W        W31705  14.519  14.118   0.547  0.0266  0.0185 -0.2629
15445W        W31706   2.947   4.113   4.847  0.0028  0.0240  0.0929
15446W        W31707   2.533  19.472   4.499  0.0847  0.4002 -0.1358
15447W        W31708   4.484  17.830  12.890 -0.2379 -0.1561 -0.1158
15448W        W31709  10.261   8.401   2.089  0.0783  0.2215 -0.0542
15449W        W31710  11.639  12.868  13.931 -0.3505 -0.0920 -0.1242
15450W        W31711  12.910  18.210  10.692  0.2252 -0.1580 -0.0053
15451W        W31712  17.298  15.894   4.208 -0.0752 -0.0417 -0.3261
15452W        W31713  16.905   7.701  13.830  0.0241 -0.1458  0.1049
15453W        W31714   1.865   9.770  12.199 -0.0356  0.0366  0.1542
15454W        W31715   1.180  19.327  13.001 -0.0788 -0.1608 -0.1203
15455W        W31716   1.568  11.429  10.576  0.2373  0.0177 -0.2281
15456W        W31717  13.056  13.013   4.801 -0.1279  0.0229  0.0820
15457W        W31718   4.249  15.838   5.360  0.2321 -0.0915  0.0697
15458W        W31719   1.668  12.675  14.738 -0.1414  0.0883  0.1133
15459W        W31720   3.412   0.484  12.947 -0.0500 -0.1643 -0.1855
15460W        W31721  14.171  17.364   1.130 -0.1477  0.1291 -0.0658
15461W        W31722   8.149   7.406   3.048  0.1595  0.2172  0.0773
15462W        W31723  15.669  11.453   5.229  0.1090  0.3036  0.1742
15463W        W31724  15.658  17.555   2.348  0.3652  0.1422  0.3115
15464W        W31725   1.753   8.040   2.663 -0.2395 -0.2171 -0.2119
15465W        W31726  13.842   0.886  13.967 -0.3070 -0.2832  0.0249
15466W        W31727   9.428   8.921   9.490 -0.0498  0.1036  0.0599
15467W        W31728   2.287   0.986  12.444  0.0201 -0.0150 -0.0264
15468W        W31729  11.699   5.547   2.310  0.0107 -0.1133  0.0347
15469W        W31730  13.244  12.542  12.401  0.3404 -0.4158 -0.2220
15470W        W31731  14.146   1.950   3.910 -0.0100 -0.2055 -0.3326
15471W        W31732   8.398   7.351   2.639 -0.1178 -0.0073 -0.0794
15472W        W31733  15.059  14.296   4.783 -0.0866 -0.3293 -0.1879
15473W        W31734  16.685  17.534   1.596  0.3459  0.0983 -0.1696
15474W        W31735   2.293  18.377   2.032  0.2815  0.0318  0.1810
15475W        W31736   4.157   4.912   2.348 -0.1080 -0.0568 -0.2680
15476W        W31737  19.045  18.647  13.367 -0.0967 -0.0293  0.2385
15477W        W31738   4.548  18.286  11.242 -0.1172 -0.1217 -0.0760
15478W        W31739   6.618   0.950  10.513 -0.2582 -0.1619 -0.0858
15479W        W31740   4.646  11.236   4.596 -0.2365  0.1738  0.0132
15480W        W31741   7.992  14.601   3.077 -0.1623  0.3239  0.2795
15481W        W31742  12.698  17.648  12.050  0.1265  0.0095  0.4739
15482W        W31743   2.346   4.467  11.935  0.2249 -0.2235 -0.1302
15483W        W31744   2.478  12.586   1.982  0.4667  0.0491 -0.2386
15484W        W31745   0.395   8.127   4.891 -0.0069  0.2650  0.1106
15485W        W31746  14.112   1.590   2.015  0.0426  0.0791 -0.2657
15486W        W31747   0.629  17.936   4.558  0.2303 -0.0473 -0.3522
15487W        W31748   2.867  11.279  12.708  0.2804 -0.1269  0.2071
15488W        W31749   0.212  15.900  12.893  0.0425 -0.1430 -0.2581
15489W        W31750   9.467  15.721   3.343  0.3679  0.2873 -0.1025
15490W        W31751   6.477  18.466  10.717  0.1250  0.2099 -0.3331
15491W        W31752   4.265   7.259   1.865  0.2858 -0.1195 -0.0554
15492W        W31753   3.504  13.127   3.500 -0.3219 -0.0785 -0.4540
15493W        W31754  18.638   5.192  13.163 -0.1573  0.0475 -0.0157
15494W        W31755  19.157   6.367   5.292  0.2672  0.0089 -0.4944
15495W        W31756   4.895  14.784  12.148  0.0122  0.4194  0.2737
15496W        W31757   3.939  10.551   4.503  0.4112  0.0115 -0.2757
15497W        W31758  17.669  13.801  14.096 -0.1512  0.0312  0.1214
15498W        W31759  14.284   0.774  13.021  0.0265 -0.1092  0.0365
15499W        W31760  13.518  10.872  14.031  0.0362 -0.2032  0.0727
15500W        W31761  11.823   2.908   1.423  0.0391 -0.0408 -0.1570
15501W        W31762  11.552   8.026  10.182  0.0749 -0.1210 -0.0313
15502W        W31763   9.395   3.316  10.703 -0.1162  0.0655  0.2509
15503W        W31764  14.864  14.356   2.120  0.2193  0.3946 -0.1026
15504W        W31765  10.166   5.156  10.463 -0.1558  0.1868 -0.0050
15505W        W31766  10.742   3.106  10.770 -0.2679  0.0895  0.0818
15506W        W31767  17.599  14.215  11.353  0.0330 -0.2003 -0.1254
15507W        W31768  12.731   4.744   4.109 -0.3931  0.0720 -0.1058
15508W        W31769  11.458  13.553   0.062 -0.0162 -0.2373 -0.0359
15509W        W31770  17.623  18.807   4.181  0.1499 -0.1185  0.0321
15510W        W31771   3.444  18.871   2.374  0.0394  0.3529  0.3189
15511W        W31772   2.573   8.606   1.035  0.1419  0.1080  0.1398
15512W        W31773  13.368   9.694  11.070 -0.2029  0.0623  0.0017
15513W        W31774   1.561  12.183  14.810 -0.0903  0.3172 -0.4861
15514W        W31775   0.873   9.739   1.966 -0.0256 -0.1338 -0.0653
15515W        W31776   8.272  17.491  12.862 -0.1469  0.2488 -0.0648
15516W        W31777  17.511   0.769  10.421  0.2651 -0.1345  0.0997
15517W        W31778  17.409  12.229  11.034 -0.2315 -0.0641 -0.0206
15518W        W31779   8.055  16.180   3.997 -0.0068 -0.0627  0.2084
15519W        W31780  15.054   9.707   5.714  0.3349  0.0687 -0.1380
15520W        W31781   8.988   4.176   3.390  0.1634  0.1591  0.1487
15521W        W31782  18.873   1.954   3.916 -0.2182  0.0829  0.2915
15522W        W31783  17.276  14.643   3.668  0.3173 -0.0137 -0.1968
15523W        W31784   2.165  14.960  12.653 -0.0514 -0.0450 -0.1458
15524W        W31785   9.190  10.648   2.830 -0.2413  0.3471  0.1879
15525W        W31786   9.471   7.379   1.760 -0.0649  0.2821 -0.0387
15526W        W31787   1.001   0.311  14.559 -0.3638 -0.0332  0.0143
15527W        W31788  11.135   9.794  13.293 -0.2424 -0.0610 -0.1829
15528W        W31789  10.281   9.386   4.485 -0.0887  0.1150 -0.2816
15529W        W31790  13.480  13.611   4.107  0.2279 -0.2291 -0.2164
15530W        W31791  13.183  11.083  11.676  0.1732  0.1057 -0.0774
15531W        W31792   2.825  18.144   3.918 -0.3659 -0.3367 -0.2556
15532W        W31793  12.352   8.211   5.491  0.0999 -0.1996  0.0169
15533W        W31794  12.428  12.758  14.089  0.1597  0.0411  0.0342
15534W        W31795  13.937   1.497   3.863  0.1564 -0.0943 -0.4346
15535W        W31796   7.277   2.407   1.857 -0.0422 -0.1003 -0.0287
15536W        W31797  13.323   0.906  14.045  0.0583 -0.2587 -0.1078
15537W        W31798  17.875  15.875   4.622 -0.1266  0.4986 -0.1434
15538W        W31799  18.728  10.719   9.311 -0.0967  0.1900  0.0674
15539W        W31800  14.791   1.655  12.468 -0.2284 -0.0225  0.0347
15540W        W31801  12.832   6.288   2.606 -0.1717  0.1110  0.0318
15541W        W31802  17.064   4.965   4.231 -0.0488  0.0664 -0.1146
15542W        W31803  16.742  19.467   2.437  0.2456  0.2344 -0.2573
15543W        W31804   3.856  15.317   2.014  0.0125 -0.3144 -0.2320
15544W        W31805   4.337  11.528   4.344  0.2200 -0.1516  0.3544
15545W        W31806  15.999  18.482   1.244  0.0349  0.1343 -0.0374
15546W        W31807   2.536   0.076  13.563  0.0004 -0.0893  0.2783
15547W        W31808  16.496   0.532  13.738 -0.2223  0.0868 -0.2595
15548W        W31809   1.109   2.784   1.725  0.2619  0.0408  0.3208
15549W        W31810   6.496  16.338   2.363 -0.2410 -0.0919  0.3066
15550W        W31811  10.946   1.073   3.519  0.1723 -0.0680 -0.1427
15551W        W31812   5.820   5.972  11.117  0.2491 -0.0321 -0.2763
15552W        W31813  12.082  12.674  11.731 -0.1728  0.2187  0.2374
15553W        W31814   2.092   9.461  10.848 -0.1373  0.0182  0.1534
15554W        W31815  12.606   1.400  11.110  0.2227 -0.3588  0.1427
15555W        W31816  16.400   7.714  14.766  0.1370 -0.1100 -0.0319
15556W        W31817   8.050  15.621  14.085  0.1929  0.2533  0.3119
15557W        W31818  15.729   4.717  14.738  0.0137 -0.0684 -0.1038
15558W        W31819  18.829   0.616  10.912  0.0116  0.1008 -0.0467
15559W        W31820   7.284  18.704   3.422 -0.1108  0.1171  0.0497
15560W        W31821  18.831   0.092  13.034 -0.1065  0.4274 -0.1486
15561W        W31822   0.113   6.809  14.417 -0.0019 -0.2336  0.1073
15562W        W31823  11.676  17.993  11.380 -0.0295 -0.0634  0.4978
15563W        W31824  17.587  15.895  11.707 -0.1961  0.1710  0.2100
15564W        W31825   5.226   5.379  13.680 -0.0379  0.1844  0.1243
15565W        W31826   7.311  11.587  14.544  0.0621 -0.1184  0.0742
15566W        W31827  11.215  10.012   0.691  0.3542 -0.0759  0.2522
15567W        W31828  10.759  19.088   4.213  0.0730  0.4909  0.1530
15568W        W31829   4.035  19.053  12.777  0.1936 -0.2529 -0.5139
15569W        W31830  12.795  12.546  11.075  0.3160 -0.0751 -0.1279
15570W        W31831   1.230  18.998   2.342 -0.0695 -0.1588 -0.0866
15571W        W31832   3.819   8.332  11.803  0.1398 -0.0212 -0.3757
15572W        W31833  18.461   4.899  11.734 -0.0413 -0.1912 -0.1561
15573W        W31834   8.479  10.506   2.961 -0.1097 -0.1699  0.3336
15574W        W31835  14.632   1.077   3.587 -0.1042  0.3226 -0.2964
15575W        W31836  18.913  10.172  12.378 -0.2204  0.0412 -0.1802
15576W        W31837   7.595  11.561  12.619  0.0175 -0.2098 -0.0160
15577W        W31838   8.263   3.927  10.852  0.0603 -0.2815  0.0975
15578W        W31839   5.203  14.907   4.710 -0.0439  0.2085 -0.0321
15579W        W31840  16.450  17.698  12.389  0.0621 -0.0695  0.1845
15580W        W31841  15.029   4.420   0.708  0.1364 -0.1331  0.0485
15581W        W31842   9.573   1.839   0.859 -0.0758 -0.0415 -0.0554
15582W        W31843  17.866   7.581   3.216  0.5645 -0.0495 -0.0349
15583W        W31844   8.709   6.818   2.559  0.0202 -0.0170 -0.2732
15584W        W31845   2.314  12.301  13.346  0.2852 -0.0654  0.0048
15585W        W31846   6.657  12.839  13.355  0.1370  0.2428  0.1481
15586W        W31847  13.483  10.022   2.186  0.2083  0.4522  0.1276
15587W        W31848  18.009   4.197   0.085  0.1014 -0.0438 -0.3958
15588W        W31849   5.284  17.839   2.255 -0.2702  0.2702 -0.2174
15589W        W31850  18.917   9.677   2.357  0.0486 -0.2399 -0.1408
15590W        W31851  10.912  18.458   2.140  0.0853 -0.3990 -0.3705
15591W        W31852   1.094  18.076   3.006 -0.2028 -0.0024 -0.0247
15592W        W31853  14.719   8.352   3.160 -0.1469 -0.1084 -0.2971
15593W        W31854  15.567  16.987   0.512 -0.3298  0.3469 -0.0684
15594W        W31855  18.677  17.000  10.710  0.3318  0.1196 -0.0475
15595W        W31856   9.485  12.822   4.743  0.0193  0.2234  0.0470
15596W        W31857   5.797  15.783  14.789  0.0620 -0.1202  0.1550
15597W        W31858  18.069  13.627  14.506 -0.0729 -0.2585 -0.2075
15598W        W31859  14.686  11.730   0.406 -0.0588 -0.1700 -0.0571
15599W        W31860  14.897  13.415  13.007  0.0430 -0.0189  0.0477
15600W        W31861   8.862  16.700   2.258  0.1707 -0.3553  0.2144
15601W        W31862   9.853  16.626   4.418  0.0894 -0.0822  0.1550
15602W        W31863   1.404   5.074   0.425  0.0413  0.0449  0.2391
15603W        W31864  17.342  14.273   3.198  0.0328  0.0635 -0.0880
15604W        W31865  17.929   8.259  12.489 -0.1883  0.0379 -0.2665
15605W        W31866  12.728  12.659   4.897 -0.4117 -0.1765  0.0797
15606W        W31867   7.829   9.780  11.794 -0.1210  0.0978 -0.1423
15607W        W31868  14.444   5.615  12.745  0.3643  0.2670  0.0307
15608W        W31869   6.447   7.024   1.783  0.0038 -0.0870  0.0251
15609W        W31870   0.268   0.346  13.523 -0.1482  0.0408  0.3826
15610W        W31871  16.636   1.900  10.914 -0.0196 -0.1357 -0.1180
15611W        W31872  18.193  13.017  10.789 -0.1674 -0.2911  0.0284
15612W        W31873  16.026   8.972  10.300 -0.1394  0.0602 -0.2461
15613W        W31874   8.371   8.448  12.458 -0.4000  0.1451  0.2188
15614W        W31875  18.528  13.529  14.416 -0.2394 -0.0636  0.0981
15615W        W31876   2.922   4.840  11.052 -0.0746  0.0254 -0.1760
15616W        W31877   2.815  12.934   3.971  0.1782 -0.3014  0.2467
15617W        W31878   6.394  16.509  13.311  0.2303 -0.1643  0.1414
15618W        W31879   3.739  16.207  14.255 -0.0055 -0.1187 -0.0508
15619W        W31880  12.201   2.695   4.393  0.2320  0.4696 -0.0744
15620W        W31881   2.292  11.013   5.015 -0.0823  0.0460 -0.1471
15621W        W31882  14.155   5.185   4.151  0.2025 -0.0834 -0.2083
15622W        W31883   1.827   8.935  11.466  0.0888 -0.0830 -0.2094
15623W        W31884  12.314   3.420   4.519 -0.1561  0.0142 -0.2418
15624W        W31885  14.043  16.814  13.112 -0.0011  0.0601 -0.0822
15625W        W31886   6.605  14.298   5.172  0.1174 -0.3421  0.0104
15626W        W31887   5.533  15.785  13.562  0.2897  0.0817 -0.0465
15627W        W31888  18.323  14.354   0.045  0.1574 -0.1473  0.1129
15628W        W31889  17.520  18.442   0.496  0.1333  0.2327  0.2070
15629W        W31890  17.648   4.039   2.666 -0.0802  0.0785 -0.1252
15630W        W31891  19.207  13.839   4.995 -0.3040 -0.2630  0.0289
15631W        W31892   1.971  11.761  13.357  0.0874  0.0435 -0.3402
15632W        W31893  18.225  15.626   4.274  0.1914 -0.2513 -0.1391
15633W        W31894  14.909   0.187  13.438 -0.0357 -0.0680 -0.0260
15634W        W31895  10.063   4.744  12.463 -0.1316  0.1204 -0.0357
15635W        W31896   0.019   0.540  10.948 -0.0235  0.0121  0.2127
15636W        W31897   7.095   6.782   3.074  0.0273  0.0774  0.0653
15637W        W31898  18.607  13.109  13.189  0.2705  0.0039 -0.3081
15638W        W31899   9.318   3.814  10.976 -0.3958 -0.0262  0.1353
15639W        W31900  15.593  12.534   3.124  0.1337  0.2101  0.0714
15640W        W31901   0.058   4.314   4.309 -0.3917  0.0055  0.0390
15641W        W31902   9.816   5.965  13.712 -0.3204 -0.1738 -0.1824
15642W        W31903   8.003   7.022   9.979 -0.0560 -0.2203  0.1291
15643W        W31904  10.813  16.820   1.276  0.0166 -0.2624 -0.0472
15644W        W31905   2.413   7.521   3.988  0.2099  0.5057  0.2312
15645W        W31906  11.756   2.634   5.190  0.0745 -0.0075 -0.3993
15646W        W31907   4.003   6.906   4.157 -0.2195  0.1271  0.2597
15647W        W31908   0.017  15.114  12.016  0.0522 -0.0828 -0.0955
15648W        W31909   1.437   8.533   0.410 -0.1295 -0.0849 -0.2551
15649W        W31910  19.479   5.796  10.743  0.0976  0.1315  0.4655
15650W        W31911  11.464   7.463   0.251 -0.3468  0.2525 -0.0561
15651W        W31912  12.886  18.442   1.090 -0.2952 -0.4744 -0.0285
15652W        W31913   3.146  14.648   4.073  0.1084 -0.1364  0.0267
15653W        W31914  17.467   6.146  13.761 -0.1713 -0.2932 -0.4564
15654W        W31915   9.625   3.831   1.549  0.1020  0.1346  0.2230
15655W        W31916  17.988   9.224  12.311  0.0077  0.0651  0.0158
15656W        W31917   5.731   5.198  11.525  0.2225 -0.3704  0.1087
15657W        W31918  10.888   2.946   0.854 -0.1752  0.4686  0.0543
15658W        W31919   2.152  19.049  10.674  0.0109 -0.0866  0.1319
15659W        W31920   4.525  11.389  13.055  0.1033 -0.0455  0.0276
15660W        W31921   5.243   5.923   2.918 -0.4442  0.0532  0.1919
15661W        W31922  17.399   0.786   1.538 -0.2919  0.1303  0.1662
15662W        W31923  11.519  18.913   0.820  0.0470  0.1521  0.0395
15663W        W31924  13.973   9.105  11.351 -0.0650 -0.1260 -0.1441
15664W        W31925  15.107   5.247  13.947 -0.1272 -0.0355 -0.3937
15665W        W31926  15.371   4.856  11.698  0.1174  0.3144  0.1208
15666W        W31927  18.969   5.007   2.786 -0.4758 -0.0960 -0.0856
15667W        W31928  16.077  19.338   3.326  0.1409 -0.1436  0.0302
15668W        W31929   9.243   0.696  11.126 -0.2252 -0.1841  0.0864
15669W        W31930  10.979   9.238   3.858  0.3154 -0.1082  0.3689
15670W        W31931   3.051   9.998  13.962 -0.0184 -0.1944  0.1477
15671W        W31932  10.551  10.790   5.249 -0.0014 -0.1849  0.2504
15672W        W31933   0.189  17.366  13.440 -0.2502 -0.3996 -0.1586
15673W        W31934  10.099   7.212   3.285 -0.0014 -0.1133  0.2067
15674W        W31935   5.796   3.331  10.927 -0.0730 -0.1602  0.1228
15675W        W31936  16.794  18.231   3.322  0.2354 -0.0263  0.1858
15676W        W31937  10.989   0.030   4.371  0.2289 -0.1078  0.1910
15677W        W31938   4.938  11.763  10.972  0.0411 -0.1501 -0.3331
15678W        W31939  10.383   4.184   3.957 -0.0180 -0.3881 -0.1165
15679W        W31940   0.576   4.129   0.264  0.0093 -0.0008  0.0395
15680W        W31941  10.679   8.428   9.945 -0.1111  0.2577 -0.2148
15681W        W31942  17.022   1.198   0.794  0.0719 -0.3572  0.2008
15682W        W31943  11.195   9.180  12.494  0.2011 -0.0823  0.0114
15683W        W31944  19.269  19.054   0.786  0.3443  0.4304 -0.2446
15684W        W31945  16.017  13.779   9.622 -0.1280  0.1730 -0.0007
15685W        W31946  17.292  14.023  12.890 -0.1694  0.1953  0.2270
15686W        W31947   7.685   5.059  14.263  0.1841  0.2492  0.0710
15687W        W31948   0.278  13.435   4.136 -0.3814  0.1862 -0.0964
15688W        W31949  10.230  10.632  14.244  0.3188  0.0820  0.2171
15689W        W31950   6.244  11.076  13.475  0.0930  0.3963 -0.1827
15690W        W31951   8.429  18.831   4.457  0.3962  0.2163  0.1832
15691W        W31952   5.210  16.139  13.809  0.0551  0.0516 -0.2231
15692W        W31953   2.472  12.593  14.085  0.2047  0.2173  0.4116
15693W        W31954   5.636   7.938   2.800 -0.0117  0.1144 -0.2521
15694W        W31955  12.339   4.235  13.710  0.0663 -0.0306  0.1912
15695W        W31956   3.779   7.708   3.580 -0.0832  0.1269 -0.1275
15696W        W31957  10.661  19.241   0.946 -0.3193 -0.1947  0.2551
15697W        W31958   6.548  11.157   2.931 -0.0221  0.0191 -0.1819
15698W        W31959   6.598   4.579   8.629 -0.1133  0.3043  0.1440
15699W        W31960  14.856   2.381   3.362 -0.1316 -0.1079 -0.0156
15700W        W31961   6.533  16.454   0.442 -0.1676 -0.1065 -0.0387
15701W        W31962   0.717  10.086  13.860 -0.0011  0.1803  0.2145
15702W        W31963  14.178  12.389   3.270  0.0079  0.3301  0.3051
15703W        W31964  19.455  16.992   0.653  0.0886 -0.1990  0.1551
15704W        W31965   7.271  12.202  13.655  0.0534 -0.2557 -0.1232
15705W        W31966   6.652  13.918  13.480 -0.5080  0.1241 -0.1771
15706W        W31967  13.719  10.105  11.121  0.0802 -0.4563 -0.1248
15707W        W31968  12.043  10.686  13.832  0.0532 -0.0119  0.1413
15708W        W31969   2.937   6.529  12.025 -0.0505 -0.0412  0.2011
15709W        W31970  14.327   7.332  12.621 -0.0150 -0.0167 -0.1945
15710W        W31971  12.776   7.699  14.273  0.0823  0.3410  0.0754
15711W        W31972   6.214  14.563   3.123 -0.3317  0.3164  0.2511
15712W        W31973   6.577  16.353  10.608 -0.0442  0.0718  0.1167
15713W        W31974  13.490  11.937  13.242 -0.2072  0.0980 -0.0286
15714W        W31975  19.178  16.669   0.303  0.0164 -0.1280 -0.0774
15715W        W31976   3.549  19.342   2.419 -0.0011 -0.2017 -0.3258
15716W        W31977   5.606  10.514  11.336 -0.0095 -0.3119  0.0826
15717W        W31978  15.654   4.364   2.154  0.0291  0.3756 -0.2296
15718W        W31979  14.031   7.126   2.499  0.0140 -0.5130 -0.0175
15719W        W31980  13.668   0.715  12.856  0.0779  0.0520  0.0799
15720W        W31981   3.887   1.828   4.059  0.0219  0.0481 -0.3473
15721W        W31982  13.218  11.245  13.125  0.0346  0.2251 -0.0952
15722W        W31983   6.795  11.133   4.734 -0.1099 -0.1764 -0.1285
15723W        W31984   6.220   1.370  13.906  0.0185 -0.2246  0.0831
15724W        W31985  17.391  16.301  11.021 -0.0318  0.0217 -0.0040
15725W        W31986  18.028  18.216   2.172  0.1979 -0.0475 -0.1450
15726W        W31987  17.100   1.591   2.212 -0.0573  0.1302  0.3882
15727W        W31988  14.567   3.582  12.953  0.1184 -0.0699 -0.0930
15728W        W31989  12.698   9.542   3.131 -0.3221  0.1682  0.0750
15729W        W31990  12.504  16.501   1.117 -0.2396 -0.0791  0.3275
15730W        W31991  10.207  16.525  11.210 -0.3389 -0.0324 -0.1331
15731W        W31992   6.319  12.201   3.903 -0.0045 -0.1887 -0.0821
15732W        W31993   7.692   5.322   0.920 -0.0463 -0.0864 -0.0968
15733W        W31994  16.672   2.328   2.698 -0.1305 -0.0150  0.1042
15734W        W31995  12.520  13.937   2.135 -0.1205  0.2285  0.0074
15735W        W31996  11.809  19.196   4.864 -0.3132 -0.0134 -0.1846
15736W        W31997  19.228   7.157   2.840  0.0758 -0.0731  0.0304
15737W        W31998   9.466  10.418   1.685 -0.0593 -0.0235 -0.1835
15738W        W31999   2.548  15.195   5.503 -0.1027  0.0749  0.0223
15739W        W32000  13.544  11.774   3.541 -0.0182 -0.1768 -0.4138
15740W        W32001  10.232   7.890   2.229  0.0870 -0.0238 -0.3076
15741W        W32002   9.507  10.623  10.373 -0.0401  0.0624 -0.3784
15742W        W32003   2.303  16.075  13.919 -0.2703  0.0971 -0.0176
15743W        W32004  13.870   2.942   4.849 -0.0046  0.1755 -0.2749
15744W        W32005   8.334  11.234  14.229 -0.2363 -0.2409 -0.2843
15745W        W32006   5.350   3.166  10.033  0.0984 -0.2542 -0.1088
15746W        W32007  19.145  14.144   6.227 -0.0512 -0.3812 -0.2426
15747W        W32008  16.909  17.203   1.862 -0.0041  0.0726  0.2080
15748W        W32009   6.086  10.094  14.219  0.1609 -0.0618 -0.0814
15749W        W32010  16.021  17.786  12.532  0.2536  0.0334  0.0605
15750W        W32011   6.690   3.819   3.997  0.2403 -0.0257  0.0331
15751W        W32012   8.264   1.806  14.598 -0.4437  0.3584  0.3510
15752W        W32013   4.820  11.752  10.367  0.0901 -0.0280  0.1550
15753W        W32014  13.829   7.731  14.140 -0.3531  0.0217 -0.0428
15754W        W32015   7.453  10.286   5.155  0.1089 -0.2908  0.2131
15755W        W32016   3.387   2.837   3.959 -0.0834  0.1421  0.0998
15756W        W32017   4.285  13.928   2.326 -0.2309 -0.0622 -0.1174
15757W        W32018   6.314  18.558  12.305 -0.3124  0.0655 -0.1325
15758W        W32019  17.783   9.828   5.600  0.0069  0.0168 -0.1390
15759W        W32020   2.364   5.735   3.259 -0.1547 -0.0960  0.2332
15760W        W32021   8.205  16.582   2.046  0.2986 -0.2686 -0.0532
15761W        W32022   3.599  17.155  14.445 -0.4074  0.0006 -0.1168
15762W        W32023  17.406   0.074   4.466  0.0868  0.2898 -0.4482
15763W        W32024  11.207  10.921   1.509  0.1535 -0.0886 -0.1233
15764W        W32025   0.272  13.083  11.058 -0.1695 -0.0101  0.0908
15765W        W32026  10.981   2.924  14.181 -0.1862  0.2827  0.2264
15766W        W32027  19.359  12.975   0.047  0.0885  0.1643 -0.1196
15767W        W32028   5.095   9.270   2.104 -0.2768  0.1010  0.2997
15768W        W32029  11.595   4.019   1.303  0.1632  0.1827  0.1832
15769W        W32030   0.906   8.774   2.917 -0.1872  0.0741  0.0550
15770W        W32031  16.358   9.957  14.175  0.2395 -0.2943 -0.1580
15771W        W32032  12.874   1.004  11.480 -0.2119  0.0008  0.1728
15772W        W32033  18.937  18.424   4.263 -0.1807  0.1444  0.0747
15773W        W32034   8.312  19.339   1.572  0.0825 -0.2153 -0.1385
15774W        W32035  12.421  16.632  11.161 -0.0870  0.1491 -0.2107
15775W        W32036   4.485  13.750   5.556  0.0815  0.2760 -0.1952
15776W        W32037  17.813   3.610   2.890 -0.1927  0.0039  0.1113
15777W        W32038  18.727   0.428  13.433  0.1160 -0.0112 -0.0416
15778W        W32039  14.074  13.503  13.691 -0.1423 -0.0171 -0.1534
15779W        W32040   8.379  12.650   3.952  0.3087  0.1145  0.0401
15780W        W32041   8.853  12.732   0.015  0.3104  0.2969  0.0459
15781W        W32042   8.761  16.387  10.344  0.2149  0.0283 -0.0392
15782W        W32043  18.555  18.482  10.427 -0.1612 -0.0115 -0.0690
15783W        W32044  17.280  17.639   0.866  0.1299 -0.0851 -0.2717
15784W        W32045   1.521   0.181  12.858 -0.0596  0.2487  0.0870
15785W        W32046  12.421   1.916  12.229  0.1595  0.0830 -0.3101
15786W        W32047   2.096  17.377   4.627 -0.0854 -0.3119 -0.0552
15787W        W32048   5.537   4.049   3.212  0.2186 -0.2197  0.3530
15788W        W32049   1.459  14.172  11.701  0.1206 -0.1101  0.0499
15789W        W32050   9.719  17.700   1.517  0.2443 -0.0611  0.1449
15790W        W32051  15.519   4.661  12.777 -0.1258 -0.0846  0.0632
15791W        W32052   1.045  11.233  12.464 -0.0038  0.1513  0.4902
15792W        W32053   9.173   4.558  12.679  0.2510  0.1261  0.2328
15793W        W32054   4.297   2.991   1.506 -0.2964 -0.2774  0.0990
15794W        W32055  11.934   6.860  12.885 -0.3472  0.0179  0.1349
15795W        W32056  18.299   5.226  12.795 -0.1691  0.1316 -0.3450
15796W        W32057  14.119   7.196  13.550  0.1877 -0.1134 -0.0416
15797W        W32058  17.469  11.298  11.445 -0.2116 -0.0692 -0.0201
15798W        W32059   8.076   1.052  10.134 -0.1010  0.2341  0.1169
15799W        W32060   7.365   8.133   2.891  0.0959 -0.0919  0.3535
15800W        W32061  13.265  17.630   5.101 -0.0102 -0.2485 -0.3073
15801W        W32062   4.704  19.143  13.604  0.2974  0.0116  0.1699
15802W        W32063  17.192   4.720   3.747 -0.0586 -0.0945 -0.0736
15803W        W32064  11.808  10.984   0.296 -0.1475 -0.0451  0.0923
15804W        W32065   3.884  13.906  13.352  0.2018  0.0973 -0.0583
15805W        W32066   2.399  16.212   3.877 -0.0199 -0.2708  0.1113
15806W        W32067  10.737   2.126  13.645 -0.0808  0.2400 -0.1312
15807W        W32068  15.777   7.881  11.383  0.0828 -0.0724 -0.1913
15808W        W32069  14.157   8.678   0.110 -0.1589 -0.0787 -0.0793
15809W        W32070   4.029  12.670  11.534  0.1983 -0.0066  0.1364
15810W        W32071   8.920   8.677   2.309  0.2267  0.3039  0.1834
15811W        W32072   8.897   1.889  13.519  0.0800  0.3119 -0.1997
15812W        W32073  16.269  11.060  13.125  0.0825  0.1189  0.3662
15813W        W32074  10.539  14.267  10.678 -0.1981 -0.0885  0.0321
15814W        W32075   8.403  10.519  12.806 -0.1799 -0.0858  0.0132
15815W        W32076   5.318   5.064   0.620  0.3697  0.1282 -0.0494
15816W        W32077  14.933   2.952   0.997 -0.1570 -0.1990  0.0404
15817W        W32078  14.910  12.864   2.287 -0.1048  0.0500 -0.1493
15818W        W32079   4.672   3.888  12.848 -0.1451 -0.0928  0.2333
15819W        W32080  14.378  12.214  13.406 -0.1533  0.3322 -0.0730
15820W        W32081  16.131  10.413   0.732  0.2067  0.0562 -0.0972
15821W        W32082  17.005  16.585  11.778 -0.1246 -0.0627  0.1255
15822W        W32083   3.239   5.280  11.185 -0.4408 -0.2891  0.0615
15823W        W32084  16.511   8.628  14.334 -0.2367 -0.1030  0.2149
15824W        W32085  13.827   8.564  13.558  0.2694  0.3399 -0.3297
15825W        W32086  11.187   9.275   5.307  0.2352  0.2005 -0.2268
15826W        W32087   5.940   0.570  10.122  0.0729  0.1221  0.4314
15827W        W32088   6.815  18.600   1.061  0.1485  0.3707  0.2193
15828W        W32089  12.772  19.249   4.822 -0.3419 -0.1111 -0.0114
15829W        W32090  14.815   1.924   4.252 -0.1531  0.0289  0.0820
15830W        W32091  17.085  13.840  10.877 -0.0920 -0.1293  0.1037
15831W        W32092   5.768   6.721  10.546 -0.4525 -0.1686 -0.0450
15832W        W32093   7.520  12.552   1.231 -0.3041  0.2357 -0.0632
15833W        W32094   6.927   1.964   4.109 -0.0136 -0.0892  0.1152
15834W        W32095   1.595   2.562   3.316  0.0932  0.1487  0.1216
15835W        W32096   0.406   0.681   9.369  0.2263  0.4844 -0.2403
15836W        W32097   1.385  10.159   3.933  0.1802 -0.1691 -0.1307
15837W        W32098  19.122   9.353  13.508 -0.0585 -0.1725  0.0748
15838W        W32099  15.550  17.875   0.177  0.4391  0.0103 -0.0571
15839W        W32100   9.920   8.784   3.390 -0.2140  0.0384 -0.2860
15840W        W32101   1.474   4.798  13.929  0.0303  0.0820 -0.2161
15841W        W32102   1.990  11.190   1.586 -0.2429  0.0602  0.0318
15842W        W32103   8.828   4.209  12.044 -0.0223 -0.0090 -0.1021
15843W        W32104  13.359   2.376  11.602 -0.0481 -0.1538 -0.0308
15844W        W32105   2.807  18.187  12.530  0.2548  0.0312  0.2013
15845W        W32106   2.079  15.888   0.296  0.0953 -0.0035 -0.0154
15846W        W32107   3.633  14.444   1.279  0.2477  0.1248 -0.1950
15847W        W32108  10.618   3.028  11.312  0.2008 -0.0853 -0.0516
15848W        W32109   4.801  12.214  10.707 -0.0837  0.0710 -0.3573
15849W        W32110   4.752   2.968  14.703  0.1445  0.0234 -0.2632
15850W        W32111   5.311   9.274   1.146  0.3422 -0.2049  0.0766
15851W        W32112  17.389   2.358  10.880 -0.2105  0.0915 -0.2860
15852W        W32113  13.448  18.722   1.241 -0.2443  0.0902 -0.0243
15853W        W32114   9.043   5.195  13.963 -0.1567 -0.2868  0.0927
15854W        W32115  16.644   5.698  14.225 -0.4795 -0.2501  0.0308
15855W        W32116  12.611   9.027   0.594  0.0501 -0.1895  0.4084
15856W        W32117   7.953   3.917   1.833 -0.1810 -0.1682 -0.2857
15857W        W32118  13.563   2.614   1.517 -0.1319 -0.0363 -0.3028
15858W        W32119  16.956  18.172  14.018  0.3820 -0.0579 -0.0509
15859W        W32120   8.496   5.012  14.761  0.0965  0.2254  0.1317
15860W        W32121   0.188  11.974  11.661  0.2220 -0.0425  0.0459
15861W        W32122   8.227  14.478  10.863 -0.2710 -0.2194 -0.0068
15862W        W32123   9.150   3.547   0.118  0.2710  0.0814 -0.1998
15863W        W32124  14.898   5.505   1.514 -0.0660  0.0951 -0.0245
15864W        W32125  18.140   8.215  14.188 -0.3498  0.1295 -0.0027
15865W        W32126   8.459  12.685  14.539  0.0825  0.0907 -0.3084
15866W        W32127   0.964  16.301   0.022 -0.0691  0.2393  0.3384
15867W        W32128   2.097   9.422  13.088  0.3621 -0.1295 -0.4676
15868W        W32129  16.264   9.527  10.960 -0.3132 -0.0673 -0.3588
15869W        W32130   4.255   6.614   1.544 -0.1063  0.0003 -0.2764
15870W        W32131  16.544  19.107   4.181 -0.1599  0.0336  0.2656
15871W        W32132   6.548  17.733  11.615 -0.1730  0.1251 -0.2013
15872W        W32133   0.967  10.066   5.499 -0.0342  0.3395  0.2259
15873W        W32134  16.501   8.728  12.480  0.1090  0.0033  0.1600
15874W        W32135   6.212  13.285  12.284  0.1669 -0.3190 -0.1218
15875W        W32136  12.833  17.748  11.012 -0.3612  0.0739 -0.0145
15876W        W32137  14.337  11.587   4.760  0.2152  0.1223  0.0016
15877W        W32138  10.098   7.288  11.422 -0.0911 -0.1614  0.2655
15878W        W32139  14.923   5.797  10.601  0.1573  0.0691  0.1539
15879W        W32140   1.233  14.402   0.510  0.0297 -0.1481  0.4788
15880W        W32141   6.032   2.200  10.828  0.0529  0.1898 -0.0042
15881W        W32142   9.930   6.943  10.483  0.1712 -0.3483 -0.0123
15882W        W32143   0.121   2.436   0.471 -0.1697  0.0437 -0.0427
15883W        W32144  10.025   9.237  14.277 -0.0556  0.0781 -0.0156
15884W        W32145   5.962   1.076   1.107  0.2542 -0.4121 -0.0611
15885W        W32146   6.562  10.413   3.508 -0.0858 -0.0376 -0.2305
15886W        W32147  14.262  10.337  14.169  0.3178  0.1076  0.1104
15887W        W32148   2.630  15.891   4.678  0.0820  0.0674 -0.0525
15888W        W32149  14.037  13.849   1.923 -0.2650  0.1354 -0.0499
15889W        W32150  11.890   0.287  12.592  0.2198  0.2372 -0.0208
15890W        W32151  12.448   9.245  13.967  0.0961  0.0102 -0.0957
15891W        W32152   2.336   4.001  12.133 -0.0011 -0.1317 -0.1139
15892W        W32153   7.084   5.975   2.424  0.1499 -0.1637 -0.4936
15893W        W32154   4.045   2.929  10.513 -0.0054 -0.2905  0.1191
15894W        W32155   8.048   1.966  13.831  0.2772 -0.3190  0.0628
15895W        W32156   0.495  18.897   1.310  0.1794 -0.0759  0.2608
15896W        W32157  14.278  17.272  10.972  0.3708  0.1239  0.0275
15897W        W32158  14.268  16.593  11.225  0.2025  0.0682 -0.0201
15898W        W32159  12.632   9.576   1.209 -0.0603 -0.1948 -0.2216
15899W        W32160   3.728  18.064  11.297 -0.2438  0.1898  0.2045
15900W        W32161   0.989   9.279   9.413  0.1127 -0.2124  0.0500
15901W        W32162   4.582  10.767  13.703 -0.3673 -0.0494 -0.1607
15902W        W32163   2.463  11.387   1.713 -0.0803  0.0657 -0.3142
15903W        W32164   4.641  14.162   0.754 -0.4304 -0.0726  0.0734
15904W        W32165   4.777   1.637  12.265 -0.0540 -0.0790 -0.2110
15905W        W32166   1.239   0.867  13.269  0.0146  0.0900  0.1583
15906W        W32167  15.047  11.976   3.427  0.0345 -0.0026 -0.0778
15907W        W32168   8.921  13.240   3.581  0.3711 -0.2686  0.2213
15908W        W32169  13.688   6.483  11.746 -0.0638  0.4295 -0.3891
15909W        W32170  19.408  13.420  13.927  0.1262 -0.0432  0.2472
15910W        W32171  13.816  14.670  10.713  0.2379  0.0919  0.0228
15911W        W32172  11.043  11.260  11.317 -0.1943 -0.1531  0.1375
15912W        W32173  18.227  14.887   0.705  0.3566  0.0413 -0.4317
15913W        W32174   2.689  14.261  13.659  0.1404 -0.0265  0.0602
15914W        W32175   3.331  18.793   0.603  0.1472 -0.1099  0.1589
15915W        W32176  10.060   5.938  10.958  0.0597  0.2479  0.4760
15916W        W32177   0.932   0.228   1.922  0.0907 -0.1278 -0.2074
15917W        W32178   6.385  16.021  13.126 -0.1398  0.0769  0.0631
15918W        W32179   0.728   3.320   3.553 -0.1758 -0.1042  0.6693
15919W        W32180  17.777  15.900  14.719 -0.2290  0.0555  0.3190
15920W        W32181  15.619   3.361   3.432  0.0198  0.0142 -0.3006
15921W        W32182  14.510  11.119  11.601  0.4341  0.3202  0.3156
15922W        W32183   1.330   0.003  10.942  0.0157  0.1359 -0.3652
15923W        W32184   8.730   1.903  12.201 -0.1044 -0.2625  0.3943
15924W        W32185  10.416  12.267  11.232  0.3224 -0.0020  0.4610
15925W        W32186   0.561   4.384  12.710 -0.1198  0.1196  0.1018
15926W        W32187  17.887   9.891  14.078 -0.2610 -0.0763 -0.1259
15927W        W32188  12.867  19.373   2.968  0.1508  0.2259  0.1213
15928W        W32189   3.328  10.908   0.695  0.1456  0.0018 -0.2343
15929W        W32190   4.207  17.463   4.417 -0.1631  0.1600  0.1475
15930W        W32191   6.589  13.184   2.575  0.0133 -0.0482  0.3348
15931W        W32192   1.684  11.667   0.204 -0.0961 -0.3414  0.2643
15932W        W32193  15.974  12.259  13.827  0.1291 -0.1577 -0.0028
15933W        W32194   8.637   0.886  14.757 -0.1711 -0.1493  0.0407
15934W        W32195  13.728   0.118   3.203  0.3204 -0.0890  0.1050
15935W        W32196   1.975  12.611  14.093  0.0383  0.1362  0.1801
15936W        W32197   7.407  10.424   2.960 -0.3504  0.0162 -0.1466
15937W        W32198  17.635   8.117   1.649  0.0426  0.2664 -0.2309
15938W        W32199  13.968   6.960  12.947 -0.0909  0.1829  0.1534
15939W        W32200   1.154   9.730   4.589 -0.0484  0.2406  0.0510
15940W        W32201  16.444   3.017  12.814 -0.0616 -0.0855  0.2172
15941W        W32202   6.789   1.462   0.477  0.2486 -0.1932 -0.3178
15942W        W32203   9.683  12.288  13.563  0.0340 -0.1681  0.0732
15943W        W32204   8.172  10.701  14.254  0.0554 -0.0565  0.0856
15944W        W32205  14.334   1.945   5.952  0.0993  0.3473  0.0217
15945W        W32206   7.213   2.899   0.659 -0.0177  0.0595  0.0399
15946W        W32207  12.017  13.455  13.728  0.3182 -0.3369 -0.1622
15947W        W32208  15.557  16.120   1.707  0.1014 -0.4355  0.1830
15948W        W32209  11.568   6.802   1.539 -0.0754  0.0283 -0.2206
15949W        W32210  18.569  12.271  13.618 -0.1288 -0.1297  0.1355
15950W        W32211  18.797   7.937  13.603 -0.4076  0.2776  0.0908
15951W        W32212   2.652  11.719   0.751 -0.2584 -0.1261 -0.2064
15952W        W32213   9.561  17.479   4.303 -0.2186 -0.0682  0.1106
15953W        W32214   0.545  18.010  10.675  0.0107 -0.4003  0.2430
15954W        W32215  18.455  15.472  14.179 -0.0496 -0.0085  0.1269
15955W        W32216   2.387   4.494   9.665 -0.1826  0.3964  0.2679
15956W        W32217  14.016   1.105   2.127 -0.0347 -0.0011  0.0412
15957W        W32218   0.631   4.552  13.535  0.1710 -0.1167  0.0111
15958W        W32219   8.365  11.793   2.878  0.0740  0.2494 -0.0937
15959W        W32220  13.605   1.519   4.270  0.1538 -0.0671 -0.1576
15960W        W32221   6.252   3.902   1.216  0.1368  0.0941 -0.0791
15961W        W32222  11.117  17.944   2.078  0.0663 -0.2981 -0.0886
15962W        W32223   1.258  16.692   1.654  0.2561  0.4157  0.2223
15963W        W32224  10.879  11.644  13.450 -0.0523 -0.1196  0.0366
15964W        W32225   7.932   0.516  12.576 -0.1783  0.6847 -0.0586
15965W        W32226   6.088   3.388   3.282 -0.1436  0.0457 -0.0910
15966W        W32227   8.301  10.075   2.703  0.4504  0.0435 -0.2095
15967W        W32228   9.626   1.208  13.223 -0.0079  0.2323 -0.1933
15968W        W32229  16.244   3.664  10.529  0.1167  0.2417  0.2556
15969W        W32230  11.668   8.509   1.321  0.1196  0.0756 -0.1399
15970W        W32231  16.002   2.206   0.763  0.3318  0.0533  0.1702
15971W        W32232   5.967  15.683  13.208  0.0028  0.1647  0.2180
15972W        W32233   9.515  14.012   3.383 -0.0270 -0.1294 -0.2183
15973W        W32234  10.117  15.044  10.766  0.1603 -0.3105  0.2997
15974W        W32235  17.155  11.597  12.447 -0.1557  0.0614  0.1240
15975W        W32236  14.750  10.273   0.472  0.2146  0.0340 -0.1208
15976W        W32237  16.722   6.741  14.191 -0.0260 -0.4206  0.0709
15977W        W32238  11.817  13.949  12.705 -0.1216 -0.0060 -0.0065
15978W        W32239   1.665  13.274  10.759 -0.0863 -0.2278 -0.0527
15979W        W32240   8.623   3.727   2.711  0.1157  0.1335 -0.1056
15980W        W32241  13.480   9.044  11.716  0.1964  0.0600  0.1468
15981W        W32242   1.917  15.718   2.448  0.1085 -0.0274 -0.3910
15982W        W32243  11.525  10.754   3.427 -0.0154  0.1730  0.1250
15983W        W32244  11.424   9.493  14.248 -0.0310  0.2315  0.2517
15984W        W32245  10.456   4.168   1.601 -0.1576 -0.1252  0.1079
15985W        W32246   9.395   9.742   0.256 -0.2111  0.2417  0.1281
15986W        W32247   0.358  18.818  14.063  0.2511  0.2714  0.3483
15987W        W32248   4.125  18.904   1.655  0.3491 -0.2768 -0.0249
15988W        W32249  15.126   1.762   0.807  0.2199  0.1591  0.0465
15989W        W32250  11.031  16.103   0.320  0.1658  0.2451  0.2980
15990W        W32251   7.657   6.632  14.185 -0.2033  0.2222 -0.1046
15991W        W32252   5.085   6.027  13.688 -0.4431 -0.1008  0.2060
15992W        W32253  11.557  12.877   0.988 -0.1266 -0.0502 -0.0958
15993W        W32254   5.805   1.950   2.877 -0.1745 -0.0614 -0.0382
15994W        W32255  11.031  12.160   4.729 -0.0209 -0.0185  0.0205
15995W        W32256  13.222  10.483  14.211 -0.2170 -0.2116  0.0038
15996W        W32257  10.392  11.818   0.406  0.5080 -0.1634 -0.0598
15997W        W32258   4.608  11.070   1.221  0.0413  0.3321 -0.0411
15998W        W32259   2.542  12.703   0.197  0.2513  0.1938 -0.1258
15999W        W32260  15.275  11.760  13.186  0.1730 -0.2240  0.0689
16000W        W32261  15.861  10.077  12.631  0.0982  0.1019  0.3178
16001W        W32262  14.658   5.881  10.227  0.0105 -0.0528  0.2686
16002W        W32263  16.549   1.650  14.487  0.0550  0.1364 -0.0231
16003W        W32264  13.185   1.571   5.034 -0.0161  0.0719 -0.0231
16004W        W32265  15.902  13.406  14.440  0.2678 -0.0337 -0.0355
16005W        W32266   9.222   8.872   1.485 -0.1836 -0.1096 -0.4857
16006W        W32267  13.408  16.399  10.704  0.1548  0.2112  0.3077
16007W        W32268  16.624  10.259   2.953  0.0564  0.1447 -0.0568
16008W        W32269   2.023  13.086  13.927  0.2894  0.2885 -0.3114
16009W        W32270   7.981  14.168  13.704 -0.0395  0.0321  0.0441
16010W        W32271   1.163   8.069  10.904 -0.2050 -0.3109 -0.0063
16011W        W32272  14.696  12.136   1.655 -0.0728 -0.3947 -0.1767
16012W        W32273  14.019  14.933   2.555  0.2416 -0.3829 -0.0341
16013W        W32274  10.114  16.270  11.655 -0.0663 -0.0982  0.0408
16014W        W32275   1.311   2.431  10.305  0.0087  0.1408 -0.4176
16015W        W32276   9.071   5.320   9.918 -0.2371  0.0187 -0.0972
16016W        W32277  12.504  16.925   0.811 -0.0467 -0.0899  0.1912
16017W        W32278   3.196   1.355  12.668 -0.0274  0.1475 -0.1290
16018W        W32279  16.140   5.579   4.645 -0.0204 -0.0648 -0.1847
16019W        W32280   0.342  10.434  13.657  0.0324  0.0826  0.1719
16020W        W32281  18.290   9.090  11.588 -0.3866 -0.3395  0.2513
16021W        W32282  17.797  17.992   0.446  0.1281  0.0291 -0.4486
16022W        W32283  17.902   3.365   3.365  0.1015  0.3303  0.1900
16023W        W32284   5.338  16.292   0.531  0.3810  0.1011  0.2000
16024W        W32285   8.803   1.988   0.797 -0.1346 -0.4810  0.2591
16025W        W32286   3.989   0.497   3.909  0.6344  0.0942  0.1598
16026W        W32287  17.495  16.029   2.840 -0.2468 -0.1566  0.1362
16027W        W32288  11.655   3.957  12.968  0.2038 -0.0380 -0.4002
16028W        W32289   9.670  15.316   1.675  0.0758 -0.1498  0.1760
16029W        W32290   4.739  10.490  12.882  0.0713  0.2389  0.1921
16030W        W32291   7.444  14.528  13.073  0.0178 -0.1267 -0.3491
16031W        W32292   0.909   5.943   4.571 -0.0648 -0.1169  0.3575
16032W        W32293   4.573   0.258  14.716 -0.0392 -0.1048 -0.0198
16033W        W32294  17.790   0.730   1.317 -0.0868  0.2287  0.0533
16034W        W32295   4.981   8.888  10.102  0.4896 -0.1024  0.1630
16035W        W32296  14.600  17.146   1.225  0.2627  0.0799  0.0412
16036W        W32297  16.117  13.811   5.127  0.0347 -0.3551  0.2634
16037W        W32298   7.374  11.182   1.322 -0.2152 -0.0509 -0.0714
16038W        W32299   2.420   4.673   3.179 -0.1253 -0.2102 -0.1932
16039W        W32300   2.432  19.022   3.359  0.4128 -0.1100  0.0263
16040W        W32301  19.240  18.576  11.155  0.0811 -0.3017 -0.1426
16041W        W32302  12.267  16.454   1.562  0.0337 -0.4143 -0.1938
16042W        W32303   6.514   4.842   0.083  0.3335  0.3450  0.0542
16043W        W32304   5.361   7.873  14.309 -0.1706 -0.1964 -0.3071
16044W        W32305  10.422   0.308  10.324 -0.0581  0.2905 -0.4319
16045W        W32306   7.635   8.563  14.384 -0.0426  0.1116 -0.1654
16046W        W32307   3.460  16.211   4.081  0.1815 -0.2796  0.1510
16047W        W32308   7.221  10.902   0.491 -0.0028 -0.0602  0.5223
16048W        W32309   5.025   6.598   0.337 -0.3720  0.0381  0.0722
16049W        W32310   4.667  15.223   1.872  0.0380  0.2007  0.1899
16050W        W32311  18.870   2.598  13.503  0.3225  0.1054  0.0503
16051W        W32312   3.836   2.169   2.507 -0.2340 -0.0364  0.2490
16052W        W32313  17.496  18.606  11.953  0.2718 -0.1186 -0.3025
16053W        W32314   6.427   6.110   9.587  0.0887  0.2472  0.0358
16054W        W32315  10.166   1.522  11.876 -0.2033  0.1898 -0.2621
16055W        W32316  11.456   6.402   1.233 -0.1079 -0.0790  0.2259
16056W        W32317  17.527   6.750   1.835 -0.2155  0.0544  0.1891
16057W        W32318  15.964  18.750  13.147  0.3363 -0.0400  0.0127
16058W        W32319   5.678   3.498  11.442 -0.0327  0.1198 -0.4101
16059W        W32320   7.778  14.263  10.747 -0.2058  0.2304 -0.0116
16060W        W32321   9.842  13.019  13.370 -0.0898 -0.1153 -0.3867
16061W        W32322  12.516  12.270   1.574 -0.3059 -0.2140  0.0146
16062W        W32323  11.184   8.310   4.147  0.0016 -0.0991 -0.1131
16063W        W32324   4.411   2.578  12.466  0.1984 -0.1121 -0.0775
16064W        W32325   0.483  10.828   2.669 -0.0135  0.1705  0.1155
16065W        W32326  14.749   5.332   0.328  0.5321  0.2180  0.3505
16066W        W32327   0.217   7.877  13.800 -0.2530  0.0687  0.1005
16067W        W32328  14.724   6.352  10.099  0.2416  0.4253  0.0570
16068W        W32329  11.139   4.082   0.921 -0.1856  0.1411  0.0399
16069W        W32330  18.007   6.353  11.188  0.1121 -0.3096 -0.0166
16070W        W32331  13.253  10.732  11.080  0.2171 -0.0385 -0.0608
16071W        W32332   8.688  18.420   4.733  0.0013  0.2183 -0.0004
16072W        W32333   9.144  16.015   3.570 -0.0944  0.0829  0.0614
16073W        W32334   9.698  16.725  12.787  0.1475  0.3488 -0.0754
16074W        W32335   4.921  10.262   3.585 -0.0302 -0.3585  0.1509
16075W        W32336  15.759  17.464  12.809 -0.1668 -0.0827 -0.1344
16076W        W32337   8.714  16.506   1.394 -0.3151 -0.2799  0.1295
16077W        W32338  18.313   5.598   3.752 -0.1293 -0.0025 -0.3415
16078W        W32339   1.398   8.718  10.034 -0.2540  0.0130  0.0087
16079W        W32340   6.420  15.725  10.991  0.0712 -0.3267  0.1495
16080W        W32341  10.537   0.760   2.494  0.1637  0.0457  0.1957
16081W        W32342  18.901   4.851   3.757  0.1571  0.1086 -0.0583
16082W        W32343   8.192  13.082   4.856 -0.0506 -0.0773 -0.2919
16083W        W32344   5.871   9.384   3.738  0.1450  0.2265  0.0198
16084W        W32345   0.083  12.166  12.130  0.1851  0.0310  0.2278
16085W        W32346  18.617   0.731   3.738 -0.3330  0.1381  0.0953
16086W        W32347   5.648  12.742  12.960  0.0023  0.1558 -0.0495
16087W        W32348  12.166  13.280   6.459 -0.1473  0.0844  0.2010
16088W        W32349   1.938  11.950   3.257 -0.1936 -0.0578  0.3373
16089W        W32350  12.011   5.540  14.167 -0.0741  0.1403 -0.1257
16090W        W32351   3.429  10.316  11.589  0.0882  0.1259 -0.1086
16091W        W32352  16.362  18.138  12.706 -0.0719  0.1600 -0.0911
16092W        W32353  11.032  10.579  12.322 -0.2952 -0.1865 -0.3151
16093W        W32354   7.852   6.957  13.750 -0.2396  0.1259 -0.0357
16094W        W32355   5.733   6.477   4.295 -0.2046  0.4696  0.0036
16095W        W32356   7.084   8.815  12.507 -0.1765  0.0001  0.0667
16096W        W32357  16.311   9.138  12.569 -0.3213  0.4766 -0.2561
16097W        W32358  12.047   6.875   0.577 -0.1216  0.1044  0.1608
16098W        W32359   4.189   3.176  12.332 -0.2674  0.0225 -0.2691
16099W        W32360  15.946  12.911  11.557  0.2512 -0.0600 -0.3362
16100W        W32361   0.536  17.213  14.282  0.1111 -0.2770 -0.2634
16101W        W32362  14.244  14.302  14.250  0.3778  0.1259 -0.3126
16102W        W32363   4.894  12.564  10.306  0.1279 -0.0757 -0.0175
16103W        W32364  18.004   2.347   0.705  0.2427  0.0525  0.1323
16104W        W32365   7.775  13.987  11.630 -0.1422 -0.0513 -0.2416
16105W        W32366   0.960  15.943  11.697 -0.1851  0.0888 -0.0537
16106W        W32367   5.515  16.304  11.028 -0.0770 -0.0475  0.1650
16107W        W32368  17.867  18.280  12.998  0.2197 -0.2175 -0.1079
16108W        W32369  11.231   2.025   9.421  0.3241  0.2107  0.1677
16109W        W32370   8.652  13.625   0.632 -0.2603  0.0580  0.3847
16110W        W32371  15.408   2.911   1.762  0.1928 -0.0831  0.3732
16111W        W32372   5.517  12.207   4.033 -0.1344  0.1610 -0.1790
16112W        W32373   5.667   4.738   3.978  0.2182 -0.1272 -0.1134
16113W        W32374   9.974  19.022  10.235  0.0484 -0.0121 -0.1849
16114W        W32375  10.744   5.647  14.744  0.1045 -0.0407  0.1203
16115W        W32376  16.867  15.023   3.885 -0.2371 -0.0765 -0.0382
16116W        W32377  15.209  11.855   4.681 -0.0641  0.1432 -0.4849
16117W        W32378   4.855  11.467   2.921 -0.2345 -0.0177  0.1722
16118W        W32379  11.208   0.387   5.137 -0.3081  0.5823  0.0741
16119W        W32380   8.177   4.571   3.994  0.2004  0.2912  0.0035
16120W        W32381  12.615  15.866  10.821 -0.0177 -0.0016  0.0195
16121W        W32382   6.716   9.061  12.739  0.1616  0.2625 -0.2139
16122W        W32383   6.587  16.006  12.026  0.0687 -0.2832  0.2613
16123W        W32384  12.417   1.899   9.954 -0.1745  0.3342 -0.2220
16124W        W32385   6.498  13.295  10.911  0.0828 -0.0158 -0.3526
16125W        W32386  11.451   5.254  12.718 -0.1609 -0.2181 -0.2426
16126W        W32387   3.274   5.375   1.641  0.0110 -0.1840  0.1105
16127W        W32388   2.046   6.607  13.082  0.0516  0.2272 -0.1811
16128W        W32389   1.221  11.628  14.685 -0.0014 -0.0175 -0.0379
16129W        W32390   9.252   9.506  12.067 -0.2521 -0.0421 -0.2447
16130W        W32391  15.154   4.313   1.175 -0.1914  0.0472 -0.2422
16131W        W32392   5.215   6.829   3.208 -0.0814  0.1679 -0.0984
16132W        W32393  14.650  16.625   1.227  0.1644  0.2077  0.3578
16133W        W32394  18.564   5.476  12.430 -0.1031 -0.4895 -0.0380
16134W        W32395   6.644  14.784   1.254 -0.0058  0.0360  0.0871
16135W        W32396   1.332   6.642   3.590  0.2166 -0.0231  0.2397
16136W        W32397  11.469   7.598   3.617  0.1604 -0.0291  0.0003
16137W        W32398   2.578  19.392   2.368  0.1030 -0.0419  0.2274
16138W        W32399   7.168   2.587  14.146 -0.4560  0.0549  0.0586
16139W        W32400  12.224  12.995  14.664 -0.1402 -0.0320 -0.2132
16140W        W32401   2.210  16.614   4.126 -0.4032 -0.2174 -0.0138
16141W        W32402   3.448   8.624   2.864  0.3907 -0.0122 -0.1210
16142W        W32403   6.391  10.118   4.006 -0.2230  0.0464  0.1178
16143W        W32404  15.888  10.328   0.283  0.1163 -0.1477 -0.0625
16144W        W32405  11.346   8.776   4.541  0.1380  0.0898  0.2368
16145W        W32406  18.617   5.877  13.061  0.1431 -0.1626  0.2352
16146W        W32407   8.076  15.314  12.170 -0.1235 -0.5805  0.2952
16147W        W32408  11.029  18.411  13.195  0.4192  0.4872 -0.0509
16148W        W32409  15.109   7.451   4.133  0.1186  0.1818 -0.2098
16149W        W32410   0.031  12.810   5.041 -0.0054  0.2325  0.0437
16150W        W32411  14.306  15.340   2.457  0.0076  0.1125  0.1462
16151W        W32412  10.452   6.419   2.253  0.5847 -0.3005 -0.1511
16152W        W32413   8.636   3.908   9.036 -0.0090 -0.1968 -0.1375
16153W        W32414  13.920  15.072   3.877 -0.3148 -0.2882 -0.3660
16154W        W32415  13.908  10.560   4.829 -0.0262 -0.0193 -0.0094
16155W        W32416  13.793   7.934  14.604 -0.2864 -0.0843  0.1515
16156W        W32417   5.123   6.798   1.595  0.0560 -0.0941  0.1167
16157W        W32418   1.771  17.446   2.018  0.1124 -0.0996 -0.2293
16158W        W32419   2.531   5.406   0.932  0.1446  0.0602  0.4025
16159W        W32420   9.657  13.578   4.218 -0.0093  0.3343  0.0945
16160W        W32421  14.524  12.076   3.712  0.3098 -0.1661 -0.0407
16161W        W32422   3.283   6.289  13.554 -0.0612 -0.0675  0.3209
16162W        W32423  16.078  14.625   4.810 -0.3168 -0.0817  0.0674
16163W        W32424   7.434   7.085   9.562  0.1231  0.1963  0.0918
16164W        W32425   1.349   5.356  14.754 -0.1586 -0.1490 -0.2316
16165W        W32426   7.863   9.822   1.380  0.0656 -0.0038 -0.0117
16166W        W32427   8.088   7.325  12.899 -0.2003  0.0681 -0.0429
16167W        W32428   7.609  15.807  13.636 -0.0700  0.1763 -0.2632
16168W        W32429  11.410  14.552  14.698  0.2449 -0.2303 -0.0781
16169W        W32430   0.573  17.567   0.827  0.0489  0.1051  0.1331
16170W        W32431   7.273  12.385   3.692  0.1774  0.3502 -0.0561
16171W        W32432  14.249   1.266  13.206  0.0385  0.0997 -0.1682
16172W        W32433  14.267  14.642  12.992  0.4868 -0.4126  0.1190
16173W        W32434  19.063  15.064  11.373  0.2256  0.0923  0.0685
16174W        W32435   5.568  13.436  11.169  0.1546  0.4817  0.0118
16175W        W32436  15.462   7.754  12.393 -0.2687  0.2460  0.2302
16176W        W32437  18.472  17.371  11.122 -0.0536  0.1831 -0.2816
16177W        W32438   5.408  12.728   1.207 -0.1757 -0.4498  0.0655
16178W        W32439  16.535   0.856   4.325  0.0239  0.4716 -0.0219
16179W        W32440  16.501   3.226   4.999 -0.0363 -0.1435  0.2039
16180W        W32441  11.825   6.600   3.681 -0.2295 -0.1511 -0.2859
16181W        W32442  11.493   4.834   1.363 -0.2169  0.0393  0.1105
16182W        W32443   1.998  19.242   3.563 -0.1996  0.1180 -0.0716
16183W        W32444  12.476  19.432   2.681 -0.0254 -0.1328  0.0641
16184W        W32445   5.400  11.213  10.074  0.0106 -0.2566  0.1984
16185W        W32446  12.599   1.437  13.821 -0.0118  0.0040  0.0073
16186W        W32447   9.433   5.045   9.576  0.1406  0.0588  0.0697
16187W        W32448  17.999   4.679   1.709 -0.1319 -0.1108  0.1945
16188W        W32449   6.120   1.396   0.752 -0.2578  0.3572  0.2927
16189W        W32450  14.178  12.248  10.689 -0.2989 -0.0342 -0.0561
16190W        W32451  10.615  14.574  12.286 -0.0784 -0.2599 -0.1566
16191W        W32452   9.408  11.042  11.871  0.0510 -0.3757  0.0991
16192W        W32453  18.477  18.329  14.727  0.0879 -0.2340  0.0444
16193W        W32454  13.492   1.572  10.541  0.0639  0.0394 -0.3577
16194W        W32455   7.555   1.459  12.421 -0.0596  0.0636  0.0366
16195W        W32456  13.440   1.030   1.469 -0.1672  0.0111  0.0531
16196W        W32457  14.210  16.498  14.173  0.0261 -0.2871 -0.0481
16197W        W32458   1.763   0.779   2.165 -0.0222 -0.2928 -0.1067
16198W        W32459   3.306  10.820  11.423 -0.0337 -0.1641  0.0158
16199W        W32460   5.524  18.414  10.326 -0.1450  0.0989  0.2058
16200W        W32461   4.398   0.387  12.714  0.0650  0.1877 -0.2091
16201W        W32462   8.174   5.848  13.481 -0.2369 -0.1561  0.0536
16202W        W32463  18.247  10.705   4.203  0.3114 -0.2434 -0.1738
16203W        W32464   3.050  13.341   3.753  0.2461 -0.3410 -0.3397
16204W        W32465  15.265   9.237  12.014  0.2352  0.0261 -0.0408
16205W        W32466   4.266  17.537   3.565  0.0735 -0.1335  0.0777
16206W        W32467   8.051  12.453  14.755  0.0213  0.1183 -0.0658
16207W        W32468   6.987  14.190  12.336  0.0927  0.1381 -0.1596
16208W        W32469  18.677   4.423  11.931  0.3263 -0.2351  0.0119
16209W        W32470  16.520  10.217  11.464  0.2224  0.0488 -0.1988
16210W        W32471  14.832  15.067  13.123 -0.0510 -0.0301  0.0802
16211W        W32472  10.449   0.044  14.778 -0.4598  0.0677  0.2214
16212W        W32473   1.123  10.754  11.643 -0.2801 -0.1444  0.0218
16213W        W32474   3.384  14.859   2.943  0.3456  0.0398 -0.0454
16214W        W32475   6.859   3.945   3.102 -0.2025  0.1169 -0.1070
16215W        W32476  12.889   7.150   1.593  0.1289 -0.1233 -0.1104
16216W        W32477   8.230  16.690   3.786 -0.0853 -0.1223 -0.0543
16217W        W32478  16.398   5.109   0.386 -0.1495 -0.0051  0.0332
16218W        W32479  10.926   8.576   1.232 -0.1000  0.3378 -0.2356
16219W        W32480   0.590  18.551   3.819  0.2519  0.0577  0.2002
16220W        W32481  17.332  18.074   0.700 -0.0411 -0.1580 -0.1949
16221W        W32482   9.690  14.843   3.839 -0.1184  0.0961 -0.1541
16222W        W32483   4.534  17.826   2.505  0.2806  0.1644 -0.1612
16223W        W32484  12.039   2.231  13.063  0.1863  0.0137  0.0364
16224W        W32485   1.122   8.680   1.178 -0.0193 -0.1603 -0.1229
16225W        W32486  14.097  17.910   3.508  0.2142  0.0124 -0.0673
16226W        W32487  17.946   0.852  11.840 -0.1318  0.2076 -0.1885
16227W        W32488   6.979  18.201  13.408 -0.2733 -0.4198 -0.4558
16228W        W32489   5.769  13.705   3.243 -0.2085 -0.1997 -0.0357
16229W        W32490   3.302   4.935   3.878 -0.1542 -0.0816  0.0523
16230W        W32491   6.125  14.887   1.901  0.1731  0.0762  0.1257
16231W        W32492   9.506  17.823  11.999  0.1086 -0.1875 -0.2554
16232W        W32493   4.574  13.926   1.242 -0.0733 -0.3980  0.0381
16233W        W32494   2.552  17.383   5.487 -0.1922  0.1699 -0.0553
16234W        W32495   0.463   8.469  11.556  0.3059  0.2128 -0.1149
16235W        W32496  13.069  18.795   0.733  0.3146 -0.1943  0.0131
16236W        W32497  14.544   7.692  11.015  0.1949  0.1999  0.0169
16237W        W32498  13.285  18.657  14.137  0.0991 -0.0758  0.1931
16238W        W32499  15.922   3.804  12.819  0.0176  0.1740  0.0497
16239W        W32500   5.842   8.670   1.038 -0.1358 -0.3815  0.2258
16240W        W32501   8.789   6.395  10.397  0.2059 -0.0450 -0.1293
16241W        W32502  15.043   0.299   1.675 -0.1389 -0.0530 -0.2463
16242W        W32503   5.256  12.351  13.296 -0.2357 -0.0973 -0.0137
16243W        W32504   1.313  14.647  12.463  0.1229  0.3237  0.0446
16244W        W32505  18.384  10.043  12.437  0.2093  0.0582  0.2452
16245W        W32506  18.242   9.886   1.213  0.3509  0.0418  0.2814
16246W        W32507   9.487   3.369   4.314 -0.1123 -0.0740  0.1833
16247W        W32508  15.700   0.237  13.007  0.1222 -0.2339 -0.0774
16248W        W32509  14.733   7.874   0.315 -0.0017 -0.0894  0.3866
16249W        W32510   8.323  17.545   1.285 -0.3616  0.1271 -0.1327
16250W        W32511   7.021  17.176  11.621 -0.1187 -0.1622  0.0979
16251W        W32512  18.028   1.134   3.180  0.0368  0.1904  0.0102
16252W        W32513  14.851   6.629  13.673 -0.1405 -0.0768 -0.0895
16253W        W32514  11.857  17.821   1.749  0.0748  0.1538  0.1790
16254W        W32515  19.348   6.393   3.382  0.0519  0.0410 -0.0906
16255W        W32516   0.482   5.438  14.450  0.0169 -0.0778 -0.0955
16256W        W32517   8.427  12.486  11.611 -0.1032 -0.2834 -0.1097
16257W        W32518   6.350  19.254   2.885  0.1219  0.2105  0.1068
16258W        W32519  19.289   3.799  13.277  0.1614  0.1389  0.0580
16259W        W32520  18.603  12.817  13.683  0.0144 -0.5144 -0.1108
16260W        W32521  12.292   7.505  13.576  0.1852  0.2689  0.2105
16261W        W32522   1.603  10.583   2.552  0.1331  0.1031  0.0144
16262W        W32523  11.681  12.871  13.446 -0.0651 -0.1715  0.2117
16263W        W32524  10.220   7.690  14.521  0.0687 -0.0843  0.2370
16264W        W32525   6.918  12.245  11.516 -0.0501 -0.0697  0.3204
16265W        W32526   3.425  12.686   3.186 -0.1619  0.2277 -0.0177
16266W        W32527   4.145   6.248   3.848 -0.2806 -0.0941 -0.0139
16267W        W32528  19.252  13.537   1.441  0.4633 -0.0438  0.1920
16268W        W32529  12.178  16.406   3.862 -0.2925 -0.1683  0.1046
16269W        W32530   6.031   3.543  14.314  0.1710  0.0368 -0.0110
16270W        W32531   4.933   4.045   1.298  0.0649  0.1450  0.2398
16271W        W32532   1.137  16.789  10.935 -0.0555 -0.0842  0.0985
16272W        W32533  12.380  14.830   3.415 -0.3590 -0.0866  0.3509
16273W        W32534   3.910  12.880   3.152 -0.0813  0.0284  0.2750
16274W        W32535   6.171  16.800  12.615 -0.1794 -0.1299  0.0299
16275W        W32536   2.472   9.166   0.592 -0.3484  0.2290  0.1929
16276W        W32537   9.768  18.204  14.585  0.0784  0.2460 -0.1300
16277W        W32538   7.891   0.159   3.272 -0.0902  0.1788  0.1057
16278W        W32539   5.182   5.587  12.301  0.0507 -0.0188  0.1362
16279W        W32540   1.524   3.084   1.545  0.0178 -0.0787 -0.0561
16280W        W32541   3.966   2.049   0.527  0.1035 -0.1698 -0.3147
16281W        W32542   4.621   9.731   3.389 -0.1322 -0.1341 -0.0844
16282W        W32543   2.715  14.022  11.829 -0.0046  0.1759 -0.0657
16283W        W32544  15.136   8.326   2.831 -0.0408  0.3027 -0.1578
16284W        W32545   6.681   2.259  11.654  0.0848 -0.0027 -0.2385
16285W        W32546   4.537   2.091  12.579  0.1536  0.0291 -0.0497
16286W        W32547   9.574   5.816   4.480  0.0472  0.1742  0.0168
16287W        W32548  18.356  12.337  12.751 -0.0579  0.0291 -0.3004
16288W        W32549   0.288   4.344  12.032  0.0539  0.1209  0.2880
16289W        W32550  10.333  16.452   4.451 -0.0282  0.0601  0.2506
16290W        W32551   6.405   5.344  10.829  0.0585 -0.1252  0.0193
16291W        W32552  16.879  18.253   4.236  0.1527  0.0696  0.0094
16292W        W32553  15.368  16.073  11.379  0.2193 -0.0558  0.2429
16293W        W32554  18.153  17.688  10.851 -0.0745 -0.0515 -0.2730
16294W        W32555  10.918   1.697   0.923  0.2366 -0.0779 -0.2258
16295W        W32556  11.554   6.805   8.966 -0.0437  0.0393  0.1275
16296W        W32557   4.683   1.450  11.780  0.0391 -0.0202 -0.0872
16297W        W32558  10.852  12.131  13.627 -0.2088 -0.2882  0.0047
16298W        W32559  17.077   1.393  13.079  0.1060  0.0350  0.1516
16299W        W32560   1.797  13.808  14.591  0.0316  0.1000 -0.6713
16300W        W32561  14.945   3.578  14.645 -0.1465  0.2387  0.1350
16301W        W32562   9.688  18.981   2.399  0.0488 -0.2811 -0.1581
16302W        W32563  14.675   3.994   1.275 -0.2693 -0.2812 -0.1283
16303W        W32564   8.380  15.734  12.132 -0.1974 -0.1748  0.0413
16304W        W32565   9.699  17.877  13.695  0.2275  0.2858 -0.1864
16305W        W32566   7.044  15.487   2.686 -0.0911 -0.0389 -0.0620
16306W        W32567   2.654  18.525   3.650  0.3663  0.1524  0.3818
16307W        W32568   2.849  17.709   2.978  0.0150 -0.1516 -0.0967
16308W        W32569  12.099   1.040   4.848 -0.3441 -0.1813 -0.4277
16309W        W32570  17.840  18.596   4.573 -0.3026  0.1836 -0.1926
16310W        W32571  18.127  12.225  13.262 -0.3453  0.2623  0.0491
16311W        W32572   1.659  10.112  14.004 -0.0505 -0.2710 -0.2520
16312W        W32573  16.999  15.819   3.660  0.1884  0.1260 -0.5022
16313W        W32574  11.922  11.191  12.435  0.2656  0.2578  0.0839
16314W        W32575   8.075  11.804   9.783 -0.0215 -0.3919 -0.0502
16315W        W32576   9.925   6.240  11.459 -0.1715 -0.1750 -0.0540
16316W        W32577   1.743  10.762  11.736 -0.1584 -0.4022  0.3039
16317W        W32578  17.277   4.645   0.117 -0.2290  0.0238 -0.4621
16318W        W32579   5.042   6.011   9.975 -0.3025  0.0242  0.1934
16319W        W32580  15.887  13.235   0.563 -0.0116 -0.0462 -0.1338
16320W        W32581  16.486   8.953   2.430 -0.0749  0.1156  0.1478
16321W        W32582  16.595   5.314  10.355 -0.0327  0.3026  0.1904
16322W        W32583   5.980   9.771   4.193 -0.0475  0.1021  0.3133
16323W        W32584   0.346  11.685   4.499 -0.2857 -0.0667  0.1122
16324W        W32585  17.694   7.371  13.288  0.2040 -0.1700 -0.0896
16325W        W32586  17.240   2.599   3.239  0.0462 -0.0880  0.0047
16326W        W32587   5.024   9.378   1.609 -0.0276  0.2968  0.1155
16327W        W32588  18.031  18.552  14.496 -0.2017  0.0836 -0.0189
16328W        W32589  15.760  16.228  12.990 -0.4749 -0.2262 -0.0524
16329W        W32590   1.280  13.856  13.020 -0.0452 -0.1821 -0.1768
16330W        W32591  17.808   2.615   1.089  0.3113  0.4152 -0.1464
16331W        W32592  10.654   3.840  10.130  0.0159 -0.3624  0.2053
16332W        W32593   4.723   1.262   1.907  0.2304  0.0975  0.2963
16333W        W32594   1.934   8.674  12.465 -0.1623 -0.2256  0.0360
16334W        W32595  10.287  19.322   3.911 -0.1864 -0.0257  0.2519
16335W        W32596  12.762   5.376   1.383 -0.0527 -0.1739  0.3347
16336W        W32597   2.053   7.274  13.623  0.1904  0.2727  0.1805
16337W        W32598  17.182   5.308   1.894 -0.0138  0.2523  0.0998
16338W        W32599  12.679  16.718  12.710 -0.1276  0.2127 -0.0268
16339W        W32600   8.009   1.966  11.664  0.0367  0.2132 -0.2389
16340W        W32601  16.312   3.548  12.608 -0.2732 -0.0778 -0.3829
16341W        W32602   7.714  15.384   5.006 -0.3612 -0.2207  0.1542
16342W        W32603   9.256  13.847   9.811  0.1712  0.0827  0.0618
16343W        W32604   3.784   8.896  11.869 -0.0257 -0.3344  0.1000
16344W        W32605   8.687  12.368  13.367 -0.0419  0.1780 -0.1494
16345W        W32606   0.290   2.077   1.244  0.0669  0.3537 -0.0500
16346W        W32607   9.531   6.252   4.617 -0.5502 -0.2996 -0.0914
16347W        W32608   1.783  11.441  12.096 -0.1051  0.0130 -0.0233
16348W        W32609  18.049  19.110   3.324  0.0929  0.3579 -0.1429
16349W        W32610   8.971   3.941   0.285  0.2090  0.1001 -0.0844
16350W        W32611   2.423   3.576   2.811 -0.2398 -0.2393 -0.1630
16351W        W32612  16.974  12.059   3.550 -0.1749 -0.2352  0.0545
16352W        W32613   5.345   5.891   4.791  0.0726  0.1495 -0.0007
16353W        W32614  15.992  14.060  14.804 -0.2428 -0.0087 -0.2223
16354W        W32615  15.916   8.118   3.093  0.4246 -0.0411  0.0210
16355W        W32616  13.690  18.994  14.061  0.2229  0.0124  0.2656
16356W        W32617   2.770  14.194  10.549  0.0012  0.2973  0.1441
16357W        W32618   2.662  17.900  11.105  0.3193  0.0707  0.0860
16358W        W32619   1.638  10.347  10.521 -0.1455  0.1960 -0.2559
16359W        W32620  10.402   9.519  14.064  0.3532  0.1300 -0.3148
16360W        W32621   5.570  16.202   3.402  0.3115 -0.0080  0.0680
16361W        W32622  14.396  16.532   3.455 -0.4235  0.0747  0.1986
16362W        W32623  15.050  17.241   4.600  0.1681 -0.0737  0.0244
16363W        W32624   2.531  18.541   9.872 -0.0474  0.1313  0.2890
16364W        W32625   1.274  13.577  12.616  0.2605  0.0662 -0.1673
16365W        W32626  14.253   8.580  13.927  0.0706 -0.1430  0.3301
16366W        W32627   1.033  19.035  11.510 -0.2076 -0.0983  0.3891
16367W        W32628   0.811   1.907   0.596  0.2875  0.0498 -0.2136
16368W        W32629   5.662  12.366   2.720 -0.3476 -0.0118 -0.0441
16369W        W32630   8.753   5.504   2.078 -0.2621 -0.1875  0.0679
16370W        W32631   4.839   9.433  13.783 -0.1091 -0.0690 -0.2101
16371W        W32632  19.034  17.703  11.601  0.1224 -0.3083  0.1255
16372W        W32633   9.188   1.445  13.528 -0.0468 -0.2486  0.1100
16373W        W32634   9.026   6.733   0.337 -0.1998  0.3385 -0.1747
16374W        W32635   9.794   1.027  10.039  0.3375  0.1898 -0.2298
16375W        W32636  11.532   1.035   4.647 -0.1536  0.0911  0.0649
16376W        W32637   9.910  10.037   0.515 -0.1222 -0.2639  0.0649
16377W        W32638   0.305   9.956  13.467 -0.1892  0.1950 -0.0541
16378W        W32639  10.191  11.421   2.019  0.1069  0.1458  0.1858
16379W        W32640  19.341   9.282   4.312  0.0974  0.2015  0.0750
16380W        W32641  16.094  18.986  14.736 -0.2065  0.1399  0.0661
16381W        W32642  17.269  13.598  10.492  0.0829 -0.1687 -0.1304
16382W        W32643   7.163  11.927   1.945  0.1216  0.3016 -0.0322
16383W        W32644  11.296   3.735   3.986 -0.1880  0.0531 -0.2804
16384W        W32645   2.297   6.505  11.935 -0.3191  0.0724  0.0213
16385W        W32646  18.150   3.093   1.450 -0.0387  0.1431 -0.1095
16386W        W32647  13.068   2.417  12.767  0.1816  0.1031  0.0496
16387W        W32648   7.408   8.489  12.121 -0.0288 -0.1523  0.0899
16388W        W32649  18.540   1.800   1.538 -0.0457  0.1282  0.2757
16389W        W32650  11.387  10.929   1.061 -0.1285  0.2432 -0.1375
16390W        W32651  17.814  18.866  13.110 -0.1238  0.1607  0.1385
16391W        W32652  13.775  10.585   4.015 -0.1717  0.2866  0.1784
16392W        W32653  15.176   2.162  13.968 -0.2908  0.2773  0.1192
16393W        W32654  10.056   4.841   3.297 -0.3153 -0.0723  0.2883
16394W        W32655   4.753  19.419   9.591  0.1864  0.0710 -0.0360
16395W        W32656   4.175   7.413  14.267  0.0791 -0.0913  0.4234
16396W        W32657   8.971  12.828   4.684 -0.1577 -0.0733  0.2044
16397W        W32658   9.012   3.140  14.546 -0.0616  0.3845 -0.0268
16398W        W32659   4.276   2.100   0.917  0.1545  0.0162 -0.0750
16399W        W32660   5.379  17.561   0.864 -0.1430  0.0325  0.1826
16400W        W32661  17.210  14.448   0.201 -0.1096  0.0949  0.3736
16401W        W32662   4.581  14.443   2.985  0.0460  0.0007 -0.1900
16402W        W32663  13.778  15.964  13.783 -0.2156  0.1521  0.0772
16403W        W32664   8.975  10.750   4.325 -0.0079  0.1069  0.0095
16404W        W32665  17.708  10.302   0.453  0.2923 -0.1822 -0.1515
16405W        W32666  11.949  12.703  10.305  0.0955 -0.0884  0.2312
16406W        W32667   7.676  10.973  10.805 -0.3049 -0.0911  0.3515
16407W        W32668  10.378   4.638   4.250  0.1750 -0.1534  0.2199
16408W        W32669   9.799   2.681  12.851 -0.3150  0.2041 -0.0054
16409W        W32670   9.586  16.997   5.676  0.0592 -0.0249  0.3376
16410W        W32671  17.205   3.006   3.739  0.3472 -0.0259 -0.1409
16411W        W32672  15.225  15.014  12.827  0.1242  0.3462  0.1450
16412W        W32673   4.751   9.953   3.916 -0.2515  0.4140 -0.1210
16413W        W32674  12.273  15.068   5.277  0.2599 -0.2143  0.0824
16414W        W32675   6.341  14.602   2.635  0.3212 -0.0755  0.1457
16415W        W32676   8.758   5.260   4.143  0.2409 -0.0286 -0.0935
16416W        W32677   1.718   3.941   0.649 -0.3832  0.0358 -0.0749
16417W        W32678   0.251  15.467   5.918 -0.2455  0.2837  0.0119
16418W        W32679   7.899   3.327  12.013  0.2688 -0.0292  0.0731
16419W        W32680  10.604  12.380   4.912  0.2508  0.1890  0.0117
16420W        W32681  10.387  15.708  13.741  0.2100 -0.0488  0.1613
16421W        W32682   5.775  16.077   3.888 -0.1336 -0.1181 -0.0203
16422W        W32683  13.880   9.564  14.432  0.0553 -0.1176  0.3420
16423W        W32684  19.394   8.302   4.745  0.3236 -0.0971  0.1206
16424W        W32685  10.105  14.374  11.439 -0.4231  0.1265 -0.0888
16425W        W32686   0.580  13.022  12.291  0.1133  0.4253  0.1008
16426W        W32687  10.450  11.267   3.938  0.3469 -0.0469 -0.0791
16427W        W32688   3.013   6.681   3.844  0.2039 -0.2467 -0.3998
16428W        W32689   7.338   2.737  11.778 -0.0892 -0.0200  0.1321
16429W        W32690   8.845   3.629   1.519 -0.1197  0.2278  0.1543
16430W        W32691  12.369   1.501  14.778 -0.1705 -0.1223 -0.4260
16431W        W32692   1.787   0.237  10.811 -0.2312  0.1418  0.2499
16432W        W32693  18.240   2.731  11.294  0.1498 -0.1504  0.1296
16433W        W32694   5.765   4.618   2.561  0.1187 -0.0756 -0.0682
16434W        W32695   7.311  13.949   4.676  0.0858  0.2588 -0.1114
16435W        W32696   8.078   3.216   1.566 -0.1836  0.3300 -0.4951
16436W        W32697   9.155  13.839  14.065 -0.0685 -0.4785  0.0022
16437W        W32698  12.934  12.924  10.757 -0.2820  0.2833  0.0345
16438W        W32699   6.091  11.589  14.516 -0.3353  0.0702 -0.0741
16439W        W32700   8.068  12.095   3.457 -0.2927 -0.0455 -0.1975
16440W        W32701   8.547   4.285  13.938  0.0187 -0.1079 -0.1142
16441W        W32702   2.600   2.663  12.631 -0.4081 -0.0216  0.1241
16442W        W32703  19.068  13.689   0.966 -0.0590 -0.1203 -0.1382
16443W        W32704  12.449  14.695  11.586 -0.0889 -0.1489 -0.0992
16444W        W32705  17.879   8.718   4.856 -0.2643  0.3909  0.0249
16445W        W32706   8.357   1.723  13.440 -0.0838 -0.1043 -0.0487
16446W        W32707   6.561  17.453  13.708  0.0487 -0.2292  0.0192
16447W        W32708   0.255   5.090   0.428  0.1894 -0.1031 -0.1707
16448W        W32709  15.292   7.815   4.437  0.2153  0.2482  0.1876
16449W        W32710  17.224  12.186  14.661  0.2662  0.3811 -0.0604
16450W        W32711   8.998   8.156  13.670 -0.0337  0.0809 -0.0713
16451W        W32712  12.727   9.716   3.601  0.2533 -0.4589  0.2389
16452W        W32713  10.659  14.902  13.590  0.0545  0.3414 -0.0517
16453W        W32714   6.057   8.905   3.583  0.1637  0.1640  0.1214
16454W        W32715  19.262  12.400   4.921  0.0465  0.2692 -0.3670
16455W        W32716  15.813   4.355  10.562  0.1375  0.0021  0.2613
16456W        W32717  17.798  17.034  12.561  0.0727  0.0682  0.1623
16457W        W32718   8.350   3.264  12.783  0.3182 -0.0116 -0.1299
16458W        W32719  11.739   7.299  13.592  0.0254  0.0181  0.1915
16459W        W32720   0.673  17.846   3.180  0.0461 -0.0840 -0.3083
16460W        W32721   5.718  16.200  12.933 -0.2509 -0.1962  0.0091
16461W        W32722   2.596   5.396  10.385 -0.1333 -0.1831 -0.3181
16462W        W32723   5.204  16.290  12.797 -0.0520 -0.2510 -0.0520
16463W        W32724   6.297   6.200   2.799  0.1503  0.0766  0.3686
16464W        W32725   3.888   0.856  12.517  0.0626  0.2804  0.2162
16465W        W32726   2.205   3.488   5.191  0.1433 -0.0546  0.1874
16466W        W32727  18.086  12.093   4.007  0.0762 -0.0388 -0.4113
16467W        W32728   6.830   1.894  10.437 -0.0127  0.0695 -0.0160
16468W        W32729  12.864   7.819   5.681 -0.4307 -0.0875 -0.1831
16469W        W32730  11.925  11.421  13.921 -0.1759 -0.0743 -0.0768
16470W        W32731  17.585   1.649   3.698 -0.0736 -0.2219 -0.0013
16471W        W32732  18.771  12.603   5.525  0.0814  0.2605  0.1952
16472W        W32733  16.509  14.863   2.099  0.0037 -0.0600 -0.4185
16473W        W32734  12.431  12.323   0.640  0.1072  0.0387 -0.2297
16474W        W32735  15.619  14.508   4.683 -0.0065  0.1415  0.1180
16475W        W32736  14.541  14.577   5.079 -0.1516 -0.0663  0.0002
16476W        W32737   7.472   0.108   3.519  0.1342  0.1850  0.3579
16477W        W32738  12.405   8.378  12.403  0.1789  0.0039  0.1744
16478W        W32739  17.535   5.816   1.382  0.0146  0.0005 -0.1971
16479W        W32740   5.865  18.541   3.251  0.1339 -0.3207 -0.1599
16480W        W32741   1.174  16.227   0.559 -0.1959  0.0621  0.1555
16481W        W32742   3.870   1.935  14.397  0.1534  0.1785 -0.1013
16482W        W32743  17.462   0.418   0.473 -0.0599 -0.0126 -0.0518
16483W        W32744  12.456  18.374   3.003  0.0872  0.2291  0.2806
16484W        W32745   5.585  18.340  11.343  0.1174  0.1697  0.3573
16485W        W32746  18.510   0.796  10.533 -0.0298 -0.0766 -0.1917
16486W        W32747   0.806   0.161  10.525  0.2189 -0.0323  0.0083
16487W        W32748   7.350   6.737   0.849 -0.3346 -0.1416 -0.1938
16488W        W32749  15.254   3.467  10.640 -0.0985 -0.0128  0.1168
16489W        W32750   6.030  15.953  13.771 -0.2934 -0.2315  0.1824
16490W        W32751  13.975   6.841   4.691  0.1039 -0.0889  0.1972
16491W        W32752  14.797   6.920   3.134  0.0927 -0.0450 -0.0005
16492W        W32753  14.168  17.563   0.363  0.3093  0.1800 -0.0426
16493W        W32754  11.254  13.673  13.007 -0.2833 -0.0522 -0.0822
16494W        W32755  17.769   8.329  12.950  0.1274 -0.1256 -0.0838
16495W        W32756  11.901  10.783   3.100 -0.1463  0.1847  0.1358
16496W        W32757   0.361  10.275   0.846  0.0769 -0.0333  0.4881
16497W        W32758   3.012  13.840  12.778  0.1807  0.0046  0.2618
16498W        W32759   1.532   3.133   4.055  0.2964  0.1088  0.0838
16499W        W32760   9.499  15.562  14.034 -0.3807 -0.0921  0.0925
16500W        W32761  16.802  16.435  14.557  0.1438  0.1307 -0.1832
16501W        W32762  15.613   2.515  14.204 -0.0726  0.0555 -0.2133
16502W        W32763   0.513  18.330   3.050 -0.1383 -0.0678 -0.2052
16503W        W32764  16.238  11.075  12.147 -0.4212  0.0487  0.0813
16504W        W32765  13.046  14.450   2.927  0.1273  0.0855  0.1510
16505W        W32766   0.825   9.917   1.473 -0.0313 -0.0189  0.1004
16506W        W32767  10.340   3.587   0.905 -0.2252 -0.1426  0.3597
16507W        W32768   2.366   4.371   0.002  0.2253 -0.1906 -0.0150
16508W        W32769   0.356  11.582  13.155 -0.0514  0.0277  0.2506
16509W        W32770   8.009  17.492   0.686  0.2095  0.0804  0.0655
16510W        W32771   6.495   6.981  13.699 -0.0499 -0.3662 -0.2373
16511W        W32772  10.257   5.185   1.830 -0.0424 -0.2220  0.3182
16512W        W32773   9.887  16.574   2.319  0.1382  0.1674 -0.0810
16513W        W32774   1.747  14.852  11.451 -0.0289  0.4403  0.3659
16514W        W32775   1.614   3.686  11.902 -0.0902 -0.2525  0.0664
16515W        W32776   5.525   4.896   9.463  0.1085 -0.0092  0.0647
16516W        W32777  15.680   7.465  13.686  0.0678 -0.1120 -0.1112
16517W        W32778  18.383   3.963   0.412 -0.1602 -0.1991 -0.0030
16518W        W32779   9.764   6.986   3.579  0.3884  0.0077 -0.0354
16519W        W32780   9.814   7.806   2.803 -0.2722  0.0339  0.0879
16520W        W32781  18.514   3.257  12.615  0.0765 -0.0656 -0.1494
16521W        W32782  17.387   5.046   0.426 -0.1380  0.2275 -0.0715
16522W        W32783   1.190   0.403   3.100  0.2241 -0.2690 -0.0626
16523W        W32784   5.958   0.141   0.542 -0.1806 -0.1219  0.1927
16524W        W32785  14.998  11.822   5.460 -0.1157 -0.1342  0.3309
16525W        W32786   4.481   3.701  12.437 -0.1106  0.0312  0.1422
16526W        W32787  15.679   3.386  11.871 -0.2162 -0.2042  0.4370
16527W        W32788  13.503   0.114   2.019  0.1440  0.1847 -0.0050
16528W        W32789  17.416   1.752   4.843 -0.0047  0.0484 -0.0664
16529W        W32790  12.374   0.985   1.417 -0.1952  0.1083  0.3022
16530W        W32791   6.441   1.136  12.596 -0.0532  0.1415 -0.1708
16531W        W32792   8.151  12.966  10.540  0.1854 -0.1343  0.0307
16532W        W32793   9.224  14.778   3.932 -0.0193  0.1472 -0.4045
16533W        W32794  10.034  17.960  12.380  0.1518  0.4478  0.0799
16534W        W32795   7.105   3.011  12.777  0.2904 -0.6029 -0.0985
16535W        W32796  12.254  16.082  14.253  0.4779 -0.0023  0.0424
16536W        W32797  18.396   5.000  12.328 -0.1667  0.0100 -0.0862
16537W        W32798  18.821  10.890   1.177 -0.0159 -0.1001  0.2031
16538W        W32799  18.934   6.242  14.354 -0.2282 -0.2788  0.2505
16539W        W32800  17.847  12.227   1.466  0.1536 -0.0025 -0.0672
16540W        W32801  11.031  10.325  13.159 -0.3988 -0.1354 -0.1439
16541W        W32802  13.927   0.441  11.183  0.0026 -0.0627  0.1609
16542W        W32803   5.838  13.687  13.204 -0.1452  0.0202  0.3788
16543W        W32804  15.424  15.066  13.278  0.2044 -0.1304  0.1167
16544W        W32805   3.398  12.481   0.411 -0.1282  0.1998  0.0582
16545W        W32806   4.441  16.651   4.200  0.1018  0.0002 -0.0018
16546W        W32807   4.965  17.451   0.449 -0.1911 -0.2900 -0.1619
16547W        W32808   1.156   0.954   1.838  0.0626  0.1414 -0.1505
16548W        W32809   5.247   0.383   3.219  0.1191  0.2003  0.0771
16549W        W32810   9.929  15.233   2.161 -0.2403  0.0005  0.1985
16550W        W32811  13.214   1.261   3.405  0.0436 -0.0442  0.0060
16551W        W32812   3.309  11.041   2.497 -0.1610 -0.2380 -0.0683
16552W        W32813   3.157   2.621  11.841  0.0847 -0.3538 -0.1144
16553W        W32814   0.591  18.370   4.284  0.2286 -0.0185 -0.0371
16554W        W32815   0.812  15.780  14.107  0.3315 -0.1835 -0.5446
16555W        W32816   1.023   8.396  13.560  0.1237  0.0806 -0.1946
16556W        W32817   1.114   2.552  12.685 -0.1213 -0.0046 -0.1853
16557W        W32818   8.203  14.040  12.013  0.2622  0.2380 -0.1066
16558W        W32819  11.989  13.490   3.708 -0.1843 -0.1140 -0.3895
16559W        W32820  17.593   4.155  11.853  0.2933 -0.2237 -0.3270
16560W        W32821  11.291   5.905   4.075  0.1762  0.0896 -0.1250
16561W        W32822  19.022   3.404  13.677  0.3601 -0.1106  0.1408
16562W        W32823   1.689  13.033   1.085  0.1136  0.2497  0.2222
16563W        W32824   7.956   3.936  12.369 -0.2203 -0.2266 -0.0717
16564W        W32825   4.974   9.588   0.278 -0.1231 -0.1082 -0.2947
16565W        W32826  14.874   0.032  14.644 -0.0769 -0.0236 -0.0245
16566W        W32827  19.096   4.421   0.080  0.2738  0.2574  0.3177
16567W        W32828  17.841   1.367  13.611  0.1594 -0.0091  0.0648
16568W        W32829   5.113   1.181   1.232  0.2903 -0.1034  0.3295
16569W        W32830   1.806   2.871  13.813 -0.0677 -0.4020 -0.3343
16570W        W32831   8.085  18.507   4.341 -0.2014  0.0136  0.1157
16571W        W32832  15.377   2.610  13.704 -0.1014  0.0409  0.0899
16572W        W32833  12.997  10.300   3.507  0.0869  0.0246  0.2806
16573W        W32834  17.376   9.606   1.198 -0.1987  0.0021 -0.0139
16574W        W32835  15.422   7.454  14.109 -0.2577  0.1701 -0.0439
16575W        W32836  10.407  17.637  12.206  0.0024  0.1976 -0.0730
16576W        W32837   2.941   0.320   4.843  0.0390 -0.2086  0.1048
16577W        W32838  12.335  17.810   1.050  0.1138  0.3532 -0.0193
16578W        W32839   5.658  13.491   3.725  0.1926 -0.1992 -0.2609
16579W        W32840   7.599   5.030  11.667 -0.4598  0.2507 -0.3070
16580W        W32841  17.498  10.694  12.741  0.2302 -0.2153  0.3207
16581W        W32842   5.303  13.243   1.105 -0.1223 -0.3783  0.0415
16582W        W32843   7.460  15.419   1.157  0.0852  0.0046 -0.2058
16583W        W32844   3.348  18.136  13.859 -0.1808 -0.0886 -0.2492
16584W        W32845   2.103   0.145  11.247  0.2299 -0.1152 -0.1244
16585W        W32846  18.406  11.079   3.312 -0.0200 -0.0269  0.0843
16586W        W32847   0.440  17.108   0.469 -0.2771  0.2073 -0.0500
16587W        W32848   0.888  15.479  10.840  0.3653  0.1099  0.3075
16588W        W32849   7.037   2.262   5.051 -0.0041 -0.3046  0.0721
16589W        W32850  19.250  16.524  12.378 -0.1185  0.3267 -0.4460
16590W        W32851  15.075  14.158  13.533  0.0272  0.0043 -0.1112
16591W        W32852  18.613   5.520   3.340 -0.1086 -0.1015  0.1269
16592W        W32853  15.771   2.041   3.472  0.2566  0.1263 -0.2039
16593W        W32854  17.218  16.555   4.253 -0.0260  0.0046 -0.2086
16594W        W32855   7.625  18.632   2.186  0.2295  0.0087  0.0566
16595W        W32856  12.998  16.687  12.218  0.0073  0.1633  0.1386
16596W        W32857  12.659   5.969   3.529  0.2186 -0.0942  0.0115
16597W        W32858  16.620   5.803   0.856  0.2359  0.3127 -0.3190
16598W        W32859  14.355   7.714  13.363 -0.0617  0.0768  0.0511
16599W        W32860   1.231  16.389  13.084  0.0510  0.3401 -0.1477
16600W        W32861   5.948   4.583   2.034 -0.0810  0.0988  0.0012
16601W        W32862   6.345   4.531  14.024 -0.1044  0.1455  0.0680
16602W        W32863   0.309   9.335   2.380  0.0026  0.0558 -0.2526
16603W        W32864   4.690  16.142  14.771 -0.0790  0.1046 -0.0929
16604W        W32865  12.398  11.949   3.995  0.0799  0.1418 -0.1686
16605W        W32866  15.389  16.082   2.186 -0.2633 -0.0932  0.0510
16606W        W32867   9.731  17.645  11.463  0.1690  0.1332  0.3828
16607W        W32868  16.003   3.079   1.941 -0.1368  0.0657 -0.2491
16608W        W32869  14.215  17.201  14.793 -0.3586  0.0432  0.1622
16609W        W32870   1.375  14.447   4.612  0.1004 -0.1510 -0.0471
16610W        W32871  15.677  15.667   2.402 -0.2798  0.0084 -0.0354
16611W        W32872  15.749  10.881  14.343 -0.0823 -0.0904 -0.1246
16612W        W32873   5.178  13.889  10.482 -0.1053  0.1438 -0.0074
16613W        W32874  18.225  13.328  10.335 -0.3342 -0.2171 -0.0289
16614W        W32875   0.442   2.341   0.836 -0.1214 -0.1649  0.0439
16615W        W32876  13.322  17.336  14.471  0.1986  0.0020  0.0333
16616W        W32877   0.337   7.496   0.015  0.1723 -0.0211 -0.0832
16617W        W32878   7.632  17.732   3.245  0.0439 -0.0214 -0.1367
16618W        W32879  10.157  16.985   0.451 -0.1197  0.0784 -0.2709
16619W        W32880  12.593   0.724  14.718 -0.0872  0.0643  0.1741
16620W        W32881  11.138  13.030  13.999  0.1546  0.3094  0.0036
16621W        W32882  14.571  16.860   0.159 -0.4286  0.0566  0.2170
16622W        W32883   0.469  11.173   4.074  0.0347  0.2729 -0.2663
16623W        W32884  10.852  12.631   4.586 -0.1008  0.1831  0.2477
16624W        W32885  12.874  14.232  12.331  0.1343  0.0514  0.2125
16625W        W32886   5.873  19.182   4.046 -0.3509 -0.1269 -0.1515
16626W        W32887   5.946  18.134  10.554 -0.3173 -0.1048  0.0043
16627W        W32888  16.120   1.772  12.115  0.0158  0.0239  0.0165
16628W        W32889   6.875   2.216   9.983  0.0310  0.0797 -0.2771
16629W        W32890   2.567   2.963   0.199 -0.2107 -0.1046 -0.4052
16630W        W32891  17.884  10.904  13.006  0.1577  0.0258  0.1765
16631W        W32892  13.959  10.971  13.265 -0.2522  0.0859 -0.2178
16632W        W32893   0.333   0.243  12.646  0.0774  0.0122  0.1478
16633W        W32894   7.648  17.150   2.085 -0.0123 -0.1222  0.0931
16634W        W32895  13.610   9.487  13.921 -0.0374  0.2716  0.2550
16635W        W32896  12.696   1.514  13.298  0.1496 -0.0400 -0.2080
16636W        W32897   6.106  11.775  13.443 -0.0157  0.0854 -0.0395
16637W        W32898   7.726   6.771  13.329 -0.1250  0.4168 -0.0940
16638W        W32899  14.966   4.065  13.268  0.1759 -0.0053 -0.0552
16639W        W32900   4.414  10.300  11.956 -0.0335 -0.2005 -0.1191
16640W        W32901  14.486   4.518   1.468 -0.4351  0.1336  0.1246
16641W        W32902  15.767  12.004  13.092  0.1363  0.3105  0.0967
16642W        W32903   8.608   7.292  10.589  0.0491  0.2541 -0.4587
16643W        W32904   8.736   0.748   2.407  0.0870  0.0343 -0.1442
16644W        W32905   2.082   1.795  12.954  0.4648 -0.2237 -0.0432
16645W        W32906   0.674  13.780   4.103  0.1796  0.1337 -0.1508
16646W        W32907  14.030   5.517   1.975  0.1767  0.2303 -0.0638
16647W        W32908   5.665  17.885  11.153 -0.4695  0.1079 -0.2998
16648W        W32909  17.345   4.902  10.630  0.4012  0.3106  0.0458
16649W        W32910  12.047   0.684  11.199 -0.0397  0.3165 -0.0708
16650W        W32911   5.135  19.112   5.030 -0.0078 -0.2297  0.1717
16651W        W32912  10.338   7.091   4.482  0.0468 -0.0450  0.1126
16652W        W32913   1.888   5.330   4.031  0.1814 -0.0636 -0.3428
16653W        W32914   5.569  18.008   0.629  0.3370  0.0928  0.2881
16654W        W32915   5.704   1.263   5.039  0.2175 -0.0017 -0.3122
16655W        W32916   8.262   8.880   2.525 -0.1410 -0.0245 -0.0780
16656W        W32917   9.846   5.780  12.837 -0.2163 -0.1371  0.0866
16657W        W32918   7.004   5.651   1.524 -0.0271 -0.0587  0.1506
16658W        W32919   8.236   6.755   2.179 -0.2296  0.0107  0.2209
16659W        W32920   1.707   0.576   0.010  0.0074  0.4634  0.1863
16660W        W32921  18.226  13.518  10.833  0.3921 -0.0258  0.1838
16661W        W32922  16.698  12.911  13.150  0.1777 -0.0600  0.3104
16662W        W32923  15.196   1.657   4.665  0.0253  0.1432  0.3018
16663W        W32924  11.356   3.381   1.832  0.1619 -0.0481  0.2927
16664W        W32925  18.927   7.907  11.335 -0.3538 -0.4415 -0.2290
16665W        W32926   2.877  12.037   2.446 -0.2133  0.2904 -0.0068
16666W        W32927  12.395   5.119   4.260 -0.1209 -0.0594 -0.1212
16667W        W32928  18.411  16.023   3.660 -0.0952 -0.1665 -0.1523
16668W        W32929  11.896   8.910   1.547  0.1473 -0.1031 -0.0294
16669W        W32930  18.780  11.561   1.204 -0.2549  0.1297 -0.1296
16670W        W32931  17.748  12.473  10.595 -0.0371 -0.2164 -0.2357
16671W        W32932   7.227  10.414   3.471  0.3166  0.1081 -0.1351
16672W        W32933   1.769  10.207   0.365  0.1245  0.1189  0.2592
16673W        W32934  18.563  15.810  12.795 -0.1015 -0.0459  0.0978
16674W        W32935   1.933   3.074   4.447  0.2722  0.1745 -0.0947
16675W        W32936   6.675  11.453   8.999 -0.1213  0.0047 -0.1341
16676W        W32937  10.245  11.452  11.020  0.1801  0.2294  0.0247
16677W        W32938  16.740  13.392   2.945  0.0790 -0.0558 -0.2698
16678W        W32939  11.808   3.948  14.598  0.0326 -0.2618 -0.0281
16679W        W32940  15.956   4.870   2.220 -0.1395  0.0498  0.0619
16680W        W32941   5.661  14.962   2.566  0.2203 -0.0177  0.3933
16681W        W32942   3.930  12.970   0.926 -0.1389  0.1043  0.2255
16682W        W32943  16.918   6.573   3.685 -0.3242  0.1394 -0.5649
16683W        W32944   6.720   3.052  11.078 -0.1185  0.2612  0.3351
16684W        W32945   2.451   1.666   4.406  0.1866 -0.3473  0.1002
16685W        W32946   3.435  16.484  11.489  0.1483 -0.0221 -0.1138
16686W        W32947  12.414  15.975   1.402 -0.0188  0.0661  0.0201
16687W        W32948   0.535   9.248  14.252  0.2117 -0.4016  0.1973
16688W        W32949   7.024  15.929   5.331 -0.1647  0.2007  0.2249
16689W        W32950  17.821  19.465   0.529  0.0362  0.0047  0.0258
16690W        W32951  18.318   6.374  14.374  0.2473  0.0141  0.1755
16691W        W32952  18.385   1.118  11.848  0.1000  0.1876  0.4056
16692W        W32953   2.024  11.703   3.715 -0.0057  0.0308  0.1523
16693W        W32954   5.268  19.060   3.591  0.0482  0.0512 -0.1048
16694W        W32955   8.801  13.578   1.797 -0.0480 -0.1958 -0.2766
16695W        W32956  11.138  18.802   1.328 -0.1488 -0.0841 -0.3331
16696W        W32957  15.123  13.271  11.242  0.3029  0.1102 -0.0597
16697W        W32958  14.847   8.132   2.371 -0.1614  0.0385  0.0424
16698W        W32959  12.854   3.985  10.205  0.2998  0.2440 -0.0391
16699W        W32960   4.427  11.219  11.415 -0.1989 -0.0012  0.0726
16700W        W32961  10.558   1.127   0.196  0.0692 -0.0200 -0.0521
16701W        W32962   3.549   0.643   3.006 -0.1695  0.1145  0.1143
16702W        W32963  16.037  12.871   3.637  0.4600  0.0294 -0.1134
16703W        W32964   0.163   0.524  10.482 -0.2984  0.1509  0.0528
16704W        W32965   8.857  13.228  13.341 -0.1028 -0.0340 -0.3516
16705W        W32966   5.250  19.242   0.292 -0.1811  0.4409 -0.1180
16706W        W32967  12.251   5.069  10.742  0.0541 -0.1304  0.4219
16707W        W32968   0.801   3.414   1.008 -0.0367 -0.0042  0.0410
16708W        W32969  16.594   2.644  14.272  0.1199 -0.2057  0.0341
16709W        W32970   3.915   9.047  10.949  0.2197  0.0788  0.2359
16710W        W32971  10.417  16.022   0.943  0.2727  0.2675 -0.0906
16711W        W32972   3.037   3.130  14.344 -0.1071 -0.1022 -0.1544
16712W        W32973   8.857   0.861   2.890 -0.3747 -0.0707  0.1527
16713W        W32974  13.183   7.233  14.204  0.2417  0.2250  0.0831
16714W        W32975   5.399   2.830  13.639 -0.1271  0.1687 -0.4142
16715W        W32976   3.561  18.319  10.893 -0.1514 -0.3845 -0.0697
16716W        W32977  17.578   1.175   3.508  0.1694 -0.1995 -0.1994
16717W        W32978   8.630   7.143   0.516  0.1117 -0.0325 -0.4193
16718W        W32979   8.759   3.551  12.695  0.1843  0.1432  0.4893
16719W        W32980  11.420  14.935   0.825  0.4126  0.2929 -0.1446
16720W        W32981  19.464  10.287  10.860  0.2618  0.2094  0.0447
16721W        W32982   3.908   8.326  13.538 -0.0272  0.1053  0.5708
16722W        W32983   9.842   5.329   3.021 -0.0055 -0.2760 -0.0113
16723W        W32984  18.848   9.520   3.286  0.1368  0.2416 -0.5027
16724W        W32985   5.325  16.687  14.674  0.0252  0.1621  0.0154
16725W        W32986   5.030  11.937  13.751  0.1297  0.0726  0.1339
16726W        W32987   8.809   1.746   1.196 -0.2367 -0.2528  0.0128
16727W        W32988   0.928  12.625   5.428  0.3734  0.2402 -0.0052
16728W        W32989   8.037  15.110   4.652 -0.0869  0.0847  0.0620
16729W        W32990   3.121   0.667  11.915  0.0834  0.3211  0.3495
16730W        W32991  19.025  12.002  10.483 -0.3678  0.0696 -0.3086
16731W        W32992  15.992  15.757  13.358 -0.2720  0.2384  0.1923
16732W        W32993  15.457  18.486   4.597 -0.1100  0.1212 -0.0366
16733W        W32994   5.095  16.383   2.555 -0.1195 -0.0762 -0.2348
16734W        W32995  16.800  15.405   3.269  0.1085 -0.0804  0.2509
16735W        W32996  16.671   6.163   3.826 -0.1812  0.0045  0.3808
16736W        W32997  14.766  14.437   3.563 -0.0674  0.2392  0.2106
16737W        W32998   4.555   8.208   5.388 -0.0150 -0.0393  0.1688
16738W        W32999   6.864  17.207  10.196 -0.0377  0.1383 -0.1881
16739W        W33000  12.679  13.229   0.707 -0.1878 -0.0253 -0.4580
16740W        W33001  16.461  16.819   4.554 -0.2339 -0.1689 -0.0671
16741W        W33002   7.455  16.138   2.008 -0.1537  0.0812 -0.0497
16742W        W33003  10.232  15.933   2.990  0.1148 -0.0068 -0.0676
16743W        W33004  12.822   5.216  14.668  0.1262 -0.0233  0.0797
16744W        W33005  12.521  18.069  11.625  0.2137  0.0117 -0.1173
16745W        W33006  18.573   7.517  13.818 -0.1701  0.1624  0.0420
16746W        W33007  12.252   9.142   1.313 -0.2720  0.3247  0.0886
16747W        W33008  14.530  10.575  11.442 -0.0579  0.2505 -0.2189
16748W        W33009  11.783   0.281   4.305 -0.0684  0.2640  0.3813
16749W        W33010   4.842   4.619   1.356  0.3636  0.3139 -0.1757
16750W        W33011  13.731  14.314  14.173  0.1014 -0.2253  0.1589
16751W        W33012  13.504  12.650   1.449 -0.1541 -0.1957  0.1062
16752W        W33013  13.201  19.460   3.502 -0.1122  0.1815  0.0797
16753W        W33014   4.499   6.598   2.937 -0.4225 -0.0697  0.1179
16754W        W33015   3.448  17.181   3.145  0.0327 -0.1738 -0.1414
16755W        W33016   8.656  18.391   4.237 -0.0439  0.3588 -0.0663
16756W        W33017  10.595   1.126  13.142  0.0682  0.1422  0.2132
16757W        W33018   2.384   9.244   1.516  0.0817 -0.3124  0.0513
16758W        W33019   6.394   7.006   0.766  0.0573 -0.0022 -0.2236
16759W        W33020  13.140   2.354  13.311  0.1347 -0.0736 -0.0276
16760W        W33021   5.768   3.481   4.333 -0.0655 -0.0269  0.0864
16761W        W33022  11.804  19.217  13.814 -0.1129 -0.1536  0.0010
16762W        W33023  13.831  14.201  12.738 -0.1290 -0.0787  0.1004
16763W        W33024   3.559  15.800   4.421 -0.1333  0.0468 -0.0028
16764W        W33025   6.292  16.264  14.158  0.1666 -0.0807 -0.0692
16765W        W33026  17.456   6.417   3.495  0.0417  0.4069 -0.1751
16766W        W33027  13.661   4.981  13.041 -0.2910  0.1289  0.5314
16767W        W33028   5.464  12.725   4.087 -0.3169 -0.0625 -0.2257
16768W        W33029   4.755   8.955  10.649 -0.5597  0.1792  0.1434
16769W        W33030   4.838  15.009  11.425 -0.1292  0.0338  0.2862
16770W        W33031  11.962   6.155   0.612 -0.3594  0.0089  0.0882
16771W        W33032   2.515   2.571   1.156  0.2327 -0.0038  0.3013
16772W        W33033   4.992   1.767  10.684  0.0555  0.3740  0.4660
16773W        W33034   4.479   5.209  11.302 -0.0179  0.0031  0.1945
16774W        W33035   7.233   2.416   0.535  0.3270  0.3138 -0.2603
16775W        W33036  12.332  14.424  13.418 -0.0806 -0.0826 -0.0565
16776W        W33037   5.596  18.571  13.989 -0.3661 -0.6704 -0.0073
16777W        W33038  10.995   7.458  14.132  0.1840  0.0784 -0.3851
16778W        W33039   0.016  18.166  13.862 -0.2540 -0.1772 -0.0474
16779W        W33040  19.344   1.214  11.608  0.1966  0.2664  0.0222
16780W        W33041   4.989   9.592   4.723 -0.0585 -0.0273  0.2599
16781W        W33042   7.132  13.782  12.675  0.3416  0.0413  0.1609
16782W        W33043   7.107  14.692   4.788 -0.1140  0.0549 -0.3811
16783W        W33044   3.599  16.340  11.940 -0.1089 -0.0828 -0.2696
16784W        W33045  15.657   6.632  10.683 -0.0885  0.0092  0.1999
16785W        W33046   0.888  18.093   1.386  0.1369 -0.1108 -0.0554
16786W        W33047  16.413   4.369  11.376 -0.1606  0.0565  0.1093
16787W        W33048   8.287   9.759   0.389  0.0615 -0.2082  0.0186
16788W        W33049   5.551  11.913   3.537  0.1632  0.3161  0.1640
16789W        W33050   4.747  11.873   3.131 -0.6107 -0.3546  0.2002
16790W        W33051   3.066  14.433  10.152  0.3139  0.1425 -0.2729
16791W        W33052   2.758   8.041  12.109 -0.0073  0.1268 -0.2958
16792W        W33053   7.896   3.493   1.132 -0.2009  0.3426  0.2426
16793W        W33054  16.192   1.742   5.216  0.0206 -0.1081 -0.1006
16794W        W33055  14.710  10.391  14.310  0.1193  0.2670  0.1692
16795W        W33056  10.866   6.861   4.697 -0.0599 -0.1914  0.2313
16796W        W33057   6.294   8.102   0.012 -0.0649  0.1810  0.1321
16797W        W33058   5.346  15.532  10.829 -0.2932 -0.2844 -0.3192
16798W        W33059  13.897   1.161   5.488 -0.2280  0.1607  0.0831
16799W        W33060   0.642  10.666   2.007 -0.0927  0.2746 -0.2376
16800W        W33061   5.374  11.800   4.421  0.2638  0.0914  0.1947
16801W        W33062   4.567   4.284   1.581  0.0050  0.2726 -0.1921
16802W        W33063  11.943  14.642   3.798 -0.0667  0.2524 -0.0842
16803W        W33064  18.175   4.288  10.087  0.0339 -0.1480  0.0637
16804W        W33065  18.268  11.664   0.787 -0.0906  0.0839  0.1270
16805W        W33066   8.866   2.679   1.436 -0.1872 -0.1341 -0.4014
16806W        W33067   2.536  18.389   0.432  0.3454  0.1458 -0.2041
16807W        W33068  14.210   1.077  10.066 -0.3320 -0.1933  0.2146
16808W        W33069   5.839  13.590  14.607 -0.1101  0.0805 -0.2412
16809W        W33070  12.861   5.025  10.721 -0.0479 -0.0049  0.0073
16810W        W33071  16.033   5.487  13.568  0.0566  0.0271  0.0706
16811W        W33072  12.987   3.294  12.501  0.1297  0.1373  0.0431
16812W        W33073  19.394   3.374   2.280 -0.0269 -0.1024  0.3943
16813W        W33074   8.361   1.909   2.516  0.0277  0.4975  0.1158
16814W        W33075  13.887  18.095   1.171  0.1030  0.0662 -0.1026
16815W        W33076   3.424  16.176   1.984  0.2774  0.1439  0.0132
16816W        W33077  10.805  17.229  12.279  0.3594  0.1616 -0.0554
16817W        W33078   8.540   8.629   3.413 -0.4192 -0.2021  0.1653
16818W        W33079   0.658  16.421   5.347 -0.0969  0.1723  0.0539
16819W        W33080   8.572   6.786  13.811 -0.4659  0.1213  0.3841
16820W        W33081   8.569  11.213   3.602  0.0506  0.1324 -0.2399
16821W        W33082   6.866  17.308  14.143 -0.2350  0.1092 -0.1120
16822W        W33083   0.636  14.656  13.790  0.1735 -0.2597 -0.3854
16823W        W33084  18.514  14.567  13.787 -0.0559 -0.4956  0.1669
16824W        W33085   4.651  12.410   4.492 -0.1371  0.0595 -0.0108
16825W        W33086   9.060  19.257  10.453  0.2105  0.0983 -0.3119
16826W        W33087   7.768   3.701   0.674  0.0100 -0.1075  0.2811
16827W        W33088  16.509  13.496  11.961 -0.0759  0.1201 -0.1188
16828W        W33089  17.336  19.332  11.548  0.2014  0.2285  0.1130
16829W        W33090   3.992  17.160   2.103  0.3146  0.3988  0.1225
16830W        W33091  14.347   4.574  10.500 -0.0196 -0.1365  0.0411
16831W        W33092  16.094   8.185   0.794 -0.0088 -0.3831  0.2777
16832W        W33093  15.095   8.584   2.079  0.3951 -0.1482  0.0700
16833W        W33094  10.160   4.855  10.061 -0.0619  0.3455 -0.0732
16834W        W33095  15.394   2.131  13.498  0.1764  0.0596  0.1960
16835W        W33096  16.698  15.457   2.754  0.2222 -0.0638  0.1031
16836W        W33097   4.745  19.048   0.452 -0.0837  0.2902  0.0745
16837W        W33098  10.646   8.054  12.923 -0.1980 -0.0397  0.2115
16838W        W33099   4.895  15.749  13.602  0.1783  0.0560  0.0474
16839W        W33100   2.391   5.320  13.044 -0.0486 -0.1884  0.1103
16840W        W33101   7.676  18.196  12.446 -0.3990  0.1226 -0.3073
16841W        W33102  18.914   1.073   5.176 -0.3442  0.1693  0.5743
16842W        W33103   5.597  12.272   3.207  0.0527 -0.2114 -0.3993
16843W        W33104  12.567  15.657  11.730  0.0050 -0.2217  0.1922
16844W        W33105  18.409   7.907   1.595 -0.3934 -0.1678 -0.0889
16845W        W33106   2.284   3.320   0.585 -0.1321 -0.0180 -0.0670
16846W        W33107  17.875   5.641  11.799 -0.4150  0.1655  0.0065
16847W        W33108   6.918  18.304   0.646 -0.1179  0.3870  0.5138
16848W        W33109   0.675   8.441  12.102 -0.1728 -0.0518  0.0879
16849W        W33110   8.781  17.273  14.498 -0.3044 -0.3265 -0.1947
16850W        W33111  17.363   9.898  12.320  0.0195  0.2350 -0.3592
16851W        W33112   9.179   1.066  12.994 -0.0985 -0.1225  0.0976
16852W        W33113  16.270   5.598   0.071 -0.1356 -0.0694 -0.2618
16853W        W33114  12.429  15.362   3.464  0.2631  0.0554  0.2311
16854W        W33115  16.890  13.258   5.188  0.2583  0.0298 -0.2702
16855W        W33116   5.937   4.758  13.689  0.0255 -0.2060  0.0960
16856W        W33117   0.341   1.726   2.556  0.4289 -0.2292  0.1470
16857W        W33118  15.921   1.081  12.866  0.1416 -0.1723 -0.0409
16858W        W33119   8.647   4.913   1.411 -0.2439 -0.2525 -0.2431
16859W        W33120   5.118  13.762   0.114 -0.3453  0.2368 -0.3130
16860W        W33121   7.580  11.816   2.622 -0.1073 -0.1926  0.0342
16861W        W33122   7.682  18.706  12.758 -0.2986 -0.4732 -0.4791
16862W        W33123  18.356   9.493   0.839 -0.0766  0.3222  0.0003
16863W        W33124  11.126   4.961  12.316  0.1801  0.0106 -0.6390
16864W        W33125  14.321  15.129  11.878  0.0439 -0.3732  0.1084
16865W        W33126   2.824  14.667   4.452  0.0045 -0.0137  0.1442
16866W        W33127  14.598   1.637  11.456 -0.3852  0.1081 -0.0459
16867W        W33128  18.822  19.421  10.817 -0.2482 -0.0223 -0.1939
16868W        W33129  15.780  14.293   3.544 -0.1226  0.0154 -0.1238
16869W        W33130  16.883   2.280   0.565  0.0663 -0.1752  0.1283
16870W        W33131   4.752  18.857  11.203 -0.0012  0.1539 -0.0243
16871W        W33132   2.702   5.418  11.180 -0.0133  0.0398  0.1559
16872W        W33133   3.547   2.735  10.405 -0.0973  0.0723  0.1819
16873W        W33134  10.486   3.175  14.496 -0.0621 -0.1571 -0.0441
16874W        W33135  14.203   2.034  13.164 -0.0734 -0.0882  0.1146
16875W        W33136  14.723   1.500   0.968 -0.0494  0.5370 -0.0769
16876W        W33137   1.934   8.139  13.266 -0.2115 -0.1563  0.0613
16877W        W33138   2.867   5.498  13.042 -0.3061 -0.1798  0.0880
16878W        W33139   9.683   8.707  12.338  0.0099  0.0766  0.1791
16879W        W33140   8.245  10.727   1.213 -0.0178 -0.0002  0.1002
16880W        W33141  12.849  12.444   0.221  0.0021 -0.0098 -0.0150
16881W        W33142  14.036   8.868   4.352  0.3889 -0.1709 -0.0676
16882W        W33143  17.744   9.869  11.929  0.0095  0.2136 -0.0275
16883W        W33144  12.717   8.323   4.514 -0.0807 -0.0267  0.0026
16884W        W33145   8.221   3.109   9.246 -0.1430  0.4540 -0.2844
16885W        W33146  13.613   8.421  13.005  0.3037  0.0070 -0.1190
16886W        W33147  17.327  15.308   1.705  0.2279  0.0142 -0.0772
16887W        W33148  12.333  10.149   2.533 -0.0725 -0.0540  0.2338
16888W        W33149  18.157  16.980  11.215 -0.2311  0.0774  0.3036
16889W        W33150  14.661  16.427   0.531  0.1573  0.1760 -0.0405
16890W        W33151   6.853  11.102   3.933 -0.0983 -0.3844 -0.0705
16891W        W33152   8.013  14.519   0.083  0.0122  0.0566 -0.1630
16892W        W33153   8.947  14.369  12.296  0.2407  0.0497  0.0700
16893W        W33154   8.713   3.804   9.639 -0.2034 -0.0389  0.3818
16894W        W33155  15.267  19.310  13.240 -0.2570 -0.0491 -0.0647
16895W        W33156  17.336   4.977   2.341  0.0349  0.3818  0.1467
16896W        W33157   2.964   5.408  10.766 -0.2730 -0.2636  0.3405
16897W        W33158   6.400  13.612  13.793 -0.0519 -0.2342  0.2600
16898W        W33159   3.605   1.404  10.797 -0.2384 -0.1328 -0.1357
16899W        W33160  12.553  11.702   3.192  0.0627  0.0193  0.4907
16900W        W33161  18.499  11.681  11.462  0.2291  0.1007  0.1679
16901W        W33162   4.377  18.706   2.116  0.1849 -0.0519 -0.0524
16902W        W33163   6.854  12.600   3.402 -0.5087  0.0577  0.2135
16903W        W33164  18.684  11.087   4.292 -0.1209 -0.0390 -0.1807
16904W        W33165  14.492   4.157  11.916 -0.1049 -0.2116 -0.2299
16905W        W33166  13.954   8.395   4.512 -0.1346  0.0502 -0.3808
16906W        W33167  13.570   4.125  14.020 -0.0613  0.0517 -0.0878
16907W        W33168  16.873  15.928  13.440 -0.1036 -0.1218 -0.2691
16908W        W33169  19.402   3.199   1.828  0.0033 -0.1222  0.1505
16909W        W33170   5.099  10.949   1.266 -0.2657 -0.0324  0.0011
16910W        W33171   7.739   1.886   2.511 -0.3070  0.0849 -0.0186
16911W        W33172  17.349   8.921  14.182 -0.1412  0.1637  0.2246
16912W        W33173  15.390   2.408   3.401 -0.0789 -0.0842 -0.1676
16913W        W33174  17.874  10.878   1.184 -0.0184  0.1604 -0.0962
16914W        W33175   0.671   6.621  10.788  0.4055  0.3542  0.0331
16915W        W33176  13.490  11.948  13.730  0.1689  0.0220 -0.1826
16916W        W33177  11.862  10.353   1.534 -0.1304 -0.1060  0.0149
16917W        W33178  18.029  10.971  10.470 -0.1494  0.2446  0.1100
16918W        W33179  18.489  14.822   0.228 -0.1776  0.0101  0.1865
16919W        W33180  13.448  10.255  12.040  0.0321 -0.0684 -0.0994
16920W        W33181   2.136  12.043   5.037  0.3815  0.2325 -0.1330
16921W        W33182   1.012   3.073  10.967 -0.2435 -0.1727 -0.0385
16922W        W33183   9.059  14.356   1.140 -0.0288  0.1636  0.1788
16923W        W33184   2.037   5.551   0.605  0.2539 -0.2353 -0.0666
16924W        W33185   5.630  10.164  14.574 -0.0847  0.1928 -0.2958
16925W        W33186   1.275   0.810   3.858 -0.1376  0.0249 -0.1051
16926W        W33187  17.423  12.764  12.601 -0.1463 -0.1186 -0.1308
16927W        W33188   9.145   5.972  13.623  0.1729  0.0576  0.1539
16928W        W33189   7.709   6.467  14.709  0.0716 -0.2120 -0.0095
16929W        W33190   8.619   5.908  12.681 -0.1486  0.0690  0.2686
16930W        W33191   3.994   1.439  11.129 -0.1315  0.3238  0.1292
16931W        W33192   0.987   5.906   2.749 -0.0891  0.2736  0.2090
16932W        W33193   0.828   8.087  13.219 -0.0567  0.2964  0.1804
16933W        W33194   9.129   1.915   3.821  0.0609  0.3566 -0.2800
16934W        W33195   5.279   5.870  14.616 -0.0356  0.0649 -0.1528
16935W        W33196   6.283   6.817   4.373  0.1370  0.0431  0.0547
16936W        W33197   1.390  15.566   4.011  0.3389  0.1715  0.5516
16937W        W33198   4.313  15.806   3.293 -0.0374  0.2831 -0.1960
16938W        W33199   6.350  18.865  14.542  0.1332 -0.2320  0.0583
16939W        W33200  11.681  14.140   2.805  0.0043 -0.2625 -0.2338
16940W        W33201  10.525  10.904  12.203 -0.2517  0.3227  0.2436
16941W        W33202   6.159  12.223   1.254 -0.1762 -0.0620  0.0322
16942W        W33203   8.529   2.767   3.063  0.1085 -0.1503  0.0503
16943W        W33204  10.473   8.574   3.517  0.0576  0.0377 -0.2245
16944W        W33205   8.030   4.920  11.911 -0.0783  0.1078 -0.3573
16945W        W33206   4.085  18.837   4.211 -0.1303  0.0319  0.1875
16946W        W33207  16.631  13.102  10.300 -0.1296 -0.0943  0.3203
16947W        W33208  16.419   3.776   0.802 -0.0215 -0.0845 -0.0006
16948W        W33209  13.978  14.817   0.275 -0.2558 -0.1719  0.1623
16949W        W33210  10.198  16.300  14.505 -0.0820  0.0876 -0.1365
16950W        W33211   6.281   5.065  13.926  0.3949 -0.1507 -0.0013
16951W        W33212  17.181   9.324   4.851 -0.1393 -0.0727  0.0332
16952W        W33213   0.914   8.378  14.758  0.0213 -0.0585 -0.0435
16953W        W33214  13.771  18.475  12.170 -0.3136  0.1635  0.0809
16954W        W33215  10.011  10.183   3.048 -0.2200  0.0892 -0.1281
16955W        W33216  15.338   8.356   4.353  0.0334 -0.0434 -0.0118
16956W        W33217   1.171   4.393  12.714 -0.1319  0.0210  0.1232
16957W        W33218   3.410  12.077  13.281  0.0129  0.0536  0.0255
16958W        W33219   2.660  10.446   3.183  0.2818  0.1448  0.4246
16959W        W33220   7.188  17.904   0.480  0.0160 -0.0030 -0.2011
16960W        W33221   1.401  16.624   0.689 -0.2102 -0.1505 -0.1549
16961W        W33222   0.677  18.927   0.721  0.0285  0.1003 -0.0874
16962W        W33223  15.684  12.476   1.018  0.0041  0.0896 -0.0268
16963W        W33224  12.684  10.773   2.636  0.0616  0.1314  0.1054
16964W        W33225   2.021  15.310  14.632 -0.0983 -0.0343  0.0036
16965W        W33226  10.840   9.892  11.719  0.0074 -0.0687 -0.1061
16966W        W33227   6.694  13.486   9.899  0.0539  0.0113 -0.0974
16967W        W33228  19.405  12.707  11.367  0.2643 -0.1200 -0.2014
16968W        W33229   2.175  11.665  13.864  0.2288 -0.1601 -0.0320
16969W        W33230   5.768   5.431   1.523  0.1420  0.2100 -0.4009
16970W        W33231  15.439   2.097   2.988  0.4662 -0.0680  0.5281
16971W        W33232  17.529  16.006   1.516  0.1716  0.0874 -0.2309
16972W        W33233   8.137   0.835  12.170 -0.1958 -0.0859 -0.0510
16973W        W33234   8.794  13.553  14.417 -0.4274  0.2107  0.2047
16974W        W33235   9.575   8.784   3.047 -0.0153  0.0483 -0.2482
16975W        W33236   4.002   8.706  10.557  0.3618 -0.2953  0.3179
16976W        W33237  14.465   9.119   3.720 -0.1759 -0.0030 -0.1389
16977W        W33238   6.633  14.362   3.366 -0.0480 -0.1349  0.1983
16978W        W33239   0.810  19.196   3.119  0.0727  0.0776 -0.1731
16979W        W33240   8.443   0.091   1.140 -0.0200  0.1531 -0.2875
16980W        W33241   0.523   5.490   1.152 -0.1485  0.1400 -0.1037
16981W        W33242  15.270  16.204  11.941  0.0312 -0.1522 -0.0022
16982W        W33243  19.350  18.701   4.413 -0.2796  0.0461 -0.0092
16983W        W33244  19.227  17.594   3.620 -0.2207 -0.0294  0.5532
16984W        W33245   5.393   4.109  10.488  0.0088 -0.3299  0.3386
16985W        W33246  11.070  13.509  13.961  0.2606 -0.1484  0.0858
16986W        W33247  15.810  12.930  13.359  0.0301 -0.0357 -0.1759
16987W        W33248   2.133  15.821   4.823 -0.2793 -0.0870  0.1322
16988W        W33249  18.179  12.190   9.661 -0.0470  0.0552 -0.1446
16989W        W33250   0.279  10.478   2.985  0.3604  0.1083 -0.0280
16990W        W33251  19.460  14.078  12.746  0.0366  0.3442 -0.0799
16991W        W33252  10.492  12.226   3.579 -0.1329 -0.0770  0.1303
16992W        W33253  18.853   0.186   3.551  0.0803  0.1382  0.2915
16993W        W33254   2.145   4.789   1.375  0.2727  0.1566 -0.0593
16994W        W33255   2.726   6.550   3.024  0.0817  0.0344 -0.2604
16995W        W33256   4.836   8.204  13.555 -0.1398  0.0427 -0.1686
16996W        W33257   5.698   2.755  10.174  0.1401 -0.3593 -0.2117
16997W        W33258  17.522  18.451  13.316  0.3184  0.1035 -0.2405
16998W        W33259  10.693   5.406   1.636 -0.4884 -0.0084 -0.0777
16999W        W33260   4.775  13.858  11.432 -0.0947  0.0153  0.0106
17000W        W33261   6.765  14.836   3.775  0.2073 -0.0186  0.0579
17001W        W33262  12.830   7.716  12.140  0.1010  0.3416  0.2759
17002W        W33263   8.073   4.403   1.168 -0.2966 -0.0200 -0.0603
17003W        W33264  10.953  17.931  12.910 -0.1137 -0.0662  0.1275
17004W        W33265  16.428   6.343  12.963 -0.0623  0.1610  0.3077
17005W        W33266   9.835   4.171  14.118 -0.1552  0.0678 -0.0492
17006W        W33267  10.319   7.922   4.101  0.3234  0.2275  0.1755
17007W        W33268   3.532  11.403  14.002  0.1197  0.2390 -0.0310
17008W        W33269  11.796  15.896   4.512  0.0642 -0.1986 -0.1349
17009W        W33270   9.926   3.734   3.853  0.3389  0.0185 -0.1248
17010W        W33271  16.831  11.100   2.472  0.2826  0.0442 -0.1493
17011W        W33272  17.775   8.696   1.498  0.1783  0.0587 -0.0605
17012W        W33273  14.015  10.696   3.323  0.3845  0.0084 -0.1008
17013W        W33274   0.423  11.758   3.869 -0.3622 -0.1573  0.1635
17014W        W33275   6.990  17.035  13.649 -0.0079 -0.0656  0.3377
17015W        W33276  16.599  16.370   1.198  0.0216  0.0521  0.2126
17016W        W33277  10.253   9.418  10.361 -0.0588  0.0890  0.2492
17017W        W33278   6.112  18.127  13.342  0.0994  0.1014  0.1771
17018W        W33279   7.323   9.236  10.099  0.2689  0.1088  0.2137
17019W        W33280   6.712  13.705  14.667  0.0450 -0.3133 -0.1740
17020W        W33281  13.922  11.589   1.344  0.0279 -0.1240 -0.0558
17021W        W33282  17.593   5.879  12.708  0.3180  0.1108  0.2178
17022W        W33283  13.923  18.492   0.004 -0.0093  0.2609  0.5616
17023W        W33284   3.321  12.094  10.203  0.1721 -0.0536 -0.1274
17024W        W33285   8.979   5.543  12.411  0.0619  0.0294 -0.0294
17025W        W33286   0.026   5.363   5.649 -0.0601 -0.2285 -0.0718
17026W        W33287  11.355  10.218   5.142 -0.0436  0.4863  0.2282
17027W        W33288  11.265  17.983   3.577  0.1545 -0.0366  0.5624
17028W        W33289   1.933  12.525   0.309 -0.0316 -0.0728 -0.1016
17029W        W33290   3.542   0.956  12.821  0.0018  0.0824 -0.4626
17030W        W33291   2.626   6.768  11.681  0.3505 -0.1472  0.0543
17031W        W33292  18.300   0.586  11.922 -0.0127  0.0919  0.2223
17032W        W33293   6.104  10.055   5.564  0.3993  0.1359 -0.0297
17033W        W33294  18.786   1.188   4.495 -0.1096  0.1142 -0.2299
17034W        W33295  17.289   2.720   4.210  0.1687  0.0154  0.1885
17035W        W33296  15.172  10.694   2.087 -0.0223 -0.2773  0.3630
17036W        W33297   4.274   5.974   1.658 -0.0889  0.2600 -0.1758
17037W        W33298   3.741   1.332  13.459 -0.1204 -0.0453  0.0330
17038W        W33299   7.241   4.444  13.478 -0.1017  0.0225 -0.1980
17039W        W33300  11.574   6.941  13.252 -0.0048 -0.1575  0.0748
17040W        W33301  13.193   3.387   1.980  0.1416 -0.3246 -0.0840
17041W        W33302   0.846  19.125   1.815  0.2651  0.2168  0.1774
17042W        W33303  16.856   8.722   2.694 -0.0131 -0.1299  0.0985
17043W        W33304  16.749  16.269   3.615 -0.1295 -0.0042  0.1009
17044W        W33305  10.738   1.012  11.040 -0.4052  0.0494 -0.2747
17045W        W33306  13.921   9.116   0.471  0.0363 -0.0383  0.1377
17046W        W33307   7.604  15.517  10.080 -0.1612  0.1901  0.2635
17047W        W33308  12.351  11.525  12.802 -0.1271  0.1405  0.2219
17048W        W33309  17.870   3.218   0.480  0.0594  0.0326  0.0745
17049W        W33310  16.590   6.580  13.364 -0.2295  0.4075 -0.1690
17050W        W33311   9.919  12.304  12.212  0.1604 -0.1318  0.0243
17051W        W33312  11.452  14.555   3.245  0.2243  0.0229 -0.1846
17052W        W33313   1.531   0.898  11.226 -0.0208 -0.1185 -0.2144
17053W        W33314  14.914   5.136  11.625 -0.1377 -0.2302 -0.2441
17054W        W33315   7.173   9.727   1.828  0.1343 -0.1615 -0.4652
17055W        W33316  15.827  18.537   2.207 -0.0489 -0.0877  0.0204
17056W        W33317   3.204   0.513  13.465 -0.2750  0.0310  0.1033
17057W        W33318   1.156  18.038  12.048 -0.0591  0.0631 -0.0893
17058W        W33319  14.601  15.406   5.152  0.2288 -0.0384  0.0037
17059W        W33320  13.858  19.229   2.190 -0.1211  0.1991  0.0958
17060W        W33321  16.517  16.524  14.162  0.0056 -0.0718 -0.4682
17061W        W33322  13.509   1.561  12.541 -0.1183  0.0145  0.0650
17062W        W33323   2.799  18.424   5.267  0.1441 -0.0594  0.0959
17063W        W33324   9.784   5.297  12.650 -0.0893  0.0438 -0.0270
17064W        W33325  17.380  13.787   2.216 -0.0473  0.2133  0.1729
17065W        W33326  13.881   3.735   0.690 -0.1551  0.3137 -0.0460
17066W        W33327  12.111   9.721  10.721  0.1023  0.0584 -0.0677
17067W        W33328   4.510   7.107   2.311 -0.2022 -0.2735  0.1766
17068W        W33329   6.405   1.447  13.417 -0.1250 -0.1821 -0.1150
17069W        W33330  12.557  12.822  11.486  0.1516 -0.0070 -0.4309
17070W        W33331  17.057   4.041  11.048  0.0116  0.5041 -0.1729
17071W        W33332   7.461  17.413   0.559 -0.1673 -0.1428  0.1388
17072W        W33333  19.123   2.314   2.383 -0.0146  0.1495 -0.1487
17073W        W33334  15.284   4.000  14.479 -0.1482  0.0558  0.2485
17074W        W33335   0.807   0.874  10.127  0.0743 -0.0490  0.0421
17075W        W33336   5.190  15.697   2.701 -0.1748 -0.1080 -0.3496
17076W        W33337   5.598  15.134  13.815  0.1077 -0.3971 -0.2204
17077W        W33338  10.372  11.425   3.322  0.3010 -0.0552  0.3399
17078W        W33339   5.998   4.277  11.143  0.0947 -0.0249  0.0019
17079W        W33340   5.379   5.935  10.952  0.0038 -0.0103  0.0116
17080W        W33341  14.997   5.630  11.866  0.1512 -0.2271  0.1022
17081W        W33342   9.451   4.352   5.089  0.2112  0.1378  0.0942
17082W        W33343   2.052   3.040  11.831 -0.0340  0.3228  0.1575
17083W        W33344  16.209  18.927   2.039  0.1130 -0.2263  0.0198
17084W        W33345   8.117  11.217  11.697 -0.2452  0.4044 -0.1165
17085W        W33346   7.740   1.977   3.913  0.2136  0.1307 -0.2307
17086W        W33347   7.109  19.457  13.682 -0.1832 -0.1335 -0.0283
17087W        W33348   8.923  14.491  14.071 -0.1651 -0.2727  0.2141
17088W        W33349   2.307  13.659  14.497  0.0117 -0.2151 -0.2471
17089W        W33350   8.216  11.259   2.264  0.0666  0.0036  0.0933
17090W        W33351   8.938   9.497  13.144  0.1041 -0.3666  0.1130
17091W        W33352   4.960   8.279   4.141 -0.1155 -0.0348 -0.1666
17092W        W33353  15.758  15.209  12.866 -0.4571  0.1334 -0.4492
17093W        W33354   0.347   3.715  12.883  0.2811 -0.1411  0.2772
17094W        W33355  10.518   3.047  12.938 -0.0502 -0.0640  0.0812
17095W        W33356   6.912  11.504   4.308 -0.0464 -0.1095  0.1154
17096W        W33357  12.181  15.686  12.041 -0.0959  0.0296 -0.0253
17097W        W33358  17.949   1.081   3.835 -0.0565 -0.0689  0.1030
17098W        W33359  18.152  17.786   5.128 -0.1913  0.3316 -0.1662
17099W        W33360  15.446  10.358  11.042  0.0554 -0.1646 -0.0191
17100W        W33361  14.003   8.366  14.383 -0.0414 -0.1562 -0.1339
17101W        W33362  17.737  11.801   4.777  0.1144  0.0354  0.0986
17102W        W33363  16.728  15.841   2.429  0.0973 -0.3385 -0.1119
17103W        W33364  17.669   0.840   0.702  0.1099 -0.0384  0.0234
17104W        W33365  16.018  14.132   0.522  0.3014  0.0069 -0.1448
17105W        W33366   5.416  12.721  14.683 -0.2167  0.1974  0.2247
17106W        W33367   0.015   1.840  12.503 -0.1978  0.4062 -0.1676
17107W        W33368  15.564  12.240   1.470  0.1099 -0.3012  0.1932
17108W        W33369   3.631  15.377   4.600 -0.0593 -0.3313  0.3273
17109W        W33370  15.787  10.420  12.231  0.2322  0.2066  0.0029
17110W        W33371   0.200  15.036   1.645 -0.2183 -0.3763 -0.1141
17111W        W33372   2.156   6.627  11.471  0.1368  0.3636  0.0262
17112W        W33373   9.679  19.042   2.948 -0.3139 -0.0339 -0.3502
17113W        W33374   2.659   2.618  13.130  0.2502 -0.0628 -0.2344
17114W        W33375   5.179   9.968   3.258  0.0759  0.1009  0.1336
17115W        W33376   2.118   4.283   4.118 -0.2009  0.1581 -0.3222
17116W        W33377   5.077   2.390   0.532 -0.2766 -0.1158 -0.0710
17117W        W33378   7.824  13.771   0.862  0.2301  0.1775 -0.3110
17118W        W33379  12.239   0.363   4.139 -0.2385  0.1533 -0.1606
17119W        W33380  10.451  14.841   5.004  0.0264 -0.0956 -0.1522
17120W        W33381   3.007   1.214  10.217  0.2618  0.1368  0.0520
17121W        W33382  13.847  15.572  13.241 -0.3465  0.3361  0.2477
17122W        W33383   2.720   6.922  10.279  0.0469  0.0702 -0.2141
17123W        W33384   3.936  17.433   2.547 -0.2743 -0.1573  0.3192
17124W        W33385   7.753  18.490   1.323 -0.4155 -0.3730  0.1784
17125W        W33386  18.627  12.465   3.539  0.3270  0.1154  0.2236
17126W        W33387  16.305  10.515  12.285 -0.3435 -0.2421  0.1690
17127W        W33388  13.549  13.447   0.702  0.2494 -0.0805 -0.0584
17128W        W33389   9.102  10.890   4.823 -0.2623 -0.0814 -0.0405
17129W        W33390   2.921   2.002   1.023 -0.2691 -0.0472  0.0487
17130W        W33391   4.299  15.265   3.599 -0.0991 -0.0532  0.1126
17131W        W33392   4.796  10.572  12.310  0.0833 -0.1207  0.0649
17132W        W33393  12.415   7.336   1.494  0.0524  0.1711 -0.1085
17133W        W33394   1.522   0.056   2.880 -0.1754 -0.1858 -0.0594
17134W        W33395  12.038   4.134  11.770 -0.1062 -0.1041 -0.0739
17135W        W33396  15.850   0.299  11.021  0.1310 -0.2719  0.0577
17136W        W33397  11.992   3.673  10.572  0.3003  0.0879 -0.2030
17137W        W33398  10.960  14.465  11.888  0.2804  0.2465  0.0214
17138W        W33399   8.970   9.324  10.165 -0.0450 -0.0734  0.0139
17139W        W33400  10.781   8.283  14.573  0.1592 -0.1270 -0.4838
17140W        W33401  17.482  13.374   2.467  0.0554  0.0023  0.1984
17141W        W33402   5.432   7.808   9.645  0.5602 -0.0054  0.0556
17142W        W33403   9.638  10.009  10.738  0.3953  0.1905  0.0382
17143W        W33404   0.144   9.544  14.210 -0.0553 -0.0688  0.3617
17144W        W33405   2.164  12.591   4.865  0.0316 -0.0664 -0.0781
17145W        W33406  15.056  15.860  14.470 -0.0085 -0.2122 -0.1264
17146W        W33407  11.217   3.723  11.161  0.3834  0.1328  0.1218
17147W        W33408   6.804   1.847   0.781  0.0667 -0.1614  0.0386
17148W        W33409  12.486   9.091   5.044 -0.3028  0.2591  0.1534
17149W        W33410  12.337  15.498   0.646  0.1528  0.3230 -0.2878
17150W        W33411  12.496  19.031  12.046 -0.3096 -0.1578 -0.0542
17151W        W33412  11.026   6.460  11.314  0.2256 -0.0053 -0.4018
17152W        W33413  12.606   5.059  10.298 -0.1089 -0.0892 -0.1637
17153W        W33414  10.941  11.708  10.716  0.0007  0.0372  0.3501
17154W        W33415   3.323   5.016  13.894 -0.0149  0.2077  0.0686
17155W        W33416  16.821  17.634   4.965 -0.0217 -0.1316 -0.0433
17156W        W33417   7.834   4.733  12.888  0.0021  0.0282  0.2281
17157W        W33418   6.261   0.282   2.140 -0.3227  0.2605  0.0364
17158W        W33419   0.566  15.168  12.107  0.4526  0.1034  0.3136
17159W        W33420   1.145   0.081  11.407  0.0613 -0.0648  0.0396
17160W        W33421   1.766   9.695   1.641 -0.1356  0.0338 -0.3631
17161W        W33422  15.299  10.686  12.504 -0.0313 -0.0593 -0.1461
17162W        W33423   2.783  18.724   0.701  0.1462  0.2053 -0.1720
17163W        W33424   0.342  19.399  13.287 -0.3048  0.2101 -0.3077
17164W        W33425  14.967   0.126   3.998 -0.0307  0.1131  0.1880
17165W        W33426  17.938  18.525  13.485 -0.2384 -0.2006  0.2548
17166W        W33427   1.773   1.021  12.824  0.0772  0.0798  0.4731
17167W        W33428   9.086  11.637  13.702 -0.0434 -0.0181  0.3978
17168W        W33429  11.960  10.158   0.478 -0.0725 -0.0972 -0.0248
17169W        W33430   0.694   5.940   1.354  0.4377 -0.1080 -0.0589
17170W        W33431   1.477   2.220  12.656 -0.0743 -0.0690 -0.0603
17171W        W33432  17.953   6.088   1.415 -0.0298 -0.1561 -0.3642
17172W        W33433   9.024  12.073  12.981 -0.0122 -0.2204 -0.0222
17173W        W33434   7.126  11.578   2.362 -0.2159 -0.1011 -0.3680
17174W        W33435   6.267  19.309   1.481  0.0783  0.1873 -0.1538
17175W        W33436   7.892  18.652  13.214  0.2127  0.1145  0.0290
17176W        W33437  14.052   8.957   3.264 -0.2178  0.1109 -0.0018
17177W        W33438   7.272  11.705   2.931 -0.0673 -0.1304  0.0069
17178W        W33439   0.321   9.375   1.090  0.1037  0.0723  0.1505
17179W        W33440   2.096  17.359  13.490 -0.0299 -0.1622 -0.1462
17180W        W33441   7.300   6.294  14.022  0.0132  0.0416  0.0652
17181W        W33442   2.811   9.746  14.805  0.2179  0.1919  0.2535
17182W        W33443   1.740   7.916   1.536 -0.3546  0.2587  0.0546
17183W        W33444   6.299  10.574   9.780  0.2298 -0.1435  0.0730
17184W        W33445  16.183  10.670  14.734  0.5020  0.1445 -0.1112
17185W        W33446   7.627  13.696  10.672 -0.2860 -0.0368  0.0612
17186W        W33447  17.610  15.917   5.040 -0.1538  0.0969  0.2067
17187W        W33448   1.455  11.370   1.736  0.1681 -0.0459 -0.0373
17188W        W33449   1.099  13.366   4.140 -0.0851  0.0422 -0.3264
17189W        W33450  13.842   6.261   3.861 -0.1742  0.1013 -0.2556
17190W        W33451  16.012   3.793   4.593 -0.2180 -0.0967 -0.1383
17191W        W33452  14.175   9.512   3.177  0.1680  0.1133  0.0713
17192W        W33453   0.063   7.142   3.764  0.1751  0.0673 -0.1471
17193W        W33454  17.874   5.951   4.514  0.1029  0.1391  0.0415
17194W        W33455  17.349   4.948   1.347 -0.1874 -0.3285  0.2640
17195W        W33456   6.798  13.725  13.046 -0.1349  0.2052 -0.0984
17196W        W33457  10.963  17.706  13.866 -0.2460 -0.3423  0.0839
17197W        W33458  10.623  14.383   4.895  0.2229 -0.0626  0.3199
17198W        W33459   7.603   2.072  11.310  0.0225  0.0707  0.2320
17199W        W33460   2.819   5.850  12.114 -0.3450  0.1645  0.1320
17200W        W33461   1.303   6.983  13.916 -0.1039  0.0039 -0.1143
17201W        W33462   3.613   9.693   4.737  0.1676  0.0987 -0.0786
17202W        W33463   2.144  18.175   0.944  0.1627 -0.0056  0.0951
17203W        W33464   5.708  12.191   4.487  0.2283 -0.2825  0.0743
17204W        W33465   3.422   3.666  13.323 -0.0320 -0.1504 -0.0692
17205W        W33466  11.068  17.359   5.395 -0.0508 -0.2346  0.1674
17206W        W33467  11.852   7.065   4.407  0.1398 -0.3305 -0.0226
17207W        W33468  11.419  16.873  13.598 -0.3239  0.0199 -0.0504
17208W        W33469   7.277  14.811   5.780  0.2976  0.3061  0.1083
17209W        W33470  16.139   8.304   2.210 -0.0489 -0.4303  0.1046
17210W        W33471   1.418   9.903   3.390  0.0393 -0.0033  0.3220
17211W        W33472  15.082  13.544  14.812 -0.0171  0.0422  0.1256
17212W        W33473  13.780   9.391   0.833  0.1529 -0.0336 -0.1850
17213W        W33474   0.183   4.447  14.798 -0.0897  0.3379  0.1022
17214W        W33475   6.162   4.740   4.196  0.0949 -0.1742 -0.1066
17215W        W33476   0.980  10.441   3.889 -0.2108 -0.0427 -0.0151
17216W        W33477   3.291  18.500   1.991  0.1784  0.3410 -0.2426
17217W        W33478   9.321  14.692   0.269 -0.0900 -0.1960 -0.0683
17218W        W33479  10.043  15.305  11.158  0.0121 -0.0430 -0.2697
17219W        W33480   3.543  11.371   2.039  0.4139 -0.1608 -0.2809
17220W        W33481   1.336   2.429   1.106  0.0482  0.1738 -0.3546
17221W        W33482  19.142   6.726  12.561  0.2066 -0.3982 -0.2940
17222W        W33483  13.627   5.197  13.940 -0.3757 -0.1245 -0.0917
17223W        W33484  12.295  14.709  12.886 -0.0072 -0.0514 -0.0842
17224W        W33485  12.901  10.813   3.074  0.0665  0.2705  0.1517
17225W        W33486  13.945   7.957   2.970  0.0137  0.2874 -0.2293
17226W        W33487  16.635  11.970   2.055  0.0068  0.1397  0.0233
17227W        W33488  18.131   6.367   3.364 -0.0643 -0.3506 -0.4032
17228W        W33489   6.196   2.800  13.167 -0.1050 -0.1975  0.0918
17229W        W33490   7.507   2.885  13.117 -0.1197 -0.2873 -0.4066
17230W        W33491  18.244  15.085  11.094  0.0774  0.2298 -0.0657
17231W        W33492   4.974   1.845   0.566  0.3684 -0.0457  0.0994
17232W        W33493   3.522  15.339   2.927 -0.1012 -0.0298 -0.1048
17233W        W33494  11.314   6.542   0.658  0.0015 -0.0649 -0.2120
17234W        W33495   6.314   3.900   1.763 -0.0015  0.2906  0.3246
17235W        W33496   0.739  18.318  13.353 -0.3111  0.0638 -0.0954
17236W        W33497  16.277   1.206   4.498  0.1334 -0.2150  0.1470
17237W        W33498   5.914   8.136   1.818 -0.2500 -0.0804  0.3138
17238W        W33499   8.120   7.315  14.612 -0.2837  0.0183 -0.1228
17239W        W33500   7.392   8.925  14.621 -0.1717 -0.3126  0.2847
17240W        W33501  10.989  14.087  13.108  0.1449 -0.2268  0.0940
17241W        W33502   2.043   6.418   0.260 -0.1782 -0.1022 -0.0342
17242W        W33503  14.992  11.267   3.340  0.0669  0.3684  0.0843
17243W        W33504  19.243  17.884   2.618 -0.0219 -0.2489 -0.0512
17244W        W33505  18.576  18.926  13.566  0.3627  0.2128 -0.1184
17245W        W33506   2.272   0.432   2.345  0.2331 -0.1546 -0.0137
17246W        W33507   8.208   2.425   9.779 -0.2079 -0.0271  0.1367
17247W        W33508  11.347  10.008   3.011 -0.0701  0.2307 -0.0909
17248W        W33509   4.089   2.611   2.349  0.0258  0.0358  0.2226
17249W        W33510  13.787  18.579  14.294  0.0212 -0.0775  0.1182
17250W        W33511   3.935  17.311   2.993 -0.0815  0.2202  0.2927
17251W        W33512  12.281  18.220   3.535 -0.1734  0.0938  0.0901
17252W        W33513   2.188   8.679   5.051 -0.0429 -0.0615 -0.1986
17253W        W33514  10.066  18.699   3.780  0.0146 -0.1499  0.2401
17254W        W33515  18.357  11.320  13.696 -0.3286  0.0848 -0.5024
17255W        W33516   8.811   9.806   0.356 -0.1669 -0.2209  0.2765
17256W        W33517   4.257   1.529  12.447 -0.1329  0.0060  0.0405
17257W        W33518   5.381   2.887   1.556 -0.1200 -0.3643  0.0514
17258W        W33519  18.379  12.452   2.732 -0.1464  0.1939  0.2534
17259W        W33520   3.177   9.593   1.160  0.1538 -0.2233  0.1140
17260W        W33521  13.205  12.968  13.312  0.0232  0.1578 -0.6397
17261W        W33522   0.761  18.684   4.671  0.2167  0.0686  0.1975
17262W        W33523   5.596   6.171  13.495 -0.4814  0.0932 -0.1639
17263W        W33524   3.185  10.819  11.916 -0.1383 -0.2912  0.3532
17264W        W33525  10.629   8.901  13.050  0.0029  0.0594 -0.1219
17265W        W33526  12.321   8.502  13.242 -0.2790  0.1109 -0.2515
17266W        W33527   3.166  12.174  12.488  0.3798  0.0114 -0.1576
17267W        W33528   9.082  15.753  13.211 -0.1522  0.0238  0.2566
17268W        W33529  10.221   3.455   1.374 -0.0551 -0.0936  0.2425
17269W        W33530  11.829  10.852   1.746  0.1551  0.1379 -0.0780
17270W        W33531   1.343   4.168   1.524  0.1007  0.1390  0.2578
17271W        W33532  16.069   4.308  11.759  0.1996  0.0547 -0.2304
17272W        W33533   2.263   6.180  12.775  0.2241  0.2852 -0.1380
17273W        W33534  11.216   7.154  14.688 -0.0900  0.0758 -0.2857
17274W        W33535  13.656  12.401   2.895  0.0830  0.2748  0.0229
17275W        W33536  18.632  11.419  12.886 -0.2978 -0.0926  0.1876
17276W        W33537  17.959   5.875   2.919  0.0388 -0.0390  0.1865
17277W        W33538   5.600  11.322   1.120 -0.1150 -0.0705 -0.0799
17278W        W33539  10.118  19.080  13.551 -0.0254  0.2042 -0.0284
17279W        W33540   5.984   9.897   3.676  0.1962  0.1657 -0.3165
17280W        W33541   7.851   0.062  12.338  0.0811  0.1811 -0.2646
17281W        W33542  13.924   9.490   4.954  0.0132 -0.0811 -0.1494
17282W        W33543   6.599   3.712   0.383  0.3104 -0.0424  0.0500
17283W        W33544   7.492   4.458  10.906 -0.0727 -0.2995  0.1689
17284W        W33545   3.706   5.716  10.571  0.0180  0.1164 -0.2824
17285W        W33546   4.903  10.415  14.413  0.1019 -0.0907  0.3223
17286W        W33547   1.435   1.754   2.871 -0.2291  0.1075  0.0753
17287W        W33548  11.532   1.426  11.037 -0.1245 -0.0377 -0.0493
17288W        W33549  14.283  18.272   2.376  0.3323 -0.3180 -0.4436
17289W        W33550   1.196   4.777   0.013 -0.1361 -0.1382  0.2508
17290W        W33551   2.198   4.952  13.449 -0.0616  0.0428  0.0346
17291W        W33552  18.203  18.980  10.493 -0.2812 -0.0793  0.0946
17292W        W33553   3.341   4.356   5.073  0.0892  0.2451 -0.1621
17293W        W33554  17.779  13.657   0.688 -0.2836  0.2483  0.0665
17294W        W33555   1.335   3.570   0.669  0.1889  0.0186 -0.0884
17295W        W33556  12.914   6.332  13.571 -0.2931  0.0109 -0.1872
17296W        W33557   6.467   5.123  11.837  0.1011  0.1006 -0.0780
17297W        W33558   5.880   3.780  13.806 -0.1610  0.0434  0.3288
17298W        W33559   0.878   0.326   0.300 -0.0355 -0.1336 -0.2539
17299W        W33560   8.391  16.138   1.647 -0.0460  0.0888 -0.0504
17300W        W33561   8.778   0.465  12.207  0.0222 -0.1692  0.0416
17301W        W33562  16.424   0.882   1.292  0.0521 -0.1404  0.1433
17302W        W33563   6.903  16.993  14.564 -0.0250  0.2245  0.0475
17303W        W33564   5.775   3.244  12.404 -0.0256  0.0919 -0.3264
17304W        W33565  18.669  17.653   2.048 -0.4809 -0.3557 -0.0968
17305W        W33566  15.075  17.635   4.993  0.1305  0.0179  0.3764
17306W        W33567  12.171  15.292  13.387  0.2430 -0.2096 -0.0498
17307W        W33568   9.475  15.770  13.580 -0.0362 -0.0264  0.0285
17308W        W33569  13.820  19.050  12.196  0.1873 -0.0938  0.1176
17309W        W33570   5.651   8.549   1.706  0.1804 -0.2212  0.1748
17310W        W33571  19.081  18.639   0.484  0.2133 -0.1142 -0.0578
17311W        W33572  17.286   2.766   1.208  0.0011 -0.0425  0.1125
17312W        W33573  19.019  11.950   3.201  0.2138  0.1313  0.3315
17313W        W33574   1.480   4.674  13.121 -0.2653  0.0494  0.0249
17314W        W33575   3.776   7.932   1.651  0.3201 -0.1084  0.0539
17315W        W33576   3.468   3.443   3.662  0.1927  0.1236  0.0716
17316W        W33577  19.455   9.747  13.809  0.2477  0.0967 -0.0848
17317W        W33578   7.092  12.014   2.554 -0.1526 -0.0826  0.2428
17318W        W33579  18.217   7.377  10.429 -0.0266  0.1318 -0.0228
17319W        W33580  14.068  19.390   3.734  0.2424 -0.0897 -0.0130
17320W        W33581  10.305  15.096  13.910  0.0368 -0.2964  0.1784
17321W        W33582  12.444  15.453   2.607  0.2934 -0.5233 -0.2560
17322W        W33583   5.060  11.327   1.960 -0.0493 -0.0045  0.4083
17323W        W33584   2.633  19.010  11.043  0.1526  0.0541  0.3134
17324W        W33585   0.022   7.000  12.788 -0.2016  0.2677 -0.3309
17325W        W33586   7.143   9.890  13.024 -0.2769 -0.3120  0.0758
17326W        W33587   8.980  17.168  11.311 -0.0878 -0.1709  0.1627
17327W        W33588  18.931  10.540  14.709 -0.1004 -0.0368 -0.2137
17328W        W33589   4.759  16.415  14.247  0.0980  0.0451  0.3420
17329W        W33590   1.768  18.982   0.792  0.0430 -0.0934  0.1786
17330W        W33591  12.245   9.996   3.995  0.1942 -0.1192 -0.1191
17331W        W33592   2.303  15.132   2.914  0.4580 -0.0711 -0.3433
17332W        W33593   0.759  13.056   4.263 -0.4352  0.1170 -0.0243
17333W        W33594   7.479  17.748  10.656  0.2179  0.0180  0.0161
17334W        W33595  12.752  16.365  10.834 -0.1730 -0.1578 -0.0035
17335W        W33596   6.750  14.229  13.123 -0.1385  0.1923 -0.0064
17336W        W33597   8.445   5.289  12.466 -0.0034  0.1759  0.0495
17337W        W33598   7.525  16.300  14.471  0.2813 -0.1436 -0.2135
17338W        W33599   1.275   1.418   5.047 -0.0726 -0.1772 -0.0848
17339W        W33600  15.490   8.948   2.129  0.1924  0.1550  0.1705
17340W        W33601   9.479   3.506   2.997  0.0508  0.1431 -0.2568
17341W        W33602   0.194  15.272   3.538 -0.1098 -0.0444  0.1064
17342W        W33603  15.067  12.863  11.531  0.0589 -0.0799 -0.0468
17343W        W33604   4.644   6.259  12.805 -0.0786 -0.0852 -0.1236
17344W        W33605   2.491  16.404  11.860  0.1280 -0.1182  0.2550
17345W        W33606   0.131   1.966  14.205 -0.0174  0.0800  0.1987
17346W        W33607   3.816   7.519   2.023 -0.3128 -0.0897  0.1900
17347W        W33608  15.512  16.974   3.018  0.1822  0.0814 -0.1916
17348W        W33609   0.604   7.417  12.433  0.1108 -0.2599  0.0643
17349W        W33610  13.708  13.414  11.634  0.0933 -0.1065 -0.0343
17350W        W33611   0.552  17.570   0.229  0.0390 -0.0418 -0.1845
17351W        W33612  19.291  14.769   2.829 -0.3415 -0.1263 -0.0844
17352W        W33613  17.147   5.399   1.336 -0.0569 -0.6239  0.2166
17353W        W33614  10.197   8.947   2.193  0.1140 -0.0558  0.2387
17354W        W33615  16.004   7.595   1.985 -0.1225 -0.0833 -0.0820
17355W        W33616   0.775  16.708   4.037 -0.2484 -0.2581 -0.0292
17356W        W33617  15.202  13.936   2.120 -0.0660  0.0556  0.0730
17357W        W33618  13.313  16.549   1.561 -0.0813 -0.0376 -0.1094
17358W        W33619  13.245   4.247  12.669  0.0111  0.0576  0.0950
17359W        W33620   3.786  13.239   2.717 -0.0619 -0.1056 -0.1520
17360W        W33621   2.524  17.604  12.820 -0.2560 -0.1247 -0.3610
17361W        W33622   4.028   2.112   3.232  0.0007  0.1709  0.0221
17362W        W33623  16.177  11.619   1.251  0.0032  0.1363  0.0049
17363W        W33624   9.620  19.042  13.203  0.0177 -0.1760  0.0790
17364W        W33625   5.841   6.496  11.159  0.1084  0.1226  0.1498
17365W        W33626   0.108   3.758  11.815 -0.1967  0.0455 -0.2122
17366W        W33627  18.311   6.214   0.039 -0.0788  0.2796  0.1423
17367W        W33628   1.210   3.250   1.842  0.1008 -0.2402 -0.1742
17368W        W33629   6.343   6.359  11.311  0.2593  0.1279  0.0954
17369W        W33630   2.979  14.062  14.017 -0.0156 -0.2501 -0.2707
17370W        W33631   6.494  16.413  12.329  0.2632  0.0221 -0.0473
17371W        W33632  10.310   8.243   4.516 -0.1872 -0.3064 -0.2004
17372W        W33633  19.288  17.751  12.028  0.1527  0.0537 -0.2020
17373W        W33634  10.892   5.766   9.470 -0.1089  0.0792 -0.1621
17374W        W33635   1.888   8.844   2.949  0.0982 -0.2624  0.0865
17375W        W33636  13.538   8.174  13.550  0.5521  0.0586 -0.2364
17376W        W33637   1.464   8.274  12.670  0.1634  0.0893  0.0796
17377W        W33638  17.078   0.839   2.472  0.0132  0.1609 -0.0269
17378W        W33639   6.291   4.028   0.685  0.1189  0.0428 -0.1852
17379W        W33640   9.480   2.490  11.132  0.0568 -0.1146  0.0860
17380W        W33641   9.012   3.936   3.857  0.1228 -0.0757 -0.4202
17381W        W33642  18.023   7.183  10.025  0.1431 -0.0922  0.3301
17382W        W33643  18.965   5.856   4.469  0.0107 -0.2161 -0.0283
17383W        W33644   4.929   9.110   4.823 -0.0604 -0.0664  0.2876
17384W        W33645   9.677   1.795   1.372 -0.0283 -0.1317  0.1240
17385W        W33646   9.314  17.483  14.488 -0.1829  0.2161 -0.0576
17386W        W33647   5.224  14.555   2.170 -0.1069 -0.2316  0.0974
17387W        W33648  18.758  10.470  13.733 -0.0517 -0.2751 -0.1090
17388W        W33649   4.989  11.266   2.502  0.0833  0.1422 -0.0831
17389W        W33650  11.488   8.177  12.269  0.1205  0.0820 -0.2262
17390W        W33651  17.404  12.828   3.910 -0.4540 -0.0683 -0.2320
17391W        W33652  13.559   6.898   4.407 -0.1119 -0.1691  0.0829
17392W        W33653   7.617  18.836  11.950 -0.1687 -0.3841  0.2744
17393W        W33654  17.080  10.255   2.159 -0.0973 -0.2916 -0.0825
17394W        W33655   1.142  19.013   4.569 -0.1992  0.1292 -0.2335
17395W        W33656  10.279   8.424   4.077 -0.0836  0.3880 -0.0081
17396W        W33657  18.003   2.605   2.783  0.3554  0.1668  0.0671
17397W        W33658   4.147   1.960  10.068 -0.3578  0.4043  0.0095
17398W        W33659   7.935   7.574  13.769  0.1713  0.1854  0.1885
17399W        W33660   6.372   2.255  12.651 -0.1705 -0.0076 -0.2024
17400W        W33661  18.889   0.482   0.753 -0.1971  0.0518 -0.0070
17401W        W33662   2.190  12.729   3.812 -0.2375 -0.1047 -0.2508
17402W        W33663  10.926  14.059   5.842  0.0212 -0.4041 -0.0952
17403W        W33664   1.411   8.358  13.862  0.2368  0.2386  0.1864
17404W        W33665  13.433   6.536   1.539  0.1268 -0.0148  0.0036
17405W        W33666   7.123   8.376  14.431  0.1933 -0.0224 -0.5849
17406W        W33667   3.791   1.102   0.040 -0.4173 -0.1151  0.3546
17407W        W33668  12.687  10.448  13.292 -0.2656  0.0105  0.1414
17408W        W33669  18.754  18.908  14.683 -0.2421 -0.0227 -0.1142
17409W        W33670  15.495  17.381   5.214 -0.3157 -0.2696 -0.1525
17410W        W33671   8.263   8.451   0.694 -0.0410 -0.2084  0.0102
17411W        W33672   3.003   8.884   0.944 -0.1161 -0.1084 -0.5045
17412W        W33673  10.801   3.879   2.836  0.1938 -0.0928  0.0329
17413W        W33674   9.207   2.048   1.247 -0.0959  0.0805  0.2061
17414W        W33675   3.180   5.867  12.684  0.0322 -0.3063  0.1997
17415W        W33676  14.495  17.018  12.853 -0.0906 -0.0333 -0.0366
17416W        W33677   9.987   8.414  10.573  0.1433  0.3719  0.0791
17417W        W33678   6.905  13.981   1.408  0.1979 -0.1214 -0.2183
17418W        W33679   7.373   5.693   4.116  0.1713 -0.0665  0.5334
17419W        W33680  12.540   0.015   0.121  0.0331 -0.0234  0.2213
17420W        W33681  14.199   0.038   1.193  0.0773 -0.0468  0.0818
17421W        W33682   1.407  16.022   4.243  0.1478  0.4383 -0.2315
17422W        W33683  11.800  12.196  14.201 -0.1471 -0.3147 -0.0477
17423W        W33684  10.545   6.887   1.906  0.0102 -0.2645  0.0088
17424W        W33685  12.100   9.556  12.430 -0.3494 -0.3326  0.0795
17425W        W33686  18.318  19.277   0.632  0.0306  0.0630 -0.2482
17426W        W33687  11.972  16.927   4.166  0.1609  0.0954  0.2293
17427W        W33688   3.541  15.936   0.188 -0.0398 -0.0211  0.3327
17428W        W33689  18.248  16.626  11.614  0.2618  0.2006  0.0049
17429W        W33690   7.497   1.264   8.836  0.1049 -0.0992 -0.0981
17430W        W33691   6.697  15.666  14.664 -0.0490  0.0228 -0.1516
17431W        W33692  17.164  18.698  10.816 -0.1659 -0.2077 -0.0267
17432W        W33693  17.595   6.484  10.911  0.2043 -0.1837  0.2121
17433W        W33694  13.583  15.433   2.728  0.1520  0.0249 -0.2752
17434W        W33695  17.701   7.964  14.203  0.1638 -0.0595  0.3399
17435W        W33696  19.315  18.562  12.013 -0.3185  0.2669 -0.3907
17436W        W33697   0.153   3.451   0.231 -0.3813 -0.2515 -0.0405
17437W        W33698  15.532   2.381   1.385 -0.0372 -0.2797  0.1573
17438W        W33699  17.535  14.001  13.600 -0.2265  0.1221 -0.1807
17439W        W33700  12.332  18.070  12.145 -0.0628 -0.1573 -0.0793
17440W        W33701  17.588  18.596  10.523 -0.2712  0.0194 -0.5487
17441W        W33702   9.495   3.212   0.161  0.1430  0.0246 -0.1166
17442W        W33703  15.595  18.180  14.191  0.0884  0.1460  0.0476
17443W        W33704   6.070  16.172   4.377  0.1824 -0.2520  0.1103
17444W        W33705   0.511   9.738  14.431 -0.2085 -0.2261 -0.2133
17445W        W33706   8.156   4.736   1.594 -0.1719 -0.1609  0.0994
17446W        W33707   6.794   0.457  13.618 -0.0968  0.1420  0.0085
17447W        W33708  15.630  12.355   2.664  0.0063  0.1139 -0.2151
17448W        W33709  18.486  17.044   5.100  0.1631  0.0315 -0.2782
17449W        W33710  19.469   4.890   4.446 -0.5400 -0.0070  0.0729
17450W        W33711   9.694  11.496   1.147  0.1465  0.2158  0.3415
17451W        W33712  19.238  10.261  14.233 -0.2847  0.2044  0.1714
17452W        W33713  17.501   3.514   0.284  0.1785  0.0295 -0.1805
17453W        W33714   7.141  18.082  11.578  0.0456  0.0234 -0.1000
17454W        W33715   1.621   7.967   9.592  0.0730 -0.0446  0.0941
17455W        W33716   3.019  16.565  13.932 -0.2186  0.2701  0.0211
17456W        W33717   6.306  11.151  12.498 -0.0747  0.0522 -0.1020
17457W        W33718  10.898   3.314   1.502  0.3997  0.0057 -0.1267
17458W        W33719  17.861  18.143  14.175 -0.2068 -0.1771 -0.0163
17459W        W33720   3.449  15.483   3.551  0.0695 -0.2714 -0.1375
17460W        W33721  13.112   3.144  10.991  0.2510  0.2081  0.1520
17461W        W33722  10.985  15.331  14.433  0.1616 -0.1341 -0.2524
17462W        W33723   5.927  19.416  12.641 -0.2382  0.0256  0.2021
17463W        W33724  12.324  10.856   0.865 -0.2274 -0.3880 -0.1746
17464W        W33725   4.941  14.103  14.137  0.0940  0.3516 -0.1924
17465W        W33726   9.804   2.002   9.717 -0.3217 -0.0520 -0.2686
17466W        W33727   1.200  14.598  11.477 -0.2150 -0.3721  0.0305
17467W        W33728  17.853  16.718  10.632  0.1024  0.0097 -0.1219
17468W        W33729  14.010  15.743   1.539 -0.0018 -0.0383  0.4343
17469W        W33730  15.225  10.171  13.175  0.3392  0.0067 -0.1049
17470W        W33731   1.840   1.732   4.247 -0.1566 -0.2315  0.3815
17471W        W33732   4.629   4.317  10.844  0.1676  0.0160  0.1799
17472W        W33733  10.513   8.401  12.617 -0.0532 -0.0621  0.4056
17473W        W33734   1.247   1.409   0.533  0.1796 -0.0091 -0.1740
17474W        W33735   5.037  12.072  14.560 -0.1333 -0.0377 -0.0738
17475W        W33736   5.912  18.701   0.593 -0.1605 -0.2103 -0.0043
17476W        W33737  15.075   3.393  11.656 -0.0865 -0.1508 -0.2952
17477W        W33738  16.490   3.884   2.998 -0.1060  0.0621  0.0469
17478W        W33739   9.348   2.253  14.288 -0.0831 -0.2370 -0.3102
17479W        W33740   8.112  15.844  13.543 -0.1399  0.4249 -0.1137
17480W        W33741   1.963   7.790   0.604 -0.3328  0.1211  0.2347
17481W        W33742  18.431   9.803   2.059  0.3429 -0.0436 -0.1510
17482W        W33743   8.254  17.515   4.307  0.2227 -0.0291  0.4308
17483W        W33744  10.131  12.792   4.048 -0.2423 -0.1478  0.0626
17484W        W33745  17.261  14.349  12.342  0.1194 -0.2680  0.0867
17485W        W33746  16.577   6.752  11.272 -0.2362  0.0184 -0.0740
17486W        W33747   5.468  18.730   9.899  0.0425 -0.0016  0.0396
17487W        W33748  12.784  17.967   0.820 -0.0501 -0.1866  0.2922
17488W        W33749   3.098   5.630   2.565 -0.0451  0.1802 -0.3283
17489W        W33750  11.398   9.192   1.898  0.1093  0.0855 -0.2377
17490W        W33751  14.973   1.180   2.840  0.0379  0.2160  0.1238
17491W        W33752  16.899  11.083   1.540  0.0420  0.1384  0.1205
17492W        W33753   7.331   6.936  14.517  0.6450 -0.0199  0.0979
17493W        W33754   8.700  15.907   0.110 -0.1808  0.1270  0.1620
17494W        W33755   3.600  11.830   3.568 -0.0685 -0.1020  0.0857
17495W        W33756   4.919  14.769   0.035 -0.1261  0.3515 -0.0150
17496W        W33757   7.488   3.215  11.792  0.1923  0.3726  0.2380
17497W        W33758  12.569   5.158  11.150 -0.0299  0.0820 -0.2175
17498W        W33759   4.166   7.030   3.205 -0.0858 -0.0191 -0.0843
17499W        W33760  12.443   1.734   1.271  0.0780 -0.0014 -0.0065
17500W        W33761   2.455   1.879  14.260 -0.0662  0.0753  0.0832
17501W        W33762   1.441  19.420   1.781 -0.1149  0.2890 -0.0094
17502W        W33763   3.674  17.634   1.372 -0.1845 -0.2840  0.1233
17503W        W33764   7.634   2.651  14.336  0.1423  0.1514  0.0885
17504W        W33765  15.763   5.432  14.012  0.0561 -0.2220  0.3203
17505W        W33766   5.134  16.170   3.807 -0.0378  0.0034 -0.0056
17506W        W33767  17.329   8.866   4.976 -0.2098  0.1921  0.0535
17507W        W33768   6.949   9.024  10.431 -0.0020 -0.2390  0.3580
17508W        W33769  17.560   9.621   1.700 -0.1654 -0.0792 -0.0700
17509W        W33770   6.691  12.411  10.619 -0.1943 -0.0953  0.0474
17510W        W33771  13.518  12.976   2.778  0.1617 -0.1902 -0.0590
17511W        W33772   0.229  15.870   1.699  0.2198  0.0293  0.2431
17512W        W33773   2.761   4.847  12.596 -0.0006  0.0861 -0.0787
17513W        W33774   3.828  14.444   4.698  0.0656 -0.0638 -0.0193
17514W        W33775   7.444   9.469   4.021  0.2981 -0.2266  0.1962
17515W        W33776  15.292  13.009   3.284 -0.1992  0.1576  0.1341
17516W        W33777  18.513   9.779   2.953  0.2524  0.2730 -0.1248
17517W        W33778   1.235   8.924  11.369  0.0332  0.2064  0.2874
17518W        W33779  12.325  12.824  12.142 -0.2208  0.0242  0.2041
17519W        W33780   3.765   6.416   3.377  0.1753 -0.1246 -0.2215
17520W        W33781  12.483  19.160  11.539  0.1508  0.1374  0.1430
17521W        W33782   2.771   8.855   1.408  0.1549  0.0079  0.0922
17522W        W33783   1.773   2.636  14.290  0.3818 -0.0078 -0.1726
17523W        W33784  13.701   1.483   5.776  0.1059  0.0616 -0.1496
17524W        W33785  10.055   6.812   4.205  0.2913  0.0211 -0.0809
17525W        W33786  14.759  10.915   3.607 -0.0977 -0.0224 -0.1370
17526W        W33787  15.933  16.726   5.752 -0.0736  0.1152  0.2055
17527W        W33788  12.380  17.891   4.808  0.2107  0.2758 -0.0738
17528W        W33789  11.388   3.094   2.372 -0.0122 -0.0131 -0.1049
17529W        W33790   5.161   7.316  14.215 -0.1830 -0.0735  0.2628
17530W        W33791  16.977  14.057   2.290  0.1655  0.0515  0.2128
17531W        W33792   4.872  15.488   2.363  0.0320 -0.0158 -0.1043
17532W        W33793  15.822   5.950   1.972  0.0504  0.4674  0.3336
17533W        W33794  17.113  14.856  13.465  0.0636 -0.1619 -0.0486
17534W        W33795   4.208   0.305   1.141 -0.0658  0.4194  0.1335
17535W        W33796  11.256  15.408  11.778  0.0253 -0.1691  0.4008
17536W        W33797   6.264  14.814  12.965 -0.3631  0.1639 -0.0100
17537W        W33798  17.394   8.569  11.651  0.2165  0.1631  0.3022
17538W        W33799  18.304  12.607   4.360  0.0139 -0.0736  0.1338
17539W        W33800   7.755   2.754   0.932 -0.1127  0.0970  0.1109
17540W        W33801  10.032   6.558   3.711  0.0167 -0.0460 -0.1059
17541W        W33802   1.459  18.104  14.390 -0.2585 -0.1332  0.4292
17542W        W33803  14.120   4.415   2.647  0.0614 -0.0798 -0.5058
17543W        W33804   7.354  18.995  14.331 -0.1016  0.4462 -0.0829
17544W        W33805  13.490  13.005  14.195 -0.1678  0.0870  0.4150
17545W        W33806   4.241   6.592   2.450  0.0147 -0.3889 -0.2054
17546W        W33807   9.115  14.488   9.814  0.0197  0.1114 -0.1097
17547W        W33808  18.749   6.442  14.728 -0.4857  0.0960  0.4433
17548W        W33809   9.603   6.684   2.077 -0.0681 -0.1494  0.0134
17549W        W33810  15.157  15.483   3.519 -0.0156 -0.0135 -0.1994
17550W        W33811  14.398   6.993   0.035  0.0119 -0.0387 -0.0061
17551W        W33812  10.030   3.664  11.511  0.1771 -0.2122 -0.1843
17552W        W33813  14.264  16.633   4.076  0.2276 -0.3855  0.0730
17553W        W33814   1.799   6.885   1.297 -0.0696  0.1418 -0.2056
17554W        W33815  16.485  14.795  12.834 -0.0195 -0.0454  0.2368
17555W        W33816   3.939  11.758   4.676 -0.2884  0.1477 -0.0662
17556W        W33817  14.322   9.671  12.405  0.2715  0.1440 -0.2637
17557W        W33818   8.333   4.101   3.986  0.2046 -0.2783  0.0471
17558W        W33819   8.288  16.268   1.134 -0.0579  0.1091 -0.0222
17559W        W33820   2.691  14.412   1.724  0.1384  0.0165 -0.2702
17560W        W33821   6.570   1.421   1.000  0.3136  0.2621  0.1528
17561W        W33822   9.050   2.487   2.955 -0.0509 -0.2284 -0.1302
17562W        W33823  16.814   2.715   1.497  0.0708 -0.1406 -0.2846
17563W        W33824  13.404   1.759   1.889  0.2573 -0.1678 -0.3641
17564W        W33825  15.523   8.730  14.559  0.0617  0.1348  0.0881
17565W        W33826  18.412   6.603   2.967  0.2808  0.0950  0.3430
17566W        W33827  16.574   4.466   4.063 -0.0617  0.2239 -0.2507
17567W        W33828  10.886   6.070   2.179 -0.1063  0.2211 -0.3399
17568W        W33829   0.926  17.988   5.750 -0.1471 -0.0757 -0.2520
17569W        W33830   8.982   9.490  14.769 -0.1765 -0.1651 -0.0026
17570W        W33831   1.138  15.214   3.682 -0.0229 -0.3452 -0.1831
17571W        W33832  19.019  18.594   1.654  0.1151  0.1242 -0.2620
17572W        W33833   4.269   9.792   0.664 -0.3277 -0.2483 -0.1260
17573W        W33834   7.817  13.740   1.691  0.0066 -0.1185 -0.0402
17574W        W33835  15.860  19.145   2.745  0.0888  0.5668 -0.0455
17575W        W33836  12.455  11.036  12.481 -0.1684  0.0516  0.1344
17576W        W33837  14.268   2.211   3.501 -0.3311 -0.1444  0.0853
17577W        W33838  18.273  19.002  14.447  0.0740  0.2355  0.2347
17578W        W33839   4.923   7.956   9.864 -0.2263 -0.1160  0.0369
17579W        W33840  13.717   2.703  14.231 -0.0546 -0.0991 -0.1364
17580W        W33841   7.779   8.429   9.975  0.3079 -0.1006  0.2519
17581W        W33842   2.665   7.515  10.290 -0.0992  0.1623  0.1473
17582W        W33843   5.399   7.811   3.204  0.3189 -0.3843  0.3940
17583W        W33844  14.279   2.926   1.046 -0.0622  0.1174 -0.0903
17584W        W33845   7.064  14.183  11.431 -0.2046  0.1839 -0.0725
17585W        W33846  16.215   5.773  13.940 -0.2302  0.1964  0.2983
17586W        W33847  10.542  11.224  11.428  0.2102 -0.2897 -0.3881
17587W        W33848  16.322  10.302  13.711  0.2027  0.3775  0.1772
17588W        W33849  13.636   2.926   4.418  0.0718 -0.1031  0.1738
17589W        W33850  12.707   3.602   1.196 -0.0373 -0.0324 -0.4580
17590W        W33851   2.961   1.421  10.762 -0.1275  0.2897  0.1085
17591W        W33852  15.295  12.825   1.858 -0.2189 -0.1120  0.1013
17592W        W33853   1.781   7.036  13.074  0.1248 -0.1040 -0.2051
17593W        W33854  10.333  10.279  10.402  0.2675 -0.0106 -0.1139
17594W        W33855  10.172  16.565   3.975  0.1261  0.3515 -0.2954
17595W        W33856   3.225  12.893  13.921 -0.0903 -0.0547 -0.1370
17596W        W33857   5.382   4.893  11.800  0.0483  0.3509 -0.1538
17597W        W33858   6.200   7.769   1.609  0.2142  0.3166 -0.0319
17598W        W33859   9.325  15.152   3.550 -0.0063 -0.0749  0.1713
17599W        W33860   1.361   0.251  10.469  0.2168 -0.7177  0.1910
17600W        W33861  13.177   6.746  14.014  0.1024 -0.0740  0.3028
17601W        W33862  18.099   7.342   4.072 -0.3082 -0.1141  0.6404
17602W        W33863   5.338   8.849   3.676  0.1380 -0.2945  0.0643
17603W        W33864  12.277  16.908  12.951 -0.2402 -0.1612  0.1283
17604W        W33865  10.414  13.468  11.528 -0.1790 -0.0461  0.4604
17605W        W33866   6.232  17.581  14.083  0.1323 -0.1744  0.0315
17606W        W33867  11.384   5.245  10.797 -0.2507 -0.1080 -0.1629
17607W        W33868  19.485   2.646   0.874 -0.1024 -0.0930  0.0772
17608W        W33869  12.123  11.079   1.299  0.0534 -0.0019 -0.0398
17609W        W33870  19.457  18.800   2.659  0.3500 -0.1851 -0.2374
17610W        W33871   9.356   9.614  10.580 -0.1517  0.0560 -0.1175
17611W        W33872   8.525  18.860   1.685 -0.1665 -0.0591  0.0367
17612W        W33873  10.340   0.501   3.992  0.0517 -0.1784  0.2172
17613W        W33874  19.353   3.758   3.570  0.1572 -0.1485  0.1641
17614W        W33875   2.647   3.250  11.099 -0.3004 -0.2207 -0.2453
17615W        W33876  19.290   6.340  10.638 -0.1433 -0.2272 -0.1953
17616W        W33877   6.798   5.631  14.059  0.0178 -0.0125 -0.0884
17617W        W33878  14.775   1.402   4.893  0.0094 -0.0110 -0.2112
17618W        W33879  12.604   4.259   0.616  0.0472  0.0680  0.1971
17619W        W33880   0.084  10.653  13.194 -0.2278 -0.0742  0.0458
17620W        W33881   7.492  13.714   3.504 -0.1114  0.5176 -0.1740
17621W        W33882   4.552   7.019  10.377  0.1015  0.0333  0.1466
17622W        W33883  18.329   0.854  11.023 -0.0374  0.2796  0.2210
17623W        W33884  18.580  10.282   2.102  0.2176 -0.0686  0.1711
17624W        W33885   3.436   7.914  11.487  0.0914  0.2321  0.0285
17625W        W33886  18.946  19.104  11.670  0.1296  0.1289  0.2158
17626W        W33887   8.249   2.234  13.371  0.0964 -0.1362  0.3421
17627W        W33888  13.302   4.057  11.164 -0.0845  0.3005  0.0922
17628W        W33889  16.781  19.394   9.713  0.0330  0.0349 -0.0602
17629W        W33890  16.483  14.940   3.100 -0.0200  0.2856  0.1197
17630W        W33891   2.826  19.000   3.648 -0.0367  0.0792  0.1950
17631W        W33892  11.699   9.914  14.201  0.1615 -0.2240 -0.0466
17632W        W33893  15.750   9.916   1.235 -0.1887  0.2669 -0.2213
17633W        W33894  10.311  10.361  13.871  0.0663  0.0188  0.3251
17634W        W33895  16.901   6.251  12.522 -0.0343 -0.6460 -0.0151
17635W        W33896   0.249   6.790   1.316  0.1065  0.4059 -0.2839
17636W        W33897  12.508   3.698  12.522  0.1211 -0.0865  0.0140
17637W        W33898   5.832   7.892  14.595  0.3210 -0.0945  0.0540
17638W        W33899   1.184   8.766   0.096  0.0539 -0.2188  0.1248
17639W        W33900  11.146   1.448  12.113 -0.0460 -0.0060 -0.3965
17640W        W33901  10.044   9.637   1.561 -0.2791  0.3297 -0.0250
17641W        W33902   5.541   7.473  11.039  0.1814 -0.3640  0.1192
17642W        W33903  10.874   7.570   0.144  0.2373 -0.2811  0.0554
17643W        W33904   4.532  12.972  13.589  0.0515 -0.2579 -0.0527
17644W        W33905  16.514  18.092   3.882  0.1752 -0.1006 -0.0992
17645W        W33906   9.624   6.929   1.509  0.2629 -0.0035  0.3772
17646W        W33907  16.340  18.628  12.218  0.1855  0.1294  0.2169
17647W        W33908   2.950  11.180   0.733  0.0175  0.3461 -0.3526
17648W        W33909   9.090   4.548   4.635  0.2422  0.2162 -0.0952
17649W        W33910  18.098   1.684  11.225  0.3912  0.1576  0.1520
17650W        W33911   8.474   6.651  11.224  0.1292 -0.0692 -0.2507
17651W        W33912  16.485   9.135   0.845 -0.0008 -0.2877 -0.4428
17652W        W33913   0.160   5.081   3.506  0.0096  0.1228  0.0905
17653W        W33914  16.950   8.543   5.196 -0.4338  0.1605  0.1037
17654W        W33915  15.795   5.697  10.823 -0.1806 -0.3581  0.1201
17655W        W33916   4.333  13.748   5.022  0.0058  0.1456 -0.0161
17656W        W33917   0.106   1.096  12.106  0.0901 -0.1992  0.1986
17657W        W33918   9.443  18.720  14.013 -0.2012 -0.1264  0.0609
17658W        W33919   2.015   5.249   1.571  0.2777 -0.1900  0.1016
17659W        W33920   5.575   9.211  14.706 -0.1673  0.0035  0.4351
17660W        W33921   3.684   8.329  10.380  0.1930  0.0503 -0.1170
17661W        W33922   0.865   3.181   1.512 -0.2839 -0.0701  0.3313
17662W        W33923  17.191  17.142  13.940  0.0294  0.0151 -0.3355
17663W        W33924   3.604  16.608   5.521  0.2486  0.0886  0.4020
17664W        W33925   4.373   6.388  14.511  0.0164  0.1520  0.3452
17665W        W33926   2.220  10.521   0.315 -0.2622  0.1465  0.1636
17666W        W33927   4.166   8.971   3.058 -0.1520  0.2865  0.0110
17667W        W33928   5.841   0.194   1.537  0.1519 -0.1383  0.3500
17668W        W33929   8.301  10.487   3.832  0.4964 -0.3642 -0.0719
17669W        W33930  19.267   3.047  11.171 -0.5758 -0.0010  0.1966
17670W        W33931  10.002  11.007  11.495  0.0545 -0.2158  0.0749
17671W        W33932   0.584   9.956   2.281 -0.1853  0.2607 -0.0397
17672W        W33933   6.852  16.233   5.708  0.1599 -0.1310  0.2485
17673W        W33934  16.785  17.319  11.143  0.2119  0.0065 -0.2816
17674W        W33935   5.961  12.113  13.804  0.2617  0.1777  0.0103
17675W        W33936   6.718  11.252  12.172  0.0087 -0.1653 -0.4183
17676W        W33937  10.681   6.289   2.673 -0.2411  0.3217 -0.1994
17677W        W33938  10.563   4.124   0.877  0.2798 -0.0989 -0.0544
17678W        W33939   5.020   1.823  11.912  0.0336  0.1867  0.1844
17679W        W33940   0.587  12.582   4.280  0.1526  0.1668 -0.1365
17680W        W33941  10.362   2.546   3.289 -0.4525 -0.0870 -0.1936
17681W        W33942  14.032   3.874  12.729  0.2472  0.1958 -0.0241
17682W        W33943   3.072  12.372   1.145  0.1365 -0.1594  0.1121
17683W        W33944  13.569   7.637  11.092  0.1929 -0.1482  0.2070
17684W        W33945   1.082  15.607  11.335  0.2327  0.1395  0.0627
17685W        W33946   7.204   0.154  12.174  0.0792 -0.0055  0.2137
17686W        W33947   0.304   9.614   4.548  0.0912  0.2809 -0.0895
17687W        W33948  12.918   5.448  11.549 -0.2352  0.1228 -0.1627
17688W        W33949   6.965   0.807   1.636  0.0169  0.0057 -0.0707
17689W        W33950   1.955  15.528   9.688 -0.1194 -0.0334  0.1029
17690W        W33951   1.894   5.123  13.829 -0.2006 -0.2286 -0.3286
17691W        W33952   9.247   1.422   2.349  0.1703 -0.2019  0.1739
17692W        W33953   6.464   7.754   3.423  0.0458  0.1713  0.1187
17693W        W33954   7.403   4.712  10.010 -0.1287  0.2617 -0.2012
17694W        W33955   7.182   0.341   1.558  0.1450  0.1946  0.1161
17695W        W33956   0.156   2.978  10.635 -0.2737 -0.0985 -0.0264
17696W        W33957  18.100   0.732   4.200 -0.2192 -0.1212  0.0187
17697W        W33958  12.492  13.295  13.826 -0.1316  0.0785 -0.0438
17698W        W33959  15.197   0.658  11.368  0.0032  0.0468 -0.0320
17699W        W33960  14.417   6.300   3.950  0.2445  0.2574  0.0052
17700W        W33961   1.922   2.977   0.722 -0.0658 -0.1456  0.3393
17701W        W33962  18.963   3.206   2.501  0.1573 -0.1465 -0.0046
17702W        W33963  17.609  14.082  14.625  0.0003  0.1005 -0.0052
17703W        W33964  12.189   7.308  11.357  0.4142 -0.0902  0.2720
17704W        W33965   6.731   9.823  10.034 -0.1135 -0.3733  0.3399
17705W        W33966   7.251  15.959   0.395  0.0219  0.0425 -0.1736
17706W        W33967  16.897  16.259   0.794  0.7934 -0.1945  0.3465
17707W        W33968  10.178   5.569   2.710  0.2672  0.0519  0.1208
17708W        W33969   0.925   4.922   2.811  0.0534 -0.0747 -0.4860
17709W        W33970   1.306   9.783  11.214 -0.1201 -0.0167  0.1167
17710W        W33971   4.249   7.684  14.699 -0.0614  0.2830  0.0469
17711W        W33972   7.272   5.181  12.501  0.0403  0.2577 -0.0834
17712W        W33973   5.713  13.270  11.818  0.0073 -0.1523 -0.3751
17713W        W33974  12.169   5.754  13.745 -0.2437 -0.1069 -0.0096
17714W        W33975  11.847   0.915   1.437  0.1222  0.0921 -0.3250
17715W        W33976  14.676   1.852   0.582  0.1753 -0.1393 -0.0640
17716W        W33977  10.646  19.303   4.716  0.3161  0.0451  0.1946
17717W        W33978  13.432  10.460  10.153 -0.6409 -0.0156 -0.1210
17718W        W33979  11.230  18.039  11.209  0.1042 -0.1634  0.3041
17719W        W33980   3.920  17.994   0.933  0.0603  0.1884  0.0062
17720W        W33981  10.800  13.332   0.373  0.0375 -0.0517  0.0513
17721W        W33982  13.012   2.696   5.553  0.1543  0.1868  0.0251
17722W        W33983  15.602  18.139  12.367 -0.0246  0.2591 -0.3487
17723W        W33984  19.470   7.292   1.440  0.0593 -0.1246  0.0920
17724W        W33985   9.924  12.736  13.808  0.0198 -0.1117  0.0266
17725W        W33986  10.641   0.673   2.013 -0.3391  0.1627 -0.3204
17726W        W33987  16.458  17.045  12.029  0.0885 -0.0579 -0.1288
17727W        W33988  15.917  16.923   5.083 -0.4381  0.0780 -0.2623
17728W        W33989  14.812  16.341   3.367 -0.2151 -0.1186 -0.1888
17729W        W33990   0.179  14.599   4.034  0.0865 -0.1614  0.1901
17730W        W33991   6.763  12.919   2.986  0.2832  0.2780  0.0690
17731W        W33992  13.712  10.239   3.532 -0.0454  0.0561 -0.8707
17732W        W33993   1.543  10.309   2.074 -0.0258  0.0429  0.0684
17733W        W33994  10.407   3.086  13.455 -0.1519  0.2793 -0.1038
17734W        W33995   1.760  18.145   0.397  0.1951  0.0286  0.0210
17735W        W33996  17.151  15.198   4.918 -0.0884 -0.0207 -0.0323
17736W        W33997  11.793  13.813   1.865 -0.1403  0.1745  0.0871
17737W        W33998  16.141  12.286  12.813 -0.1899 -0.1438 -0.2926
17738W        W33999  10.449   5.493  10.733  0.5833 -0.1004 -0.4193
17739W        W34000  11.222  17.136   5.916  0.0439 -0.0094  0.0022
17740W        W34001  12.550  12.763   4.333  0.0787 -0.0408 -0.1061
17741W        W34002  19.250  18.798  14.241 -0.1013 -0.2142  0.2081
17742W        W34003   2.690  13.056  13.927  0.0366  0.0593  0.0507
17743W        W34004  17.185  18.446  10.303 -0.2503  0.1467  0.3953
17744W        W34005  13.752  11.809  14.100 -0.0340 -0.2800  0.2992
17745W        W34006   5.489   8.043  10.088  0.0496  0.0811  0.0746
17746W        W34007  17.904  13.029   2.771 -0.1467 -0.0547 -0.2635
17747W        W34008   7.054  11.544   0.985  0.0510 -0.4598 -0.0242
17748W        W34009   1.953   2.375   3.876 -0.0050  0.1793 -0.0147
17749W        W34010   4.445   8.894   4.442  0.2939 -0.1442 -0.2315
17750W        W34011  15.778   2.618   0.926 -0.0014 -0.0896  0.0225
17751W        W34012   6.423   4.107  11.161  0.0479  0.1199 -0.0115
17752W        W34013  13.400  14.337   2.639  0.1244 -0.2524  0.1504
17753W        W34014   6.470  16.727   2.791  0.1456  0.2778  0.0378
17754W        W34015   0.161   2.757  12.509 -0.1725 -0.2389  0.2809
17755W        W34016  14.451   0.641   3.301  0.0955 -0.0223  0.0611
17756W        W34017   0.291  12.624  12.755  0.2417  0.2241  0.2002
17757W        W34018  15.802  13.035  10.408 -0.0620  0.0940 -0.1776
17758W        W34019  13.926   2.445   2.568  0.0135 -0.1306 -0.2821
17759W        W34020  18.597  15.099   1.607 -0.3534 -0.3265 -0.2557
17760W        W34021   3.770   1.139   4.638  0.0772 -0.1402  0.0678
17761W        W34022  12.792   8.580   1.969 -0.3123  0.0873  0.0058
17762W        W34023  17.242  13.437  14.182  0.2334  0.1231 -0.1412
17763W        W34024  12.135   7.517   5.080  0.1100  0.1543  0.4046
17764W        W34025   1.104  10.096  13.150 -0.1348 -0.0832 -0.2325
17765W        W34026  12.890   9.185   2.760  0.2598 -0.3242 -0.0916
17766W        W34027  10.914  15.594  13.561 -0.3352 -0.2709  0.2420
17767W        W34028   6.803  14.709  12.284  0.2053 -0.0342 -0.0328
17768W        W34029  11.378   9.523   3.813 -0.2150 -0.2502  0.2771
17769W        W34030  18.279  10.040  10.468  0.1351  0.0570  0.0906
17770W        W34031   0.531  17.613  11.025  0.1740  0.0266 -0.0800
17771W        W34032   3.581   2.625   1.476  0.2613  0.1718 -0.2799
17772W        W34033   2.604   1.821   1.540  0.0010  0.2603  0.0255
17773W        W34034   3.002  11.192  11.655 -0.1078  0.0210 -0.1403
17774W        W34035  11.187   1.069  11.324 -0.1821 -0.0138  0.0014
17775W        W34036   3.616  18.559   2.736  0.0754  0.0258 -0.2086
17776W        W34037   7.415   3.280   0.396  0.0546 -0.3845  0.0101
17777W        W34038  14.029  14.481  13.669  0.2118 -0.5086 -0.0278
17778W        W34039   4.830   5.702  12.909  0.0883 -0.1198  0.2766
17779W        W34040   8.009  12.754  12.022 -0.0312  0.1158 -0.0771
17780W        W34041   7.376   3.786   3.082 -0.1747  0.1581 -0.1007
17781W        W34042   1.908   3.323   1.371 -0.1107 -0.0225  0.2292
17782W        W34043   5.559  14.458   1.755 -0.0002  0.2728  0.1460
17783W        W34044   4.217   4.591   1.426 -0.0423  0.3913  0.1983
17784W        W34045   8.217   7.775  13.147 -0.0069 -0.0693 -0.1031
17785W        W34046   3.719   5.997  13.898 -0.0104  0.2633  0.1460
17786W        W34047  18.721   3.779   3.103  0.0326 -0.0177  0.0927
17787W        W34048   2.434  13.380   2.398  0.1744 -0.0806 -0.1035
17788W        W34049  14.305   0.386   2.918  0.0515  0.0073  0.3733
17789W        W34050  16.316  11.821  13.761  0.1963 -0.0067 -0.2105
17790W        W34051  15.389  16.648   3.554 -0.1641  0.2747  0.0859
17791W        W34052  13.875  15.132  11.704  0.1031  0.0899 -0.0878
17792W        W34053   5.284  13.560  11.712 -0.2417  0.2349 -0.1964
17793W        W34054   4.552   7.672   9.630  0.0943 -0.1354  0.0416
17794W        W34055   4.460  13.502  10.691  0.0975 -0.1260 -0.1255
17795W        W34056   6.474  11.187  11.751  0.2145  0.1361 -0.0611
17796W        W34057  18.263  10.502  13.022  0.1511  0.2239  0.0715
17797W        W34058  16.099  14.025  12.553  0.2083 -0.1766 -0.0672
17798W        W34059  17.887   5.260  12.331  0.4030 -0.0831 -0.0062
17799W        W34060   0.522  15.873  14.515  0.2377  0.0730  0.0496
17800W        W34061   1.810   6.818  13.608  0.0326  0.2723 -0.0726
17801W        W34062   5.115   6.931   3.704  0.0871 -0.1234  0.1757
17802W        W34063   8.352   1.645  11.524 -0.0875  0.4042  0.1192
17803W        W34064   1.189   1.255  10.072  0.0185 -0.0738 -0.1957
17804W        W34065  12.270  14.956   0.847  0.2963  0.2473  0.0759
17805W        W34066  16.842  12.489  13.995  0.0800  0.3147 -0.3525
17806W        W34067   2.905   2.885   3.263 -0.2929 -0.0722  0.3361
17807W        W34068  12.133  10.051  12.250  0.3031  0.3706  0.1931
17808W        W34069   8.651  12.112   1.964  0.1576 -0.3492 -0.0794
17809W        W34070  16.964  12.965   3.278 -0.1183 -0.3805  0.0695
17810W        W34071  11.545   3.892  14.090 -0.3979  0.2049 -0.1391
17811W        W34072  16.984  19.063  11.164 -0.1653  0.0526 -0.0844
17812W        W34073   5.180  12.385  12.290  0.1029 -0.0628  0.0517
17813W        W34074   5.087  17.973   0.769 -0.0431  0.0352  0.1893
17814W        W34075  12.572   5.455   3.732  0.0952  0.1796  0.2642
17815W        W34076  11.734   8.157   1.799  0.6099  0.0321  0.0697
17816W        W34077  14.573   0.669  13.436  0.0454 -0.1384  0.0787
17817W        W34078  16.524  15.804  11.187  0.0158  0.5174  0.1943
17818W        W34079   3.214  10.086  13.456 -0.0566 -0.1055 -0.1172
17819W        W34080  18.362  15.206  12.865  0.0795 -0.0313 -0.2129
17820W        W34081  13.622  14.873   4.802 -0.0026 -0.0281 -0.1736
17821W        W34082  16.430   8.958  12.071 -0.0367  0.0364  0.0698
17822W        W34083  14.795   2.401  11.320  0.2019 -0.2164 -0.2756
17823W        W34084   6.493  10.998   1.431  0.5734  0.0931 -0.1425
17824W        W34085  11.076  16.762  14.144  0.1628  0.0191 -0.4282
17825W        W34086  16.789  15.694   0.409 -0.4979 -0.0597  0.2443
17826W        W34087  12.724   2.321   1.919  0.2884  0.0141 -0.0328
17827W        W34088   0.519  17.056  13.818  0.2114  0.3723  0.1168
17828W        W34089   7.896   1.048  12.713 -0.0180  0.2454 -0.2100
17829W        W34090  14.960   4.575   0.245 -0.4223  0.0998  0.2531
17830W        W34091   3.008   5.797  11.286 -0.3470  0.4246 -0.2002
17831W        W34092  18.130  13.498   1.057  0.1984 -0.0193 -0.2950
17832W        W34093  15.016  15.069   0.650  0.0540  0.2296  0.2033
17833W        W34094   3.593   8.515   3.870  0.1386  0.0967  0.5963
17834W        W34095   2.621   1.634  11.045  0.1575 -0.0378 -0.0619
17835W        W34096  10.374  10.120   3.950  0.1368  0.2233  0.1047
17836W        W34097  16.961   2.899   4.634  0.0479  0.2165  0.0679
17837W        W34098   9.571  11.026   2.987 -0.1510  0.1555  0.2554
17838W        W34099   1.183  11.686  12.608 -0.2856 -0.2415 -0.2609
17839W        W34100   8.861  11.955   2.890 -0.0335 -0.1589  0.0774
17840W        W34101  15.977  18.363  10.364  0.1243  0.0883  0.1185
17841W        W34102  13.767  16.369   2.169  0.0617  0.2650 -0.1627
17842W        W34103   6.971  12.629  13.035 -0.1452  0.0463 -0.2023
17843W        W34104  11.783  15.818   2.040 -0.2625 -0.1386 -0.1513
17844W        W34105  16.041   1.358  12.416  0.3520 -0.0907  0.1804
17845W        W34106   4.131   8.574  12.311 -0.0062 -0.2494  0.2524
17846W        W34107   8.104  19.122  13.752 -0.0321  0.0426 -0.0474
17847W        W34108   4.202   6.625   3.513  0.2738  0.1098  0.1740
17848W        W34109   4.201  16.036  14.584 -0.2147  0.0525 -0.3636
17849W        W34110   8.857  11.195  13.643  0.2238  0.2318  0.1724
17850W        W34111   6.479  18.780  12.823 -0.1471  0.0548  0.2526
17851W        W34112  18.095   2.098   2.477  0.2174 -0.3406 -0.2604
17852W        W34113  15.466   5.981   0.454  0.0842 -0.0582 -0.1644
17853W        W34114   7.895   1.810  14.304  0.0001 -0.3898 -0.0217
17854W        W34115  13.785   6.029  10.351  0.1883  0.0069  0.0825
17855W        W34116   8.358   2.975  11.315  0.3827 -0.2585  0.2215
17856W        W34117   3.973  11.621   0.528  0.0296 -0.0049  0.0814
17857W        W34118   6.388  17.832  14.534 -0.0292 -0.0156  0.3113
17858W        W34119  16.365  17.054   1.934 -0.0043  0.2488  0.1636
17859W        W34120  10.606  14.439  11.195  0.0564  0.2581 -0.0041
17860W        W34121  11.261   7.926  13.714  0.2250 -0.1638 -0.0849
17861W        W34122   5.648   2.270  14.316 -0.1769 -0.2471 -0.3273
17862W        W34123  15.892  18.544   4.394  0.0341  0.0495  0.0131
17863W        W34124   4.162   7.860  13.127 -0.1717  0.1745 -0.0403
17864W        W34125   5.449   3.892  13.127  0.1776  0.0458  0.1611
17865W        W34126  16.321   2.575   2.225 -0.0710 -0.1639 -0.1869
17866W        W34127   2.557  13.483   1.829  0.0457  0.2996 -0.0473
17867W        W34128  14.380   2.154   4.265 -0.4981  0.1235  0.1678
17868W        W34129  16.988   9.726   5.206 -0.0529  0.1054  0.0943
17869W        W34130  17.427   7.672   1.845 -0.1927  0.2659  0.2332
17870W        W34131   2.488   8.570  12.585  0.1367 -0.2892  0.2036
17871W        W34132  16.951   9.194   1.796  0.0151  0.3581  0.1348
17872W        W34133   7.099   8.249  12.471  0.0613 -0.0053  0.1865
17873W        W34134   2.609   3.579   3.773  0.1791 -0.0062  0.0312
17874W        W34135   0.271   0.941  10.729 -0.0164 -0.1350  0.0929
17875W        W34136   4.855   5.095  10.117 -0.1216 -0.1630  0.3505
17876W        W34137   1.885   6.192   1.192  0.1620  0.2307  0.1414
17877W        W34138  12.188   1.360  10.736 -0.0310  0.4274 -0.1435
17878W        W34139  11.336   8.950   3.014 -0.3055 -0.1904  0.1090
17879W        W34140  16.262  18.594   0.579 -0.1431  0.0006  0.0276
17880W        W34141   6.347   6.002   0.096 -0.3121  0.1915 -0.0540
17881W        W34142   9.975  14.132  10.582 -0.2616 -0.1620  0.3356
17882W        W34143   7.730   6.719   4.382  0.0662 -0.0643 -0.2624
17883W        W34144  12.618  11.585   5.363 -0.2461  0.1465 -0.2083
17884W        W34145   4.242  13.228   0.003  0.0251 -0.1075  0.0632
17885W        W34146  11.594  12.368  11.681 -0.1345  0.1659 -0.2453
17886W        W34147   5.250   0.527  11.658 -0.1031 -0.0293 -0.2195
17887W        W34148   0.017  11.991   5.449 -0.2219  0.2908  0.6045
17888W        W34149   4.380   6.253  13.235 -0.2039 -0.1991  0.0965
17889W        W34150  19.447  16.774   1.122 -0.4248  0.1758  0.1618
17890W        W34151   4.281  12.599   3.490 -0.0527  0.4302  0.0799
17891W        W34152   3.462  14.095  13.207  0.2399  0.0591  0.1615
17892W        W34153  16.255   8.170  12.639  0.0479 -0.0332 -0.0509
17893W        W34154  18.921   9.984   4.176  0.2300 -0.0212  0.0709
17894W        W34155   7.126   6.314   2.894  0.0289  0.2980  0.0811
17895W        W34156   8.638   7.420  14.475 -0.1742  0.4252  0.0697
17896W        W34157  10.729  10.806  13.184 -0.3818  0.2374 -0.5202
17897W        W34158  15.654  16.757   3.937  0.0203 -0.2287  0.0728
17898W        W34159   8.832  12.561   1.171 -0.2302  0.3674  0.0357
17899W        W34160  18.355   2.504   5.628 -0.0653 -0.1663  0.0122
17900W        W34161   5.999   5.821  14.472 -0.1256  0.3247  0.0334
17901W        W34162   5.253   6.421   9.712 -0.0318  0.0189  0.2967
17902W        W34163  11.633   9.692   2.131  0.0257  0.2854  0.2588
17903W        W34164   9.866   8.484   4.491  0.0486 -0.2116 -0.1106
17904W        W34165   4.621  17.383  14.617  0.2774 -0.2855 -0.2807
17905W        W34166   2.943   3.735   0.109 -0.0839 -0.4880 -0.2783
17906W        W34167  10.347  12.754   4.567  0.3178  0.0512  0.2566
17907W        W34168  10.014  18.347  11.567  0.1389  0.0124  0.4417
17908W        W34169  17.586  12.300  13.024  0.2327  0.2520  0.0604
17909W        W34170   1.923  11.346   3.392  0.1390 -0.2024  0.1886
17910W        W34171  15.018   1.954   2.095 -0.2436  0.2715  0.0717
17911W        W34172  10.622  12.345  12.145 -0.0006 -0.3477  0.1221
17912W        W34173  19.230  18.128  10.779  0.0147 -0.1650 -0.1522
17913W        W34174   5.288  19.268  12.170 -0.0533  0.1134  0.3889
17914W        W34175   0.200  10.708  12.565  0.0558 -0.1945 -0.1127
17915W        W34176   5.355  10.093  10.359 -0.1199  0.0156 -0.3548
17916W        W34177  12.689  18.645  10.449  0.0307  0.2588  0.1563
17917W        W34178  15.512  10.134  11.860 -0.0406 -0.2172  0.1489
17918W        W34179   9.922  19.426   4.626 -0.0748  0.0747 -0.1028
17919W        W34180   3.963  14.598   2.364  0.0868 -0.3191 -0.2713
17920W        W34181   2.651  19.349  14.126  0.0917 -0.0002  0.0182
17921W        W34182  13.776   4.309  12.633  0.0586  0.4098  0.1304
17922W        W34183   4.601   6.357   3.543  0.3830 -0.0475  0.0162
17923W        W34184  14.514  10.115  12.218 -0.0654 -0.3168 -0.2955
17924W        W34185   9.464  17.275  11.111  0.1434  0.2758 -0.0195
17925W        W34186   9.589  15.509   0.619 -0.2883 -0.3480 -0.0857
17926W        W34187   0.211   8.109   3.055  0.0917 -0.0537  0.0164
17927W        W34188   3.046   4.753   2.782  0.1631 -0.2284  0.0490
17928W        W34189  13.568  11.614   2.187  0.2264  0.0472  0.0943
17929W        W34190  11.297  18.642   3.102 -0.0324 -0.0747  0.0129
17930W        W34191  17.145  18.888   4.332 -0.1766 -0.0382 -0.1701
17931W        W34192   5.127   8.483   1.638 -0.2131  0.1788  0.1171
17932W        W34193  14.144   1.653  14.099 -0.1049  0.3112  0.1417
17933W        W34194  16.344  11.682   4.461 -0.4405 -0.2512  0.0013
17934W        W34195   1.983  17.250   3.237 -0.0901 -0.2529  0.0855
17935W        W34196   9.974  15.840  13.357 -0.0142  0.1543  0.0717
17936W        W34197   6.213   0.205   3.521  0.0858 -0.0233 -0.1558
17937W        W34198  13.143  14.992   4.477 -0.2091 -0.5090 -0.2540
17938W        W34199   9.773   5.807   2.872  0.2110 -0.2288 -0.3596
17939W        W34200  13.084   6.733   0.239  0.2947  0.1916  0.1428
17940W        W34201  17.845  11.733   1.142 -0.0918  0.2507 -0.5106
17941W        W34202   9.745  16.113   3.123  0.0022  0.1141  0.0171
17942W        W34203   7.343   2.322  10.778 -0.5807 -0.1551  0.1408
17943W        W34204   8.691   9.348  11.573  0.2228 -0.3205 -0.0894
17944W        W34205  13.917   0.950   1.204 -0.0870 -0.2162 -0.3222
17945W        W34206  17.501   1.585   4.179  0.2641 -0.4203 -0.3894
17946W        W34207  16.353   7.618   3.438 -0.0947 -0.2606  0.0366
17947W        W34208  13.825  19.162   1.205 -0.1210 -0.0172 -0.0852
17948W        W34209  17.298  15.016  10.243 -0.1444  0.0808  0.1365
17949W        W34210  14.726  18.906   3.621 -0.1996  0.3562 -0.2183
17950W        W34211   3.723  17.207  10.417 -0.4175  0.0340 -0.2370
17951W        W34212  11.452   8.784   0.413  0.0315  0.2652 -0.0284
17952W        W34213   5.382   3.492  12.160 -0.2121  0.3163  0.2324
17953W        W34214  13.225  12.298   1.052  0.3229  0.0690  0.0429
17954W        W34215  18.025  10.573  10.954 -0.0592  0.3474 -0.1600
17955W        W34216  18.385   0.096  11.699 -0.1519  0.3018  0.0345
17956W        W34217   9.947  17.743  10.378 -0.2508 -0.0591 -0.0659
17957W        W34218   2.444   0.525  10.865  0.0515 -0.0699  0.0345
17958W        W34219  15.015   4.097   0.062  0.3135 -0.2324 -0.3537
17959W        W34220   4.721   9.628  12.276 -0.1396  0.2992 -0.1171
17960W        W34221   8.463   9.084   3.634 -0.1259 -0.1029 -0.1811
17961W        W34222   0.687   5.217  12.978 -0.3633 -0.1131 -0.2558
17962W        W34223  15.899   1.401   2.131 -0.2378  0.3069  0.3784
17963W        W34224   5.208   3.690  10.108 -0.0219 -0.1301 -0.0654
17964W        W34225   0.804  12.054   3.801 -0.2005 -0.1834  0.4357
17965W        W34226   6.602  14.691   4.809  0.0730  0.0427 -0.1293
17966W        W34227   8.717  18.601   2.632 -0.1103 -0.1300  0.0505
17967W        W34228  17.475  15.236   0.913  0.2384  0.0006  0.2814
17968W        W34229  13.944   8.666  12.288  0.1336 -0.0464  0.0726
17969W        W34230  13.386  11.128   5.369 -0.1843 -0.0454 -0.2149
17970W        W34231  15.253  14.436  12.089  0.2142 -0.0170 -0.0514
17971W        W34232   4.662   3.332   1.453 -0.1601 -0.1940 -0.0144
17972W        W34233   3.658   4.907   1.629 -0.1320  0.0230 -0.1526
17973W        W34234   5.764  10.207  13.212  0.0495 -0.3157  0.0232
17974W        W34235   9.152  11.945   1.875  0.1145  0.2714 -0.0292
17975W        W34236  16.474   2.286   1.242 -0.3024 -0.3261 -0.0296
17976W        W34237  18.892  18.214  13.274  0.3369 -0.0731  0.1864
17977W        W34238   9.888   1.885  11.192 -0.0007  0.0453 -0.0436
17978W        W34239  18.704   1.188  10.883 -0.1988  0.1403 -0.1951
17979W        W34240   6.348  11.108  14.443  0.1565  0.1126  0.0276
17980W        W34241   2.060   2.466   1.363  0.2176  0.0367 -0.1167
17981W        W34242   2.670  14.971  11.891  0.0122  0.1583 -0.0026
17982W        W34243  11.567  14.005  14.695 -0.0267 -0.0342 -0.1101
17983W        W34244   3.947  13.272  13.391  0.1141 -0.0360  0.2628
17984W        W34245   2.138  13.036   3.212  0.1261 -0.2433  0.1528
17985W        W34246   0.093  13.673   0.999 -0.2654  0.0455  0.2394
17986W        W34247   6.383  14.616  10.900 -0.4659  0.0565  0.1489
17987W        W34248   0.632   9.289  14.776 -0.1647 -0.0109  0.1896
17988W        W34249  18.221  11.190   4.511 -0.0226 -0.3064 -0.1419
17989W        W34250   1.307   9.196   0.938 -0.1099  0.3003  0.0140
17990W        W34251   3.987   3.465  14.139  0.0855  0.0399 -0.4062
17991W        W34252  13.432   1.838   3.248 -0.1022  0.0281 -0.0304
17992W        W34253  18.149   0.880   0.867  0.0651  0.1660 -0.1800
17993W        W34254  13.451  10.657  11.520 -0.0590 -0.2475  0.3120
17994W        W34255   8.334  19.479   3.702  0.1652  0.2167 -0.1993
17995W        W34256   8.889  14.525  12.784 -0.3372  0.3325  0.1476
17996W        W34257  12.209   2.881  10.261  0.0826  0.1201 -0.4931
17997W        W34258  13.473   5.650   2.628 -0.0532 -0.0795  0.0535
17998W        W34259  13.132   5.166   3.388 -0.1420  0.0522 -0.0430
17999W        W34260   0.465  18.401   1.269  0.2293 -0.0015 -0.2278
18000W        W34261  11.541   6.140  10.133 -0.1392  0.1362 -0.4298
18001W        W34262   9.632   1.871   3.963  0.0071 -0.0478 -0.1510
18002W        W34263   6.417  18.585  10.199  0.1207 -0.1967  0.1820
18003W        W34264   5.406  18.507   0.616 -0.1878  0.0502 -0.0663
18004W        W34265  15.631  10.554  13.261  0.1014  0.0211 -0.3311
18005W        W34266   5.128  16.628   2.988  0.1435  0.1470 -0.0357
18006W        W34267   2.438  11.068  10.795 -0.0493 -0.1667  0.0410
18007W        W34268   4.848  18.150   2.802 -0.1651 -0.0193  0.3241
18008W        W34269  11.719   2.435   1.298  0.2209 -0.0684  0.0306
18009W        W34270  12.421  16.446   0.615 -0.1391 -0.0234 -0.2595
18010W        W34271  19.398  13.082  12.610  0.2425  0.1412  0.0116
18011W        W34272   2.521  17.666   4.608  0.0203 -0.0115  0.4035
18012W        W34273  18.936   4.909   2.250  0.0069 -0.0244 -0.0297
18013W        W34274   5.706   0.642   0.124 -0.0912 -0.2105  0.2553
18014W        W34275   7.992  11.051  11.204  0.0456  0.1802 -0.1026
18015W        W34276   5.005   0.723   0.923 -0.3046  0.1503  0.0678
18016W        W34277   5.162   1.090  10.099  0.0517  0.3439 -0.3089
18017W        W34278   2.393  10.423   3.688 -0.2405 -0.1998 -0.0860
18018W        W34279  12.845   2.738  11.053  0.3261  0.1669 -0.0782
18019W        W34280   8.715   5.833   4.031 -0.0427 -0.2222  0.1453
18020W        W34281   1.458  18.733  12.968 -0.2014 -0.1182  0.0133
18021W        W34282  11.218  17.361   3.267  0.0922  0.0259 -0.2228
18022W        W34283   5.261   8.801  11.418 -0.0683 -0.0283 -0.0430
18023W        W34284   5.507  12.037   4.921 -0.0904  0.2054  0.2149
18024W        W34285   0.137   1.405   1.988 -0.1004  0.2208  0.1182
18025W        W34286   0.474  10.032   4.161 -0.2978 -0.1024  0.1754
18026W        W34287  13.940   2.406   5.089 -0.1197 -0.0687 -0.1599
18027W        W34288   0.712  14.644  12.384  0.3166  0.2327  0.4409
18028W        W34289   9.353  18.704  14.538 -0.5151 -0.1187 -0.1285
18029W        W34290   6.902  10.356  10.881  0.1636  0.2483 -0.0333
18030W        W34291   0.183   8.850   2.343 -0.1460 -0.1321  0.1672
18031W        W34292   6.349   4.940  14.419  0.1049 -0.0998  0.0468
18032W        W34293  10.616   5.641   0.569  0.1683  0.4321  0.2291
18033W        W34294  13.108  10.703   1.276  0.1130 -0.1901  0.1216
18034W        W34295  10.088   2.295   1.285  0.3067  0.2546 -0.3706
18035W        W34296   5.404   2.720   2.515  0.1074  0.0440  0.3911
18036W        W34297   3.133  16.060   4.389  0.2728  0.0070  0.1320
18037W        W34298   4.698   0.477   1.334  0.0339 -0.1603 -0.1852
18038W        W34299   5.456  12.259   0.074 -0.1315 -0.1141 -0.3117
18039W        W34300  11.716  11.780   3.397 -0.1533  0.1304 -0.2554
18040W        W34301   2.611   0.735   3.305  0.1912  0.0844 -0.1566
18041W        W34302  14.889  15.614   0.815  0.2113 -0.1223  0.2763
18042W        W34303   7.883  18.901   4.608 -0.0924 -0.1613 -0.3072
18043W        W34304  17.947  12.319   0.409 -0.0072  0.2695  0.1047
18044W        W34305   1.974   1.478  10.472 -0.1794  0.0530  0.2082
18045W        W34306  11.568   0.884   0.888  0.2009 -0.3300 -0.0742
18046W        W34307  15.428   2.503  11.098  0.0364  0.1828 -0.1579
18047W        W34308   4.161  10.988  13.967  0.6776 -0.1604  0.1766
18048W        W34309  14.298   3.178   4.960  0.1865  0.0092  0.3473
18049W        W34310  19.320   9.865  12.397  0.2500 -0.1467 -0.0260
18050W        W34311   4.906  19.135  12.634  0.1584  0.1146 -0.0940
18051W        W34312   0.247   3.309   3.967 -0.1112 -0.1938 -0.4899
18052W        W34313   3.775   2.545  11.685 -0.3109  0.1989 -0.1829
18053W        W34314  17.700   1.260  10.296  0.0083 -0.1928  0.0444
18054W        W34315  15.144  12.512   0.171  0.1027  0.3378 -0.2239
18055W        W34316  14.222   1.693   3.054 -0.3584  0.0318  0.1698
18056W        W34317   8.903  11.732   3.835 -0.1221 -0.2099  0.1115
18057W        W34318  16.972   7.782  10.871 -0.2037 -0.1344 -0.1403
18058W        W34319   9.454   3.854  12.375 -0.3166  0.0588  0.3468
18059W        W34320  18.915  17.445   1.630  0.0264  0.0887 -0.1976
18060W        W34321  11.299  15.365   4.132  0.2492 -0.3245  0.1828
18061W        W34322  14.410  12.968   2.100  0.2033  0.1980 -0.3588
18062W        W34323  17.029  11.507   3.802  0.1194 -0.0679 -0.0661
18063W        W34324   4.875  11.959   4.419 -0.2231 -0.0094 -0.0408
18064W        W34325   3.909   3.808  14.533  0.2410 -0.2254 -0.0448
18065W        W34326  12.865  12.670   3.941 -0.2885  0.1183  0.5216
18066W        W34327  16.904   0.103   4.039  0.3313 -0.0744  0.0608
18067W        W34328   8.897  18.856   3.947  0.1492 -0.1927 -0.4465
18068W        W34329  14.733  16.413  12.026  0.2086  0.1178 -0.0484
18069W        W34330  11.294  11.603  13.138 -0.0221  0.3185  0.5264
18070W        W34331  16.048   7.991  12.218  0.0546 -0.2166  0.2458
18071W        W34332  17.808   5.415  12.855  0.1834 -0.0820 -0.1316
18072W        W34333  15.654  17.620   1.285  0.4511  0.3096  0.1989
18073W        W34334   5.606   4.447  12.693 -0.0476  0.1799 -0.0430
18074W        W34335  17.899   9.966  11.470 -0.1443  0.0636  0.1584
18075W        W34336  14.594   4.266   2.354 -0.0449  0.1441  0.2008
18076W        W34337  12.529  11.186   2.845  0.0750  0.2889  0.0928
18077W        W34338   1.871  16.981  11.449  0.0277 -0.0333  0.0361
18078W        W34339   8.420   5.159  11.735 -0.0178  0.2268  0.0296
18079W        W34340   3.012   7.267  10.527 -0.1055 -0.0265 -0.2466
18080W        W34341  14.772   3.531   3.139 -0.0261  0.2257 -0.2722
18081W        W34342   1.775   1.281  11.081 -0.0623 -0.2949  0.1303
18082W        W34343   8.086  14.412   0.569  0.2916  0.0469 -0.0015
18083W        W34344  17.261  15.329  12.737  0.3694  0.1561 -0.1404
18084W        W34345  13.529   9.195  14.278  0.4831 -0.3585 -0.1743
18085W        W34346  18.385  14.661  11.512  0.2732  0.2276 -0.0365
18086W        W34347   4.756  13.738   0.511 -0.1750 -0.3133 -0.3048
18087W        W34348  15.939  12.564  11.159 -0.1997  0.1133  0.2042
18088W        W34349   4.219   7.542  13.708  0.1067  0.3413 -0.1711
18089W        W34350   9.055  11.289  12.718  0.0003  0.4403  0.1797
18090W        W34351   3.650   8.811   3.347  0.0664 -0.1134 -0.1292
18091W        W34352   7.289  14.155   4.036  0.1410 -0.0986  0.0414
18092W        W34353   4.431   1.606  14.584 -0.2626 -0.0114  0.0794
18093W        W34354   5.560  12.819   3.416 -0.2442  0.0360  0.2553
18094W        W34355  14.612   2.273  13.245 -0.1807 -0.4408  0.0237
18095W        W34356  12.344  15.126  11.974 -0.2014 -0.0798 -0.1053
18096W        W34357   8.826   7.939   1.088  0.0806  0.1699  0.1220
18097W        W34358   1.606  13.995   0.237  0.1758 -0.2320 -0.0002
18098W        W34359   9.886   3.235   2.787 -0.0582  0.1623  0.2955
18099W        W34360  14.749   4.605  13.064 -0.2475  0.4217 -0.3456
18100W        W34361   5.779  11.657  14.153  0.3238 -0.0060  0.2998
18101W        W34362  11.578   3.871   0.581  0.0296  0.1115 -0.0292
18102W        W34363  12.694  15.747   0.349  0.0397  0.1762 -0.1556
18103W        W34364   8.069  11.521  13.838  0.1986 -0.2425  0.3637
18104W        W34365  16.871  18.410   0.658  0.1319  0.1204  0.2372
18105W        W34366  10.430   8.975   3.092 -0.1168 -0.2441  0.0839
18106W        W34367   1.101   6.994  11.854  0.3238 -0.0786 -0.0572
18107W        W34368  16.687  18.618  13.889 -0.0192 -0.0139  0.0115
18108W        W34369   7.821   1.380  14.727 -0.2833 -0.2478  0.1465
18109W        W34370   3.794  14.481   0.672  0.1700  0.0548  0.2081
18110W        W34371  19.125  14.856   5.601  0.0716 -0.0240 -0.0864
18111W        W34372   5.497   5.940   8.678  0.2936 -0.2031 -0.1521
18112W        W34373   9.115   6.956   9.961  0.0196  0.1012 -0.0090
18113W        W34374  10.098  14.489   1.539 -0.1124  0.2727  0.0822
18114W        W34375  15.506   7.227  13.248  0.0351  0.1497 -0.0612
18115W        W34376  17.233  19.378   2.207  0.3251  0.3532  0.0672
18116W        W34377   9.041  15.767  14.105 -0.3369  0.1733  0.0541
18117W        W34378  14.060   7.270  14.032  0.0642 -0.2501  0.1183
18118W        W34379   6.525  10.313  11.190 -0.0213 -0.0957  0.3321
18119W        W34380   8.131   3.946  11.357 -0.1862 -0.1154 -0.0868
18120W        W34381  14.742   9.824  10.871 -0.0773 -0.1377 -0.4043
18121W        W34382  13.463  16.166  12.214  0.3087  0.0993  0.0511
18122W        W34383   2.787   7.879   3.346  0.1405 -0.2861  0.0290
18123W        W34384  11.856  15.851   0.840 -0.1140  0.0834  0.1105
18124W        W34385  11.239  19.135  13.585 -0.0261 -0.1248  0.2988
18125W        W34386  15.042  14.618  14.158  0.0211 -0.0584 -0.0954
18126W        W34387  19.467  13.716  12.318 -0.0770 -0.4557 -0.1584
18127W        W34388  15.116  11.901  11.855 -0.3038  0.3874 -0.1775
18128W        W34389   2.521  10.388   0.843 -0.1467 -0.0217  0.0989
18129W        W34390  10.970   6.546   3.354 -0.0975  0.2176  0.0104
18130W        W34391   4.177   8.942   0.264  0.2093 -0.1175  0.1466
18131W        W34392  14.210   4.409   2.069 -0.1557 -0.0564 -0.2316
18132W        W34393  15.174   8.412  10.721 -0.0243 -0.2017  0.4285
18133W        W34394  18.220   4.310   1.962  0.0189 -0.0866 -0.1736
18134W        W34395  12.529  11.732   2.314 -0.1142 -0.2094 -0.0888
18135W        W34396  12.319  12.253  14.249 -0.0810  0.2927 -0.1469
18136W        W34397   2.567   1.703   3.895  0.1039  0.1695 -0.1616
18137W        W34398  10.516   2.044   1.064  0.0479 -0.2073  0.1433
18138W        W34399   1.143  17.254   2.682  0.1591  0.3510 -0.0713
18139W        W34400   1.630   0.334  11.308  0.1906  0.1442  0.1799
18140W        W34401  12.678   4.896   2.476  0.2651  0.2889  0.2148
18141W        W34402  19.063   1.416  11.145  0.0432 -0.2603 -0.2251
18142W        W34403  15.323  15.707   0.443 -0.0409  0.2278  0.1443
18143W        W34404  10.853  12.295  14.092 -0.1189 -0.0463  0.0519
18144W        W34405   3.531  16.651  12.900  0.0452 -0.3153  0.2117
18145W        W34406  11.985  16.762   2.887  0.0344  0.1452 -0.1844
18146W        W34407  17.058  11.006   5.661  0.0943  0.4074 -0.0381
18147W        W34408  14.375  14.045   3.442  0.0637  0.1021  0.1028
18148W        W34409   1.474   5.190   4.510  0.4258 -0.0961 -0.0313
18149W        W34410  11.353  16.047   0.720  0.0514 -0.0110 -0.2622
18150W        W34411  12.284  18.335  11.323  0.0071 -0.2767 -0.1194
18151W        W34412   7.379   0.559  12.493 -0.0641  0.1037 -0.2852
18152W        W34413  12.144   1.523  13.366 -0.0921  0.0232 -0.2436
18153W        W34414   4.458  17.251  14.207  0.1116 -0.0219  0.0319
18154W        W34415   6.070   6.793   0.499 -0.2429 -0.0104  0.0724
18155W        W34416  18.764   3.488  11.142  0.2985 -0.4462  0.0145
18156W        W34417   8.864   7.844  10.718  0.1367  0.0136 -0.0249
18157W        W34418   7.543  10.106  12.162 -0.0737 -0.0378  0.0558
18158W        W34419  10.325  10.468  12.260 -0.2211 -0.1517 -0.1941
18159W        W34420  16.879  11.933   0.945  0.1820 -0.2550  0.1400
18160W        W34421  17.752   3.914  12.322 -0.2668 -0.0661  0.1516
18161W        W34422   6.920   4.125   1.795  0.0809 -0.0515  0.1042
18162W        W34423  15.551  10.891  13.828 -0.0134  0.1423 -0.0887
18163W        W34424  10.704  10.371  11.362 -0.1130  0.1358  0.1086
18164W        W34425  12.075   2.246  10.792 -0.0661 -0.0482 -0.3447
18165W        W34426  11.383   1.542   4.588  0.0886 -0.0507  0.1563
18166W        W34427   0.737   0.336  11.311  0.1119 -0.0325  0.0783
18167W        W34428  13.183  13.531  12.481 -0.2143  0.2708 -0.1665
18168W        W34429  12.226   0.244   0.845  0.2848 -0.1017  0.5138
18169W        W34430   4.281  17.405  13.104  0.4400 -0.2420 -0.2216
18170W        W34431  13.333   9.049   1.631 -0.1433  0.3901 -0.0735
18171W        W34432  10.039   6.897  12.726  0.1014  0.2970 -0.0559
18172W        W34433   0.173   2.183  10.809 -0.3167 -0.2146  0.3830
18173W        W34434  18.744   2.579   4.465  0.0737 -0.0614  0.3215
18174W        W34435  12.320   1.153  12.415 -0.1229 -0.1099 -0.1865
18175W        W34436  18.472   7.360   1.686 -0.1385  0.1066  0.1212
18176W        W34437  12.640  13.886  13.602 -0.3958 -0.2753  0.3556
18177W        W34438   8.844  10.334  12.540 -0.2600 -0.1244  0.0833
18178W        W34439   5.067  18.439  13.158  0.0584 -0.2094 -0.1746
18179W        W34440   4.531   4.391   0.604  0.0135 -0.0114 -0.0806
18180W        W34441   0.614   8.477   2.148 -0.2506 -0.0513  0.2862
18181W        W34442  13.748   6.290   1.250 -0.0073  0.2459 -0.0441
18182W        W34443   1.698  12.200  14.319  0.1454  0.1391  0.0876
18183W        W34444   2.245   1.540  14.607  0.0333  0.2975  0.0500
18184W        W34445  15.453  11.575  11.818 -0.1842 -0.2093  0.1923
18185W        W34446   1.237   2.679   0.328  0.0974 -0.1143  0.1817
18186W        W34447   1.068  15.667   5.583  0.2410  0.1436  0.0693
18187W        W34448   7.790  18.323  14.429  0.0867  0.2066 -0.1132
18188W        W34449   5.634   0.788   3.297  0.2610  0.0616  0.0216
18189W        W34450   0.354  18.079  11.124 -0.2694 -0.1223 -0.2187
18190W        W34451  12.275  13.655  14.086 -0.2186  0.0367 -0.1483
18191W        W34452   4.921   8.228   2.853 -0.0823  0.0490  0.4466
18192W        W34453  10.075  13.322   1.021 -0.1446  0.2084 -0.2346
18193W        W34454  15.864  13.761   4.161  0.2182 -0.1731  0.1392
18194W        W34455   0.196   1.161   0.513  0.4367  0.2388  0.2055
18195W        W34456  16.602   3.706   0.344 -0.1130 -0.0465 -0.0115
18196W        W34457   5.846  10.462   4.840  0.4033  0.0348 -0.1827
18197W        W34458  13.979   2.322   1.710  0.0622  0.1421  0.0350
18198W        W34459   3.321   4.069  13.556  0.0211  0.1108 -0.1434
18199W        W34460  18.559   8.807   3.104  0.0452  0.1220  0.2375
18200W        W34461   8.125   2.373   1.154  0.2405  0.1680  0.2620
18201W        W34462  18.948  17.879   4.540 -0.1800  0.1041 -0.4074
18202W        W34463   8.476  11.657  10.828  0.2907  0.1288 -0.1694
18203W        W34464   5.520  17.260   1.299  0.3514 -0.2468  0.0857
18204W        W34465  14.221   7.816  11.371  0.2285 -0.2160  0.1488
18205W        W34466  14.420   8.530   1.817 -0.3123 -0.1442 -0.0546
18206W        W34467   8.081  18.365  12.744 -0.1918 -0.0843  0.0830
18207W        W34468  14.168   9.066  12.687  0.1615 -0.0538  0.2093
18208W        W34469  12.473   0.494   1.300  0.1552 -0.0539 -0.0824
18209W        W34470  15.517  18.203   1.219 -0.1940  0.3692  0.2077
18210W        W34471  12.021   2.250   3.162 -0.0712 -0.1215 -0.0237
18211W        W34472  13.651  17.800   0.224  0.0663 -0.0871  0.0264
18212W        W34473  12.523   7.489  10.939 -0.2044  0.0363 -0.1486
18213W        W34474   2.000   6.932   5.101 -0.1673 -0.1259  0.0857
18214W        W34475   0.283  12.346  14.118 -0.1973  0.2039  0.0354
18215W        W34476   6.013  18.632  10.516 -0.4233  0.2300 -0.0407
18216W        W34477   2.252  17.384   1.880  0.1856  0.1573  0.1517
18217W        W34478   1.790   8.437  11.480  0.0217  0.1541 -0.1589
18218W        W34479  14.959  11.240   2.870  0.1419  0.3296 -0.2986
18219W        W34480   9.806  14.047  11.575 -0.1267 -0.0992 -0.1699
18220W        W34481   3.917  16.911  13.155  0.1724  0.1577  0.2042
18221W        W34482   0.668  14.958   2.210  0.1937 -0.0914 -0.1765
18222W        W34483   4.014  18.519   1.303  0.2231 -0.2633  0.0899
18223W        W34484   1.873   7.636  13.935 -0.1680 -0.0963  0.1955
18224W        W34485   8.663   0.946  14.000 -0.3953 -0.2113 -0.0737
18225W        W34486   0.908   3.019   3.167 -0.0295 -0.1571 -0.2273
18226W        W34487  14.654   2.812   2.251 -0.1637 -0.1211  0.0073
18227W        W34488  15.236  12.186   2.947 -0.2627  0.1084  0.0433
18228W        W34489  13.213  17.202   4.769  0.0080 -0.0299  0.1929
18229W        W34490   9.169  10.740  12.329 -0.0197 -0.2073 -0.2395
18230W        W34491   6.163   7.723   3.859 -0.0182  0.0718  0.2087
18231W        W34492  12.497  10.330  11.972 -0.0711  0.2674  0.0063
18232W        W34493   6.504  12.767  13.879  0.0308  0.0535 -0.1021
18233W        W34494  11.041   1.428   2.567 -0.1089 -0.1503 -0.0963
18234W        W34495  11.668  13.543  14.084  0.0372 -0.0552 -0.1843
18235W        W34496   6.095   1.592   1.875  0.1691  0.2039 -0.1711
18236W        W34497   6.844  18.429   1.632  0.1762  0.1419  0.1818
18237W        W34498  18.480  15.620   0.929  0.1344 -0.2097 -0.1550
18238W        W34499  12.716   2.217  12.518  0.0255  0.0108 -0.1132
18239W        W34500   3.371  18.534  13.227 -0.1085 -0.0334  0.0544
18240W        W34501  14.624   4.648  12.075  0.2764 -0.1808  0.0511
18241W        W34502  13.245  17.737   3.148 -0.2489 -0.1335  0.0578
18242W        W34503   1.541  10.314  11.016  0.2005 -0.0047 -0.0876
18243W        W34504   4.305  16.353  14.114  0.1074  0.1106 -0.1235
18244W        W34505   0.705   7.673  11.469  0.1144  0.1009 -0.2481
18245W        W34506  18.075  17.519  11.354 -0.0657  0.2912  0.0433
18246W        W34507  16.446  18.786  11.774 -0.0826  0.0477  0.0590
18247W        W34508  17.654  14.576   5.801 -0.0649  0.1874 -0.4371
18248W        W34509   1.363  18.969  13.421  0.1080  0.0552 -0.1477
18249W        W34510   1.065   5.211  10.033  0.2763 -0.0165 -0.3179
18250W        W34511   3.933   2.503   2.873  0.0979 -0.0053 -0.2006
18251W        W34512  13.448  14.399   1.475 -0.2793  0.1234 -0.1789
18252W        W34513   8.243  10.918  10.556  0.2963  0.1775 -0.2424
18253W        W34514  11.998   8.893   5.146 -0.1790  0.1287 -0.0845
18254W        W34515  15.170   3.428   4.191  0.2198  0.0262 -0.1412
18255W        W34516   1.481   6.425  14.231 -0.1367 -0.2360  0.0121
18256W        W34517  14.035  19.460   5.419 -0.1164  0.0169 -0.2603
18257W        W34518   9.960  10.764   5.208  0.2085 -0.0487 -0.1551
18258W        W34519  11.375  14.753   0.375 -0.0227  0.4605  0.3090
18259W        W34520   0.508   1.671   4.533  0.1456 -0.0507 -0.1480
18260W        W34521   7.101   0.252   9.011  0.1457  0.1570 -0.0968
18261W        W34522  11.520  11.424   2.493  0.1527 -0.0400  0.1011
18262W        W34523   7.721  17.392   1.105  0.0573 -0.1150 -0.3279
18263W        W34524  14.166   6.706  10.659 -0.1375  0.1023  0.0256
18264W        W34525   3.217   8.062   1.740  0.0168  0.0650 -0.0174
18265W        W34526  18.196  18.116   3.797  0.1436  0.1459  0.3384
18266W        W34527   7.994   0.198  13.959  0.3223 -0.2972 -0.2160
18267W        W34528   1.841  16.887   2.901 -0.0806 -0.3436 -0.0147
18268W        W34529   0.004  16.792   4.015  0.2575 -0.1907 -0.0926
18269W        W34530  10.383  10.254  12.978  0.3164 -0.1503 -0.0864
18270W        W34531  17.054   5.450   4.905 -0.1321 -0.0533  0.1468
18271W        W34532   0.869  14.044   1.409 -0.0947 -0.1866 -0.0331
18272W        W34533  17.627   2.195  13.780  0.2818 -0.0430 -0.2306
18273W        W34534   9.638  18.190   0.811 -0.4403 -0.2238 -0.1287
18274W        W34535   3.098  18.811  10.978 -0.1191 -0.1600  0.0329
18275W        W34536  10.201  15.251  14.501 -0.1050  0.2254 -0.1055
18276W        W34537  12.850   2.867   0.011 -0.3141 -0.2704  0.0454
18277W        W34538   3.141   4.539   1.164  0.0698 -0.2399 -0.3013
18278W        W34539  10.762   5.037   0.728 -0.1306  0.1724 -0.2132
18279W        W34540  13.370  10.687  12.358 -0.1576 -0.0498 -0.0607
18280W        W34541   0.107  18.574   4.009 -0.1280 -0.0169 -0.1738
18281W        W34542  15.784   9.460  11.950  0.0523  0.2388 -0.1655
18282W        W34543  15.647  14.602  14.103 -0.1965 -0.2125 -0.1643
18283W        W34544   5.657   1.485  11.495  0.1330  0.2604  0.1029
18284W        W34545   1.081  12.651   4.456  0.1615 -0.2835  0.2408
18285W        W34546   1.706  15.201  11.926 -0.2533 -0.0793  0.1462
18286W        W34547  18.230   7.565  12.097 -0.0779  0.3950  0.0703
18287W        W34548   7.769   0.478  13.439 -0.0495 -0.2154  0.0946
18288W        W34549   3.400   0.934  13.668 -0.1276  0.2047 -0.0450
18289W        W34550  18.654   6.804  12.451 -0.0083 -0.0158  0.0987
18290W        W34551  17.634  12.845  13.471 -0.3358 -0.0809  0.0442
18291W        W34552   3.003  16.480   5.401  0.2191  0.3107 -0.2119
18292W        W34553   7.478   3.805   2.603  0.0155  0.0712 -0.0928
18293W        W34554   6.165  17.907   1.239 -0.0202 -0.1088  0.1557
18294W        W34555  10.096  10.723  13.120 -0.1082  0.1475  0.1431
18295W        W34556  17.390   5.146   3.493 -0.2047 -0.0721  0.1745
18296W        W34557   5.243   2.886   3.782  0.0580  0.0786 -0.1982
18297W        W34558   5.182   0.059  12.571 -0.0857  0.1563 -0.0389
18298W        W34559   6.739  12.374   5.269 -0.1930 -0.1330 -0.2499
18299W        W34560   3.143   1.267  14.226  0.1315 -0.0597  0.1315
18300W        W34561  17.499  14.992   5.489 -0.1112  0.1418  0.0834
18301W        W34562   6.948   1.247  13.411 -0.0497  0.2556 -0.1360
18302W        W34563  12.315   6.118  11.799  0.2752 -0.0006  0.2497
18303W        W34564  16.073  15.005   2.485  0.1809  0.0194  0.0631
18304W        W34565  10.346   8.033   5.027  0.1194 -0.0336 -0.1268
18305W        W34566   4.278   4.252  14.461  0.1610 -0.2795 -0.0972
18306W        W34567  18.182   6.676   9.980  0.1918  0.1808 -0.0879
18307W        W34568   8.524   2.447   3.495  0.1305 -0.2758 -0.0215
18308W        W34569  14.426  11.396   2.229 -0.4199 -0.1018 -0.0388
18309W        W34570  12.036  11.138   2.726 -0.1504  0.2762  0.1043
18310W        W34571  12.489  16.841  12.214 -0.0193  0.1455  0.1844
18311W        W34572   1.576   7.858   3.911  0.0906 -0.0210 -0.1313
18312W        W34573  17.212  12.743  14.264 -0.2348  0.3931 -0.2000
18313W        W34574   5.387  18.851   4.480  0.0236  0.1902 -0.2446
18314W        W34575   9.392   2.983   1.919 -0.1845  0.2565 -0.2931
18315W        W34576  15.077  16.274   0.164  0.1350  0.1639 -0.2322
18316W        W34577  10.479   4.809  14.358  0.0506  0.1427  0.0733
18317W        W34578   3.448  17.324   0.374 -0.0926  0.1258  0.1021
18318W        W34579   0.440  10.366   2.445  0.3931  0.3267 -0.0670
18319W        W34580  11.100   5.146   1.576 -0.2480  0.0489 -0.1126
18320W        W34581  15.970  11.946  11.083 -0.0089  0.0308  0.0225
18321W        W34582  18.510  14.410   0.570 -0.0459 -0.2433  0.1826
18322W        W34583  18.480  17.814   4.653 -0.2273 -0.0421 -0.0423
18323W        W34584   3.965  17.979  10.052  0.1508  0.1847  0.2568
18324W        W34585   0.865  11.789   1.158 -0.1403  0.0730 -0.0479
18325W        W34586   5.786  12.439   5.059  0.0110 -0.0134 -0.1673
18326W        W34587   9.668   9.096  11.257 -0.3249  0.2144  0.1607
18327W        W34588  11.432  12.544   0.516  0.1304 -0.3563 -0.0707
18328W        W34589  16.716   8.322  12.763 -0.1234 -0.3859  0.2070
18329W        W34590   4.294  10.136  12.956 -0.0273  0.1375  0.3225
18330W        W34591   1.869   0.054   0.949 -0.0248 -0.2221  0.1717
18331W        W34592   9.348  11.572  14.185 -0.0720  0.0831  0.1974
18332W        W34593  13.989  10.951   2.008  0.1066 -0.0358  0.0749
18333W        W34594   2.100  10.098  14.300 -0.1550  0.1250  0.2011
18334W        W34595  13.410   0.086  14.740 -0.0069 -0.2020  0.2928
18335W        W34596   5.021  17.067   3.681 -0.0177  0.0384 -0.0268
18336W        W34597   3.092  10.829   5.687 -0.1794  0.1692  0.1359
18337W        W34598   7.569   6.509  12.503  0.4135  0.0453 -0.2017
18338W        W34599  13.714  14.719   1.738 -0.0806 -0.0380  0.1096
18339W        W34600   4.205  13.216   4.178  0.0729 -0.0209  0.0465
18340W        W34601  12.651   1.602  14.373  0.2600 -0.0378 -0.0466
18341W        W34602   5.569   3.240   0.831  0.0378 -0.0812 -0.0274
18342W        W34603  11.594  16.561   1.031  0.1748 -0.1657  0.1134
18343W        W34604   7.476   9.176  12.688  0.2143  0.0251 -0.0826
18344W        W34605   3.282  15.517  14.283 -0.3569 -0.0106  0.0094
18345W        W34606  10.060  15.747   1.970  0.1978  0.0153 -0.2517
18346W        W34607   5.811   6.983   4.345 -0.0516  0.0749 -0.3001
18347W        W34608   6.058  16.410   2.642 -0.1523  0.0878  0.0194
18348W        W34609   0.040  12.073  10.768 -0.3399 -0.2126  0.1853
18349W        W34610  12.972   7.179   0.567  0.0428 -0.1192 -0.2777
18350W        W34611   1.865   1.129  13.835 -0.1640  0.2141 -0.1581
18351W        W34612  16.953   4.527   3.113  0.0767 -0.1394  0.0956
18352W        W34613   3.437  14.809   2.409 -0.0392 -0.2706 -0.1105
18353W        W34614   7.790  17.253   5.547  0.1310 -0.0915 -0.0544
18354W        W34615   7.467   1.605   1.883  0.0345 -0.1853 -0.0783
18355W        W34616   7.561  15.757  11.278  0.0152  0.1525 -0.0612
18356W        W34617   1.807  10.577   5.803 -0.0606 -0.4091  0.2615
18357W        W34618  16.855   6.077   3.347 -0.0257 -0.2264 -0.0987
18358W        W34619  19.099  16.758   3.042  0.0727 -0.0151  0.1189
18359W        W34620  11.191   4.476   0.030  0.1464  0.0530  0.4733
18360W        W34621  11.505   3.149  14.100 -0.5195  0.1943 -0.1875
18361W        W34622  17.418  10.159   1.057  0.0203 -0.2272  0.1220
18362W        W34623   2.019  10.631   1.421  0.0122 -0.2416 -0.0265
18363W        W34624  15.282  19.042   2.209 -0.1372 -0.0857  0.1024
18364W        W34625   5.693   1.907  10.164 -0.1406  0.1414  0.2793
18365W        W34626  12.727   0.817  13.965 -0.0860 -0.3446  0.1181
18366W        W34627  18.169  16.124   4.209 -0.0569 -0.0425 -0.3015
18367W        W34628  12.810   5.608  12.416  0.1762 -0.0603  0.4304
18368W        W34629   9.303   0.542   1.082 -0.1439 -0.0797  0.0565
18369W        W34630   9.274  15.422   1.913  0.2564 -0.0113 -0.1113
18370W        W34631  16.519   0.996  11.465 -0.0594 -0.0695  0.1950
18371W        W34632   0.739  12.934  11.065 -0.1148 -0.0078  0.1178
18372W        W34633   4.431   6.609   9.918  0.1630 -0.0427  0.1935
18373W        W34634   5.639  11.771  10.948  0.1117  0.1105  0.0109
18374W        W34635   9.606  13.548  11.020  0.0157 -0.3571  0.1754
18375W        W34636   7.137  19.234   3.461 -0.0211  0.0004  0.1506
18376W        W34637   6.087   0.455   9.544 -0.0927  0.1711  0.0238
18377W        W34638   1.459   9.320  10.885  0.0176  0.1779  0.0393
18378W        W34639  11.959   7.556   8.915  0.1109  0.0083 -0.0775
18379W        W34640   8.216  17.285  12.144  0.0718  0.1550  0.0690
18380W        W34641   9.777   4.551   9.829 -0.3038  0.1986  0.0498
18381W        W34642   4.153  18.005   5.654  0.0933  0.1916  0.0529
18382W        W34643   3.078  14.395   3.656  0.0823  0.0833 -0.1415
18383W        W34644  16.538  11.998  12.719  0.0811  0.1397  0.2213
18384W        W34645   2.784   7.351   3.549 -0.0290  0.0039  0.0051
18385W        W34646   7.280  15.756  12.706 -0.1175  0.2160  0.3750
18386W        W34647   4.611  11.273  14.797  0.3338  0.0785 -0.3564
18387W        W34648   2.457   1.180   2.634 -0.0346  0.1224 -0.0398
18388W        W34649  18.550  13.875  12.608  0.0211 -0.2073  0.2108
18389W        W34650   8.600  10.503  11.468 -0.1082  0.0132  0.3264
18390W        W34651  17.873  17.295   2.244 -0.1191  0.0281  0.1068
18391W        W34652  17.793   9.760  13.141  0.1149  0.1033 -0.0056
18392W        W34653  14.453  12.726   9.572 -0.0669 -0.1375 -0.1049
18393W        W34654   2.604   1.144   4.283  0.3849 -0.0332  0.3049
18394W        W34655   8.399   5.343   8.757 -0.1186 -0.1505  0.0516
18395W        W34656  13.430  14.361  11.858  0.1148 -0.0268  0.0509
18396W        W34657   6.208   9.326  12.058  0.1754  0.2507 -0.0336
18397W        W34658  18.329  12.451  14.039  0.1347  0.0956  0.0736
18398W        W34659  17.652   9.417  12.751  0.1291  0.2784 -0.3225
18399W        W34660   0.981  11.026   1.975  0.1288  0.0772 -0.3483
18400W        W34661   2.468  16.078   3.311  0.0032  0.0733  0.0996
18401W        W34662  15.064   6.163   4.481  0.0920 -0.2333  0.3943
18402W        W34663   7.688   5.172   9.881  0.1433  0.1309 -0.2075
18403W        W34664   7.544  13.570   9.470  0.0617  0.1293  0.1640
18404W        W34665  19.377   1.240   0.023 -0.3686 -0.0105 -0.0126
18405W        W34666   7.213  15.472   0.734  0.0815 -0.4392  0.2026
18406W        W34667  14.933  14.572  11.460 -0.1005 -0.2117  0.3198
18407W        W34668   4.942  11.495  12.813 -0.4234 -0.1562 -0.3936
18408W        W34669   3.652   5.987   3.815  0.2347 -0.2702  0.2194
18409W        W34670  13.836  14.364   2.816  0.5046  0.0125 -0.1916
18410W        W34671   4.456  16.902   2.400 -0.1373 -0.0400  0.3322
18411W        W34672  10.596  17.342  13.443 -0.0644 -0.0010  0.1030
18412W        W34673   6.502   3.614  11.365  0.1698  0.0832  0.0973
18413W        W34674  12.661  15.088   3.068  0.0043  0.1920  0.0330
18414W        W34675   8.108  19.366  10.559  0.2520 -0.1304 -0.4651
18415W        W34676  15.523   0.355   1.686  0.2979 -0.0940 -0.1495
18416W        W34677   6.443  16.463   3.639 -0.2954 -0.0610 -0.3159
18417W        W34678  18.035   6.905   3.273 -0.0036  0.1164  0.2577
18418W        W34679  14.585  10.553   0.883  0.0447 -0.2884 -0.2967
18419W        W34680   3.644   1.183  10.213  0.0196 -0.1383  0.1489
18420W        W34681   1.093  11.133   1.478 -0.2821 -0.4756 -0.0882
18421W        W34682  16.820   7.563   2.001  0.0887 -0.2753 -0.0123
18422W        W34683   5.084   2.303   2.374  0.0268  0.3376 -0.0161
18423W        W34684   9.573  18.615  10.898  0.2561 -0.3043 -0.3854
18424W        W34685  18.800  18.015  14.639  0.0190  0.1047  0.0574
18425W        W34686   1.764  16.012  14.103 -0.1772 -0.1114 -0.0214
18426W        W34687  11.710  10.560   5.338  0.0586 -0.1788 -0.1790
18427W        W34688   8.958  18.615   5.280 -0.2494  0.4778  0.0738
18428W        W34689   6.490   9.608   0.105 -0.1799  0.1690 -0.1048
18429W        W34690   8.115  10.530  13.790 -0.2602  0.1394  0.3298
18430W        W34691   4.619  15.338   3.201  0.2134  0.1108  0.2346
18431W        W34692   4.722   7.354  14.515 -0.4679 -0.1155  0.4660
18432W        W34693   3.450  15.537  14.746  0.3478  0.2674 -0.2516
18433W        W34694   6.249  15.035   2.402 -0.1645 -0.1723  0.2895
18434W        W34695  16.653   3.953  14.699  0.1653  0.4200  0.1913
18435W        W34696   6.583   8.422  12.099  0.0385 -0.3166  0.1896
18436W        W34697   2.058  11.207  12.515  0.1729 -0.1763 -0.0987
18437W        W34698   7.940   3.518   0.197  0.2228 -0.0311 -0.1665
18438W        W34699   5.401   5.682   2.504  0.0470 -0.0969 -0.2530
18439W        W34700   5.263   1.557  12.305  0.6381  0.2054 -0.2969
18440W        W34701  15.250  10.322  10.527 -0.3239  0.0364  0.0438
18441W        W34702  10.402   6.030  14.783  0.0654  0.0208  0.1998
18442W        W34703   3.149  11.471  10.597  0.2261  0.2537  0.0850
18443W        W34704  12.469  17.414   3.701  0.4847  0.1631 -0.2018
18444W        W34705   7.708   9.198   2.578 -0.0655 -0.3834 -0.0851
18445W        W34706  10.694   6.079  13.165 -0.2764 -0.3818  0.4220
18446W        W34707   7.603   4.808   9.519 -0.0140  0.2229 -0.0708
18447W        W34708  17.568  18.919  13.520 -0.3610 -0.2035 -0.1365
18448W        W34709   3.181   6.508  10.884 -0.1029 -0.1433 -0.0508
18449W        W34710   7.916  14.520   3.994 -0.2418  0.1014  0.3628
18450W        W34711   0.337   4.550   0.493 -0.0326 -0.0756 -0.3183
18451W        W34712  14.224   8.678   4.837 -0.5806  0.1383  0.3381
18452W        W34713   0.560  12.636   1.923 -0.0642  0.1325 -0.1104
18453W        W34714   8.486   9.068   5.035  0.0548  0.0530  0.2422
18454W        W34715   1.476   4.759  10.471 -0.4084  0.2972 -0.1601
18455W        W34716   7.977  10.561  10.844 -0.0906  0.2551 -0.0363
18456W        W34717   9.958   1.374  10.855 -0.0328 -0.1756  0.0284
18457W        W34718  15.557   8.753  10.651  0.2563 -0.1881  0.0101
18458W        W34719   3.330   9.270  10.588  0.2005  0.0267 -0.0361
18459W        W34720  15.218   1.186   5.052 -0.3935 -0.0833  0.1128
18460W        W34721  15.063   8.601   9.921  0.0241  0.1872 -0.1541
18461W        W34722  11.902   5.464  10.513  0.0064 -0.1788  0.0787
18462W        W34723   1.304  16.589  14.231  0.2778 -0.0935  0.0758
18463W        W34724   4.853  16.585  14.737 -0.1065  0.2859 -0.1235
18464W        W34725  10.347  14.563   4.517 -0.1476 -0.2427 -0.1366
18465W        W34726  16.629   4.961   4.418 -0.2942 -0.0807 -0.1647
18466W        W34727  10.029  11.772  12.015 -0.0167 -0.2859 -0.0320
18467W        W34728  10.557   9.660  14.666  0.0476  0.1122  0.1959
18468W        W34729  19.279   1.875   5.617  0.1338  0.2314 -0.2867
18469W        W34730  15.656  15.245   1.186 -0.0609  0.2639 -0.2670
18470W        W34731   4.422   3.424   0.753  0.1829  0.0099  0.1313
18471W        W34732   3.151   3.330   2.134  0.2457  0.0135  0.1857
18472W        W34733   8.201  19.131   3.351  0.0054 -0.0120  0.0593
18473W        W34734   5.395  19.102   2.771  0.0415  0.0117  0.1279
18474W        W34735   8.622  17.302   2.130 -0.0617 -0.0945  0.1579
18475W        W34736   8.150  16.643   3.040  0.0350  0.2733 -0.2454
18476W        W34737  16.018  18.152   0.324  0.0713  0.2260 -0.5611
18477W        W34738  14.287  15.505  12.889 -0.1386 -0.1151  0.1622
18478W        W34739   9.551  10.309  13.319 -0.0634  0.0096  0.0513
18479W        W34740  17.154  11.596   4.858 -0.0871 -0.1892 -0.0510
18480W        W34741   8.040   9.763  13.867 -0.1321  0.1753 -0.1790
18481W        W34742  12.467  16.826   4.277 -0.1733 -0.0839 -0.0601
18482W        W34743   2.608   1.193  14.581 -0.0442 -0.2780  0.0440
18483W        W34744   4.682   0.556   3.065 -0.0890 -0.0549  0.3138
18484W        W34745  18.471   9.683   4.163  0.1324 -0.1561  0.1758
18485W        W34746  16.005   6.729  14.765  0.2124 -0.1383  0.2608
18486W        W34747   7.901  15.063   1.198  0.2868  0.0897 -0.3174
18487W        W34748  10.860   9.684   9.360  0.0069  0.1328 -0.1232
18488W        W34749   5.899   5.109   4.909  0.0053  0.2169  0.2518
18489W        W34750  16.967  17.023   4.443  0.0552  0.0148 -0.0724
18490W        W34751   0.852   4.364   1.619  0.1130 -0.1219 -0.0937
18491W        W34752   6.785   4.937  10.096  0.1202 -0.1142  0.1479
18492W        W34753  15.313   8.623   2.538 -0.0414 -0.0382  0.0798
18493W        W34754  12.052   0.863  11.821 -0.2322  0.3920  0.0006
18494W        W34755  18.203  15.262  10.561 -0.3145  0.1800 -0.3722
18495W        W34756  17.863   2.554  13.067 -0.0718 -0.1216 -0.4095
18496W        W34757   3.630  14.128   9.460  0.0648  0.2075  0.1642
18497W        W34758   1.929  11.686  10.309 -0.0263 -0.0414  0.0410
18498W        W34759  12.009   8.910  13.085 -0.5424  0.0117 -0.2203
18499W        W34760   4.911  13.996   5.491  0.4201  0.1791  0.1777
18500W        W34761   6.801  12.400  12.640  0.0355  0.1605 -0.1173
18501W        W34762  12.333   8.970   2.036 -0.3925 -0.0780  0.2113
18502W        W34763   0.228  17.862   5.046 -0.1913 -0.0718  0.3257
18503W        W34764  11.598  16.658  11.240 -0.1556 -0.0712  0.1614
18504W        W34765  10.989   4.475   2.336 -0.2000 -0.1720  0.1152
18505W        W34766  17.835   6.462  12.918 -0.2682 -0.0216  0.1863
18506W        W34767  11.422  11.304   0.042 -0.3053  0.2771  0.0051
18507W        W34768   9.461   5.744  10.292 -0.0264 -0.0981 -0.0224
18508W        W34769   2.043  18.901  14.671  0.0385 -0.1709  0.3162
18509W        W34770  16.420   9.555  14.478  0.0967  0.1419  0.4150
18510W        W34771  12.451  15.637  12.989 -0.1729 -0.2408  0.1556
18511W        W34772  11.172   3.729  12.942 -0.1108 -0.1110 -0.3516
18512W        W34773   3.669   6.914   0.368 -0.2519  0.0858 -0.0312
18513W        W34774   1.646   9.426   5.407 -0.1043  0.2553 -0.0434
18514W        W34775   0.437   7.404  11.168  0.2585 -0.0272  0.1621
18515W        W34776  16.362   8.500   2.682 -0.2340  0.0374 -0.1845
18516W        W34777  16.869  16.438  10.760 -0.0712 -0.2100  0.0034
18517W        W34778  14.238   3.202   4.443 -0.1006 -0.1079  0.3150
18518W        W34779  17.668   1.756   9.939 -0.2905  0.2510  0.0450
18519W        W34780   4.542   5.237   1.106  0.0156  0.3182 -0.3183
18520W        W34781  16.928   6.464  14.803 -0.0306  0.4935  0.1200
18521W        W34782  10.595   6.880   1.376  0.0665 -0.1348 -0.5127
18522W        W34783   4.441   1.006  10.505  0.0459  0.3852  0.2883
18523W        W34784  15.362   8.225  14.644  0.4023  0.1715  0.0276
18524W        W34785  12.307  11.572   2.684  0.1866  0.3956 -0.0090
18525W        W34786  16.876  12.030  10.964  0.1668 -0.3354 -0.1838
18526W        W34787  13.446   2.005  14.637 -0.2057  0.1945 -0.0254
18527W        W34788  12.595   1.730   3.930  0.1948  0.0276  0.0598
18528W        W34789  15.850   0.645   1.496 -0.0927  0.2919  0.2063
18529W        W34790  12.660   7.648   0.208  0.1519 -0.5261 -0.1968
18530W        W34791   3.041  10.428   4.190  0.0790  0.1531 -0.1531
18531W        W34792   6.221   1.052  14.300 -0.0870 -0.0549 -0.2838
18532W        W34793  14.925  14.632   4.044 -0.0169 -0.0620  0.1899
18533W        W34794   8.850  10.347  11.054  0.2211 -0.0417 -0.3376
18534W        W34795  18.789  11.766  12.106 -0.2032  0.2882  0.0302
18535W        W34796   0.437   7.292  12.906  0.1371  0.0508 -0.0732
18536W        W34797   1.347  10.786   3.767  0.1794 -0.2386 -0.1297
18537W        W34798   4.550  17.414  12.521 -0.0830  0.5185 -0.0946
18538W        W34799   7.221  14.047   2.250  0.4757  0.0726 -0.0053
18539W        W34800  13.442  15.629  12.909 -0.1199  0.0020 -0.2444
18540W        W34801   5.974   1.948  14.066 -0.2160  0.0230  0.1338
18541W        W34802  19.033  15.271  14.093 -0.1559  0.2422 -0.2005
18542W        W34803  11.325  15.001  12.029 -0.0811 -0.0239  0.0763
18543W        W34804   8.951  18.621  13.849  0.1386  0.0843  0.1316
18544W        W34805   0.589  18.787   2.175  0.0558  0.0197 -0.0272
18545W        W34806   3.071   0.364   9.856  0.0821  0.2784 -0.2817
18546W        W34807   2.301   7.236   0.138 -0.1793 -0.0541  0.1125
18547W        W34808  17.989  14.823   2.760  0.0098 -0.3574  0.0311
18548W        W34809   4.393  10.215   2.401  0.1174 -0.3183  0.0275
18549W        W34810   8.345  14.777  13.307  0.0162  0.4186 -0.0028
18550W        W34811   2.143  14.137  14.454  0.2729 -0.1627  0.3645
18551W        W34812   5.406  14.169  13.982  0.2836 -0.0206 -0.1795
18552W        W34813  18.986   6.209   9.678 -0.0459 -0.2286  0.1236
18553W        W34814  16.427  10.725  11.763  0.0031 -0.3762 -0.3756
18554W        W34815  10.363  14.789   2.633 -0.2812  0.0365 -0.4981
18555W        W34816   7.603   2.880  13.881  0.4417  0.2719  0.3003
18556W        W34817   8.526  12.110  12.988  0.2213 -0.2348 -0.0542
18557W        W34818   9.813   9.503  12.857  0.1178  0.2396  0.0133
18558W        W34819  18.138   1.902  12.856  0.2826 -0.0561  0.2473
18559W        W34820   3.019  11.294  13.204 -0.0077  0.0565 -0.4671
18560W        W34821   6.986   8.319  12.934  0.2405  0.0518 -0.0041
18561W        W34822   8.090   9.694  10.954  0.0241  0.1598 -0.3069
18562W        W34823  13.764  13.978  11.250 -0.1904  0.0532  0.1250
18563W        W34824  13.852  17.019   2.918  0.1525  0.0948  0.0967
18564W        W34825   6.891   6.497   9.896 -0.1291  0.2841 -0.0048
18565W        W34826  13.158  10.299  13.264 -0.0011 -0.4216  0.2298
18566W        W34827   4.286   9.641   2.455 -0.0415  0.0300 -0.4340
18567W        W34828   7.024   4.929   2.174 -0.1412  0.0300  0.1153
18568W        W34829   3.257  17.630   4.206  0.2826  0.0710  0.1680
18569W        W34830   2.149  17.018   2.245 -0.2694  0.1144 -0.1476
18570W        W34831   5.688  16.847   5.038  0.2409  0.1515 -0.4187
18571W        W34832  14.774   0.517  14.656 -0.0619 -0.1050 -0.0099
18572W        W34833  13.642   9.752   2.713 -0.3927  0.1952  0.1220
18573W        W34834  15.383   3.770   0.106  0.0844 -0.2245 -0.0646
18574W        W34835   8.693   0.509   4.338 -0.1715  0.0227  0.0408
18575W        W34836   9.805  19.355   1.477  0.3157 -0.0501 -0.1961
18576W        W34837  10.189   3.417   4.282 -0.1528 -0.2820  0.2505
18577W        W34838  13.631   0.268   0.582 -0.1206 -0.0183 -0.0061
18578W        W34839   7.171  16.811  11.226 -0.0340 -0.2019 -0.1726
18579W        W34840   5.973   4.114  10.562  0.0113  0.0581 -0.1476
18580W        W34841  18.984   8.924   3.420 -0.0843 -0.2283 -0.0731
18581W        W34842  15.234   2.437  13.123 -0.0439  0.0703 -0.0094
18582W        W34843  13.962   4.531  11.471  0.2952  0.1321 -0.3378
18583W        W34844  17.529   2.063   3.973  0.0900  0.0128  0.0420
18584W        W34845   8.568  16.905   5.200 -0.2021  0.1782  0.0528
18585W        W34846  18.877  15.525  14.485 -0.0860 -0.1701  0.2338
18586W        W34847   6.276   3.036   2.959 -0.1117  0.1027  0.0782
18587W        W34848  18.441   0.828  12.583 -0.1079  0.1565  0.2596
18588W        W34849  11.168   1.131   0.509 -0.0857  0.0315  0.0175
18589W        W34850  13.975   6.752   9.327  0.1296 -0.2336  0.1183
18590W        W34851   0.649   2.443   4.141  0.3160 -0.2378  0.2754
18591W        W34852  17.554   0.354   3.434 -0.1266  0.2696  0.1014
18592W        W34853   4.503   5.803   3.430 -0.0173 -0.0404 -0.2359
18593W        W34854  15.497  13.168  13.690 -0.2903  0.1336 -0.2503
18594W        W34855   0.150  12.143  12.600  0.1762  0.1248 -0.1163
18595W        W34856  13.049   3.802   9.475  0.0129  0.4411  0.2209
18596W        W34857   7.844   8.200  10.915 -0.0103  0.0879 -0.1256
18597W        W34858   6.406   4.566  10.184 -0.1103  0.1942 -0.3899
18598W        W34859   8.656   8.701   2.815  0.1942 -0.0213  0.1308
18599W        W34860   0.878   5.050   0.376 -0.0161  0.2018  0.0899
18600W        W34861   7.447  11.640   3.438  0.0293  0.0863 -0.2040
18601W        W34862   6.821   7.329   2.503  0.1027  0.2195 -0.2143
18602W        W34863   1.460   9.080   9.143 -0.0658  0.0805 -0.2205
18603W        W34864  13.893   1.404  11.258 -0.1548 -0.0242  0.1093
18604W        W34865   0.426   1.172  11.688 -0.0008  0.0639 -0.1007
18605W        W34866   4.285   6.721  14.005 -0.1094 -0.0511 -0.0169
18606W        W34867   8.624  16.793  14.481 -0.1015  0.2273 -0.0077
18607W        W34868   1.112   8.153  12.222  0.2525 -0.2260 -0.1569
18608W        W34869   3.109  16.357  13.406 -0.4680 -0.1907 -0.0955
18609W        W34870   3.319  10.483   3.803 -0.1120  0.1614 -0.3283
18610W        W34871   3.946  12.480  14.361  0.2888 -0.0587  0.1466
18611W        W34872   9.395  10.513  14.671  0.2879  0.0867  0.1871
18612W        W34873  16.547  13.221   3.375 -0.4939  0.1099 -0.0878
18613W        W34874   7.695   3.548   1.571  0.2089  0.1440  0.1044
18614W        W34875  19.210   8.159   2.111  0.1362 -0.0488 -0.1684
18615W        W34876  10.781  12.914  13.232 -0.0778 -0.1000  0.0994
18616W        W34877  16.988   8.643   4.337  0.2654  0.1344  0.0472
18617W        W34878  18.963   0.379  12.644 -0.1770 -0.0094 -0.1578
18618W        W34879   8.369  17.168  14.221 -0.2589 -0.1295  0.1051
18619W        W34880   4.685   6.507  10.453  0.3795 -0.4142 -0.0083
18620W        W34881   5.788   7.503  14.105  0.0780  0.2979 -0.0362
18621W        W34882  12.182   5.354  12.067 -0.0486 -0.0482  0.0037
18622W        W34883  15.762  13.308   1.175  0.1393 -0.0730  0.0692
18623W        W34884   9.593  14.479  10.758 -0.2604 -0.4327 -0.1392
18624W        W34885   1.571  17.546   2.882  0.0959 -0.0249  0.0535
18625W        W34886   4.201  18.896  13.591 -0.2245 -0.0173 -0.1906
18626W        W34887   4.270   0.188  12.129  0.2119 -0.4467  0.1098
18627W        W34888   7.265  18.465   2.493  0.2732  0.4239  0.0827
18628W        W34889  17.464  12.193   2.230 -0.1304 -0.2132 -0.2016
18629W        W34890   9.616  17.467   5.024  0.0197 -0.0795 -0.0977
18630W        W34891  18.555   3.079   0.832  0.0975 -0.2394  0.0676
18631W        W34892   5.331  13.642   4.464  0.1139  0.2624  0.0964
18632W        W34893  12.225  14.193   1.853  0.2356 -0.1310  0.5611
18633W        W34894   9.203   7.194  13.834 -0.1295  0.1656  0.2163
18634W        W34895   0.586  13.999   4.536 -0.0174  0.2285 -0.1292
18635W        W34896   9.539   9.425  13.753 -0.4050  0.0376  0.3319
18636W        W34897  18.594  16.874  12.036  0.3162 -0.2333 -0.0466
18637W        W34898  11.565   7.327  11.651 -0.2884  0.1598  0.1245
18638W        W34899  12.445  14.932  13.299 -0.4027 -0.0775 -0.0217
18639W        W34900  18.825  11.300   5.543  0.0002 -0.2711  0.1911
18640W        W34901  14.633  12.320   0.270  0.1041  0.0404  0.0062
18641W        W34902   8.341   7.709  12.662 -0.1867  0.2483  0.1191
18642W        W34903  15.526  10.463   4.089 -0.1589 -0.1654  0.0686
18643W        W34904   8.441   9.576  14.665 -0.0979 -0.1164 -0.0153
18644W        W34905  14.215  15.158  13.241 -0.4901  0.2575  0.0875
18645W        W34906   7.265   0.417  13.447 -0.0258 -0.1843 -0.0296
18646W        W34907  10.904   0.209   2.170 -0.2265 -0.1975  0.3252
18647W        W34908   8.467   5.274  13.608 -0.2438 -0.3593  0.2706
18648W        W34909   0.831  18.790  14.408 -0.2334  0.2171 -0.0360
18649W        W34910  10.740  10.710   0.202  0.0038 -0.2814 -0.4720
18650W        W34911   0.994   0.264   2.482  0.1587 -0.5029 -0.0601
18651W        W34912  11.586  17.536   3.513 -0.2296 -0.0484 -0.2428
18652W        W34913   1.965  18.309   2.909  0.0514 -0.1179 -0.1674
18653W        W34914  10.305   7.057  14.418 -0.0958 -0.3039 -0.0702
18654W        W34915  12.912  18.577   3.190  0.2080 -0.1502 -0.0310
18655W        W34916  14.150   6.049   1.393 -0.1562  0.2330 -0.0034
18656W        W34917  16.468  10.445   1.575  0.0612  0.1007 -0.0465
18657W        W34918  17.169   6.043  12.128 -0.3032 -0.2302 -0.0537
18658W        W34919   6.918   0.652  14.074  0.2157  0.1662 -0.0391
18659W        W34920   7.633  10.227  13.916  0.1625  0.2250  0.1116
18660W        W34921   1.398  18.644   0.463  0.4533 -0.0858 -0.1092
18661W        W34922   0.427  13.136   1.814  0.1131  0.1944  0.0926
18662W        W34923  14.370  11.788   2.591  0.0646  0.0937 -0.0293
18663W        W34924   8.811  11.378  11.200  0.1448 -0.3087 -0.1845
18664W        W34925  11.796  19.108   1.376  0.1436 -0.3844  0.1142
18665W        W34926  18.070   0.309  14.462  0.0773 -0.1139 -0.1573
18666W        W34927   0.107  12.092   2.483 -0.1074  0.3292  0.0526
18667W        W34928   4.572   5.394  11.805  0.1174  0.0208  0.3280
18668W        W34929  14.516  18.735  10.915  0.0093 -0.1171 -0.2889
18669W        W34930  18.846   7.354   0.078  0.1957  0.0938 -0.1135
18670W        W34931  19.470  11.720   4.110 -0.0341 -0.1572 -0.1603
18671W        W34932  14.083   2.695  12.426  0.1572  0.2625  0.0187
18672W        W34933   2.117  19.070   2.019 -0.3755  0.3930  0.0201
18673W        W34934   6.593  11.784   2.180  0.1267 -0.0736  0.3310
18674W        W34935   5.586   6.828   2.213 -0.1985 -0.0854  0.0711
18675W        W34936   6.694  19.261  10.822 -0.1103 -0.0851  0.2060
18676W        W34937  12.340   7.624   0.973 -0.0695  0.3622  0.0222
18677W        W34938   4.657  16.457   2.209  0.0243 -0.3983  0.2006
18678W        W34939   3.238  19.305  12.962 -0.1361  0.1976  0.1343
18679W        W34940  11.865  11.598   1.498  0.0394 -0.2750  0.2808
18680W        W34941   1.999  17.799  12.617  0.4406 -0.3587  0.0356
18681W        W34942  15.496   6.437  11.194 -0.2280  0.0093  0.1969
18682W        W34943  16.691   0.922   3.432  0.4314 -0.2910  0.2784
18683W        W34944  18.376   6.924   1.888  0.0250  0.0356  0.0885
18684W        W34945   4.815   9.108   0.942 -0.2612 -0.0884  0.0268
18685W        W34946   5.805  13.008  11.315 -0.2321  0.0279  0.1539
18686W        W34947   1.119   8.544  13.081  0.1053 -0.0337 -0.0420
18687W        W34948  19.295  17.961  14.633  0.0668  0.0413  0.0888
18688W        W34949  16.935  13.762   4.193 -0.0222 -0.0996  0.1622
18689W        W34950  14.593   7.674   3.661  0.0120 -0.4008  0.1430
18690W        W34951  14.867  18.976  12.436  0.0975  0.1247 -0.1902
18691W        W34952   8.074   4.747   9.604  0.0292  0.0976  0.0947
18692W        W34953  12.803  17.416   0.528  0.2399  0.1203 -0.0761
18693W        W34954   8.996   1.734  12.560 -0.0151  0.0771  0.2473
18694W        W34955   5.947  11.860  12.955 -0.1079  0.2007  0.3754
18695W        W34956  11.088  16.809  12.181 -0.1619  0.4594  0.0931
18696W        W34957   3.287  18.819   5.284 -0.0284 -0.0383 -0.0912
18697W        W34958  17.256   2.613   0.212 -0.0390 -0.2624  0.1212
18698W        W34959   5.181  12.936   0.755  0.2869 -0.1062 -0.0684
18699W        W34960  11.381  19.474   3.071  0.1473 -0.3188  0.0037
18700W        W34961  11.040   2.109   4.840 -0.0067 -0.0134  0.1112
18701W        W34962  12.346   5.782   1.294  0.2276  0.1257 -0.1985
18702W        W34963   6.477   2.755  11.396 -0.1098  0.0260 -0.0340
18703W        W34964   4.102   1.006  13.548  0.0685 -0.1847  0.0870
18704W        W34965  10.539  11.816  13.897  0.0477 -0.0380  0.0958
18705W        W34966  18.938  11.628   2.346 -0.0366 -0.4336 -0.0093
18706W        W34967  14.052   9.861   5.827  0.0876 -0.1351  0.1756
18707W        W34968  16.723  13.625  14.190  0.0641  0.1491 -0.0519
18708W        W34969  16.483   1.720  11.785  0.1788  0.0776 -0.0652
18709W        W34970   6.541  17.913  13.484  0.0012  0.2389  0.2040
18710W        W34971  12.841  12.171   2.938 -0.0592  0.1082 -0.0883
18711W        W34972   0.212   4.715  12.515  0.1499 -0.0503 -0.0996
18712W        W34973  19.107   5.249   9.562  0.0478 -0.0365  0.2562
18713W        W34974  12.836  19.458  14.253 -0.0366 -0.0444 -0.2133
18714W        W34975  14.707  13.331   1.259 -0.2836 -0.0860 -0.1962
18715W        W34976   5.774  12.210   2.190 -0.4561 -0.2074 -0.1696
18716W        W34977   6.883  18.906  14.598 -0.1034  0.1262 -0.2065
18717W        W34978  15.771   6.105  14.161 -0.1513  0.3901  0.0358
18718W        W34979   9.412   3.097   8.771 -0.1915 -0.1597 -0.1563
18719W        W34980   6.665   7.747  12.054  0.3948  0.0386  0.0865
18720W        W34981  16.814   2.478   2.013 -0.3983  0.4470 -0.3911
18721W        W34982   6.948   0.239  12.564  0.1722  0.1599 -0.4957
18722W        W34983   7.763  16.180  13.368 -0.0174  0.0799  0.0315
18723W        W34984   6.043  14.319  12.184  0.2185 -0.0727  0.0805
18724W        W34985  10.147  14.513  12.374  0.4979  0.0508 -0.0072
18725W        W34986   8.521  13.673   4.232  0.0537  0.1126 -0.0994
18726W        W34987   2.832   6.108   3.340 -0.1654 -0.2100  0.2309
18727W        W34988   6.121  18.292  14.698  0.2300  0.1894 -0.0542
18728W        W34989  14.190  17.293   2.400 -0.2179 -0.1295 -0.0936
18729W        W34990  10.146  17.425  14.278  0.1766  0.1536 -0.3359
18730W        W34991  19.192   3.866  12.250 -0.1964  0.1442 -0.0479
18731W        W34992   9.115  16.463  14.412  0.4205 -0.1246  0.0906
18732W        W34993   4.168  15.166   1.651 -0.0625  0.2427 -0.1142
18733W        W34994  15.193  17.899  12.102  0.2244  0.0557 -0.1976
18734W        W34995   4.367   6.042   4.648  0.0851  0.0781  0.2639
18735W        W34996  11.690  16.943  10.621  0.1808  0.1627  0.0254
18736W        W34997  19.465   9.660   5.645 -0.0846 -0.0342 -0.1086
18737W        W34998  19.119   0.476   3.095  0.0103  0.1798  0.0455
18738W        W34999   6.468  17.669  11.101  0.2422  0.5207  0.0424
18739W        W35000   0.873  16.930   9.764 -0.0131 -0.1623  0.1267
18740W        W35001   1.685  10.663   1.027  0.0739  0.0534  0.0017
18741W        W35002  15.292   6.451  10.302 -0.2038 -0.0756  0.1111
18742W        W35003   3.879   5.171   9.795  0.0684  0.0413  0.0221
18743W        W35004   1.709  13.480   1.295 -0.0845  0.1194  0.1617
18744W        W35005   7.131   0.148   4.329 -0.1713  0.0465 -0.2203
18745W        W35006   3.978  17.443  10.821 -0.0389  0.0810  0.0849
18746W        W35007  19.054  18.633   1.098  0.1949  0.0796  0.1186
18747W        W35008  13.829  16.249   4.042  0.1167  0.3359  0.2262
18748W        W35009  17.805   6.698  12.428  0.1074 -0.2476 -0.1455
18749W        W35010   5.297   6.161  13.029  0.2484  0.1718  0.1500
18750W        W35011  10.652   4.538   3.812  0.0552 -0.0271  0.1679
18751W        W35012   5.369  12.436  10.512  0.1956 -0.1099 -0.2559
18752W        W35013   9.561   8.092  10.310 -0.3521 -0.3354 -0.1788
18753W        W35014  12.862  17.247  12.257 -0.1172 -0.1501 -0.3143
18754W        W35015   2.122  13.877   5.231 -0.2451 -0.2460 -0.0931
18755W        W35016  13.899   6.487   3.063  0.1401  0.1196  0.2588
18756W        W35017  15.439  11.309   4.768 -0.0857 -0.1925  0.1938
18757W        W35018  11.542   2.553  14.406 -0.1081 -0.2118 -0.2775
18758W        W35019  11.336  17.730  14.737 -0.0852 -0.1127 -0.0445
18759W        W35020   3.344  13.616   4.066  0.0688 -0.1901 -0.3677
18760W        W35021  16.599  13.042  11.179 -0.0709  0.0504 -0.1442
18761W        W35022  19.420  17.911   1.816  0.0968  0.0560  0.2135
18762W        W35023   9.027   7.493  13.228 -0.0583 -0.1402 -0.0088
18763W        W35024  11.034  11.346   1.768  0.1842  0.0803 -0.1553
18764W        W35025  10.196  13.654   4.547 -0.3349 -0.2846 -0.3143
18765W        W35026  15.097   1.243  10.307 -0.1744  0.1716 -0.2373
18766W        W35027   1.884  18.315  12.307  0.0806 -0.2435  0.0519
18767W        W35028  15.243  12.154   2.377 -0.2305  0.0761 -0.1482
18768W        W35029   2.180  12.649  11.935 -0.1959 -0.2291  0.1537
18769W        W35030  10.864   5.935   1.339  0.2642 -0.1169 -0.2860
18770W        W35031   3.824   4.288   4.840 -0.1877 -0.1885  0.1706
18771W        W35032  13.269  19.049   5.613  0.0877  0.2631  0.0285
18772W        W35033  17.376   0.434  14.329 -0.0255 -0.2127  0.0952
18773W        W35034   3.737  18.574   3.296 -0.1001 -0.1253 -0.0712
18774W        W35035   3.632   4.613  13.363 -0.0784  0.1472 -0.4658
18775W        W35036   5.854  16.816  13.439  0.0056  0.2263 -0.0928
18776W        W35037  11.901  14.744   5.529 -0.3520  0.1058  0.0690
18777W        W35038   6.996   3.756  10.636  0.0569 -0.1173 -0.2072
18778W        W35039  10.802  18.943   0.524  0.2023  0.1227 -0.1106
18779W        W35040   8.888   3.692   3.285  0.0782 -0.0563  0.1495
18780W        W35041   2.159   8.448   2.737 -0.0086  0.0739 -0.0762
18781W        W35042  10.571  18.653   2.598  0.0921  0.0405  0.1471
18782W        W35043   5.960   0.437  13.813  0.1024  0.1297  0.1270
18783W        W35044  15.658   3.082   5.393 -0.4789 -0.1161  0.1505
18784W        W35045  16.147   5.576   3.307 -0.0769  0.3397  0.0312
18785W        W35046  15.718  10.376   2.405 -0.0317 -0.1835 -0.2131
18786W        W35047   1.161   4.402   2.056 -0.0601  0.6374 -0.1933
18787W        W35048  16.580  15.531   3.744 -0.0345  0.1095 -0.0136
18788W        W35049   3.949   6.603   2.915  0.1211  0.1893  0.3278
18789W        W35050   8.113  15.332   0.507 -0.0878  0.3393 -0.1952
18790W        W35051   9.743   9.106   2.717  0.1984  0.2380 -0.3340
18791W        W35052   1.351   3.621   0.144 -0.0888  0.0582 -0.0155
18792W        W35053   8.464  13.715   2.137 -0.1113  0.2972 -0.0017
18793W        W35054   2.229   5.565   1.991  0.0774  0.3060  0.1663
18794W        W35055  18.958  12.560  13.350  0.0828 -0.3090  0.0698
18795W        W35056   9.068   2.483   0.981 -0.0062  0.2517 -0.0543
18796W        W35057   4.750  10.648   4.682 -0.0916  0.1598  0.2342
18797W        W35058   2.606   7.618  12.398 -0.1669  0.2062 -0.1094
18798W        W35059   0.543   5.873  14.222  0.3477 -0.2388 -0.0229
18799W        W35060  12.352  19.002   4.232 -0.1973 -0.1544 -0.0306
18800W        W35061   5.395   1.521   3.827 -0.4433 -0.0088 -0.1880
18801W        W35062   9.498  14.110  12.449  0.2354  0.0095 -0.1808
18802W        W35063  16.150  10.580  13.323 -0.1972 -0.3511  0.0643
18803W        W35064  16.113  18.116   4.226 -0.0535  0.1068 -0.4067
18804W        W35065  15.166   1.229   1.060  0.2673  0.0405  0.0200
18805W        W35066  10.370   6.098   1.782 -0.1879 -0.0575  0.1289
18806W        W35067  14.957  17.958   2.954  0.2171  0.0712  0.2122
18807W        W35068   8.659   5.561   3.583 -0.3180 -0.1304  0.1359
18808W        W35069  13.013  12.246   2.475  0.3813  0.2412  0.0847
18809W        W35070   1.317   9.069   3.687  0.0267 -0.1985  0.1718
18810W        W35071   2.568  12.486  11.579 -0.0521  0.3308  0.1288
18811W        W35072   6.270  15.077   1.399  0.0607 -0.2119 -0.2431
18812W        W35073  14.234  18.487  13.066 -0.0785  0.1188 -0.3421
18813W        W35074   8.178   9.975   3.542 -0.1794 -0.0475 -0.0352
18814W        W35075  11.266   3.162   3.472 -0.0115  0.1469  0.0906
18815W        W35076  16.509   4.744   3.564 -0.1517 -0.0683  0.2134
18816W        W35077  17.833  18.475  11.460 -0.1684  0.1922 -0.0262
18817W        W35078  10.966  13.956   1.466 -0.1187  0.1746  0.1088
18818W        W35079  13.979  12.518   2.377  0.0329 -0.2500  0.1200
18819W        W35080  10.882  14.815   2.512  0.4933 -0.0359 -0.0574
18820W        W35081  12.901  14.451   1.245 -0.0807  0.1439  0.2296
18821W        W35082   2.397   0.164  14.493 -0.0173 -0.4119  0.0913
18822W        W35083   5.813   8.514   3.740  0.1868  0.0563  0.1156
18823W        W35084  18.995   4.539  10.672  0.1472 -0.1434  0.1028
18824W        W35085   8.728   2.178  10.488  0.0796  0.2703 -0.1651
18825W        W35086  16.989   1.114   1.298 -0.1683  0.1654 -0.0419
18826W        W35087   7.548  18.643   2.901 -0.1827 -0.2245  0.0366
18827W        W35088   2.916  16.532   2.590 -0.0898  0.1147 -0.1537
18828W        W35089   7.000  16.210   2.325  0.1147  0.3409 -0.2977
18829W        W35090   0.968   9.335  11.097  0.3218  0.2350  0.2385
18830W        W35091   0.634   3.705  14.295  0.0464  0.0993  0.0419
18831W        W35092   7.288   0.782  11.220 -0.0833 -0.2357 -0.4443
18832W        W35093   2.614   5.172   3.283  0.0790  0.0737  0.1273
18833W        W35094  15.254   4.766   3.087  0.0686 -0.0034  0.1532
18834W        W35095  18.904   2.030  10.897 -0.0878  0.1032 -0.1332
18835W        W35096   5.096  15.451   0.651 -0.0349  0.2149  0.1113
18836W        W35097   5.790  18.549  12.263  0.3641 -0.3883 -0.0515
18837W        W35098   7.673  11.445  11.807 -0.0897  0.3286 -0.0886
18838W        W35099   8.569   3.013  13.261  0.0421  0.1101 -0.0832
18839W        W35100   7.546  15.240  13.991 -0.1250 -0.1020  0.0407
18840W        W35101   4.536   7.077  11.149 -0.2141  0.0677  0.1162
18841W        W35102   3.332   5.532  13.933 -0.0258 -0.3516  0.0935
18842W        W35103   2.541  18.401  10.856 -0.1016 -0.0428 -0.3443
18843W        W35104   1.738  15.501  14.282 -0.1238  0.0090  0.0474
18844W        W35105  15.956   5.637  11.644 -0.1707  0.2302  0.4253
18845W        W35106   7.848  18.352   2.557 -0.0218 -0.1342 -0.0349
18846W        W35107   8.804  17.800  10.190  0.2036  0.0345 -0.1689
18847W        W35108  11.673  16.196  11.760  0.0898  0.2229 -0.0069
18848W        W35109   4.695  11.494   0.929 -0.2204 -0.1867  0.2252
18849W        W35110   6.073   3.332  13.773 -0.0771  0.1922 -0.2027
18850W        W35111   4.885   3.702  11.007  0.0933  0.1366 -0.0920
18851W        W35112  17.752  12.667   5.551 -0.0499 -0.0827  0.0844
18852W        W35113  10.798  15.874  14.390  0.2445 -0.2253  0.0398
18853W        W35114  17.629  17.464   4.018 -0.2396 -0.0068 -0.0416
18854W        W35115  12.658   4.351   2.526  0.0900 -0.2685 -0.2488
18855W        W35116   8.949  13.462   9.628 -0.2001  0.1403 -0.0956
18856W        W35117  18.377  12.088   2.306 -0.1343  0.1681 -0.4306
18857W        W35118  15.997  16.476   4.849  0.0645 -0.0021  0.2468
18858W        W35119   1.173   0.504   1.574  0.2294 -0.6262 -0.2055
18859W        W35120  10.609  14.007   5.223 -0.1885 -0.1129 -0.1168
18860W        W35121  14.632  17.723  11.207  0.1395  0.3752  0.4479
18861W        W35122  14.724   1.655  11.939 -0.4245  0.4878 -0.3277
18862W        W35123  17.203   3.625  12.918 -0.1868 -0.3988  0.3561
18863W        W35124  13.137   1.860  12.573  0.2898 -0.1250 -0.0483
18864W        W35125  18.366  12.103  10.715  0.0546 -0.0322 -0.1589
18865W        W35126  11.220   9.309  12.996  0.1177  0.0311  0.0067
18866W        W35127   3.565   9.361  12.559  0.2785  0.0857 -0.2863
18867W        W35128   7.115  16.912   2.096 -0.1251 -0.2606  0.1901
18868W        W35129   3.803   4.281  12.038 -0.0267  0.2539 -0.0188
18869W        W35130  19.146   0.105   4.821  0.1067  0.1824 -0.1734
18870W        W35131  12.840   1.946   4.324  0.0219 -0.1598 -0.2812
18871W        W35132   6.644  13.181  13.707  0.2627 -0.1818  0.0411
18872W        W35133   4.806  10.047   4.551 -0.0332  0.0906  0.1861
18873W        W35134   7.434   8.828  10.320  0.0957 -0.1676  0.1300
18874W        W35135   5.656   3.048   4.073 -0.0830  0.0999 -0.1423
18875W        W35136   5.540  16.346   1.883  0.1363 -0.1356 -0.1637
18876W        W35137   1.803   4.772   2.487  0.1630 -0.1889 -0.0960
18877W        W35138  16.135   9.996  11.125  0.0108  0.3066 -0.1449
18878W        W35139  16.615  13.250   1.342  0.0958  0.2601  0.2066
18879W        W35140  12.906  19.466   5.325  0.1412 -0.0173  0.2506
18880W        W35141  18.213   5.946   2.166  0.2127 -0.3507 -0.0554
18881W        W35142  17.965   4.945  11.343 -0.2585 -0.3332  0.3446
18882W        W35143   7.328   2.598  10.054 -0.1607  0.1841  0.1111
18883W        W35144  16.459  18.087   5.094 -0.1483  0.0597 -0.0320
18884W        W35145   7.871  13.204  10.901 -0.1885 -0.3302 -0.0127
18885W        W35146  17.782  18.440   1.288  0.3283 -0.0840  0.0709
18886W        W35147  14.517   2.768   0.219 -0.1542 -0.0719  0.2196
18887W        W35148  18.902   9.998  13.838 -0.0176  0.1457 -0.0235
18888W        W35149  11.626   2.215  10.357 -0.0252 -0.4935  0.1027
18889W        W35150  15.612  12.205  14.291 -0.0735  0.0761  0.1141
18890W        W35151  12.174  18.535   4.310  0.0023 -0.2188  0.1889
18891W        W35152  16.715   1.988   5.458  0.0565 -0.2924 -0.0636
18892W        W35153   4.588  11.245  13.888 -0.1036 -0.2703  0.1717
18893W        W35154   1.728  14.292  10.722 -0.0457  0.2055  0.1001
18894W        W35155  14.408   1.988   1.896 -0.0664  0.0947 -0.2070
18895W        W35156  17.861   6.653  10.404 -0.1750  0.0317 -0.1866
18896W        W35157   8.487  11.382  12.147 -0.0775  0.2162  0.0590
18897W        W35158   4.662  15.401  10.977  0.2579 -0.1220 -0.2034
18898W        W35159   7.678   6.698   3.806 -0.2961 -0.0447 -0.1738
18899W        W35160  10.130   5.750  14.546 -0.0117 -0.0209  0.1625
18900W        W35161  13.168  10.302  11.306  0.1255 -0.0250 -0.1051
18901W        W35162   2.414  17.944   3.082 -0.0882 -0.1559  0.2556
18902W        W35163   7.255   4.517   1.992 -0.0857 -0.2890 -0.1750
18903W        W35164   0.816   5.665  10.121 -0.1314  0.0073 -0.1247
18904W        W35165   9.798   1.890   3.432  0.0355  0.4927  0.0311
18905W        W35166   8.666  18.548   0.235 -0.0248  0.1285 -0.1796
18906W        W35167  14.653   5.750   2.731  0.0734  0.0320  0.1483
18907W        W35168  11.252  11.101  12.210  0.1640 -0.3428  0.2458
18908W        W35169   3.021  11.885   0.310 -0.3296 -0.0445 -0.0467
18909W        W35170   0.335   2.738   4.688 -0.0048  0.1405 -0.1557
18910W        W35171   8.146  18.892  12.645 -0.0169 -0.0695  0.1128
18911W        W35172   5.211  10.819   2.199 -0.0827  0.0721 -0.0457
18912W        W35173   7.208   9.682   2.764 -0.2479 -0.2194 -0.0807
18913W        W35174  18.432   8.333  12.512 -0.2821 -0.4303  0.1273
18914W        W35175  12.819  18.060   2.093  0.3734  0.0904  0.0322
18915W        W35176  17.651   2.488   1.551  0.2496 -0.0386  0.0995
18916W        W35177   6.771   2.116   2.363 -0.0404 -0.1437  0.1651
18917W        W35178   0.969  13.210  14.085  0.3061 -0.1969 -0.0731
18918W        W35179   5.403   9.425  13.723 -0.0912  0.0592 -0.0383
18919W        W35180  19.001   8.956   1.053 -0.2372  0.4981  0.0630
18920W        W35181   9.985  13.801   1.126  0.0970  0.2697 -0.1081
18921W        W35182   2.467   4.562   4.349 -0.0854  0.0899  0.0306
18922W        W35183   4.798  13.079   2.435 -0.1887 -0.0323 -0.1988
18923W        W35184  16.633   3.611  13.033  0.2595 -0.0858  0.0327
18924W        W35185   8.083  18.758  14.207  0.2363 -0.2818  0.3737
18925W        W35186  17.976   4.977   4.592  0.1220 -0.0391  0.1580
18926W        W35187  14.222   8.285  12.246 -0.6868 -0.2671  0.0263
18927W        W35188  19.470   0.889  13.517 -0.0562 -0.2105 -0.3334
18928W        W35189   7.160   1.982   2.665 -0.2515  0.1875 -0.2540
18929W        W35190   6.595   6.249  10.630 -0.1752  0.1590 -0.2986
18930W        W35191  13.244  14.199   5.568  0.1169 -0.0084  0.1182
18931W        W35192   2.066   8.802   1.860  0.0178  0.3607 -0.0910
18932W        W35193  16.438  11.054   2.803 -0.0354  0.3418 -0.2000
18933W        W35194  12.504  15.362   3.966  0.0571 -0.1767  0.1163
18934W        W35195  15.397   8.950   3.475 -0.5736  0.2315  0.0498
18935W        W35196   2.601  16.823  12.676  0.1621  0.1835  0.0230
18936W        W35197   4.628  15.325   4.015 -0.2010  0.2655 -0.3834
18937W        W35198  16.636   3.848   3.519  0.0294  0.0781  0.0965
18938W        W35199   6.332   6.476   4.749  0.0905  0.2071 -0.4928
18939W        W35200  14.203   3.108  14.314 -0.0857 -0.0509  0.3558
18940W        W35201   6.378  19.277   5.256  0.2462  0.3388 -0.4414
18941W        W35202   2.569   2.715   9.743  0.1266  0.1770  0.0311
18942W        W35203   9.096   4.717  12.117  0.0741 -0.0051 -0.3364
18943W        W35204   0.402   4.613   2.471 -0.6251 -0.2444  0.2307
18944W        W35205   5.913   4.072   1.979  0.1053  0.0034 -0.0926
18945W        W35206   8.401   3.792   0.196  0.0607  0.2835 -0.1050
18946W        W35207  13.061  13.553   3.398 -0.1097 -0.0261 -0.1547
18947W        W35208  18.705   6.160  11.781  0.4307  0.0424 -0.0774
18948W        W35209  19.360  10.818   3.152 -0.0730  0.1458  0.1086
18949W        W35210   7.460   6.743  12.893 -0.3609  0.3983  0.2564
18950W        W35211  17.064  19.272   1.726 -0.2154  0.0898  0.0924
18951W        W35212   1.830   2.434   1.973 -0.0141 -0.3680  0.0196
18952W        W35213  17.293  10.788   1.460 -0.1129 -0.3887  0.2052
18953W        W35214  14.737  14.094   1.360 -0.1485  0.1069  0.1625
18954W        W35215   2.870   8.170   2.131 -0.4128  0.1420 -0.1143
18955W        W35216  11.311  16.700  10.387  0.1599  0.1236 -0.2240
18956W        W35217  17.874   2.339  11.226  0.0673  0.1326 -0.0297
18957W        W35218   9.025  17.638   3.761  0.0420  0.0053  0.0328
18958W        W35219   0.974   6.591  12.654  0.1035  0.1453 -0.1126
18959W        W35220  17.556   3.048   0.165  0.0396 -0.0177 -0.1439
18960W        W35221  17.722   2.934   2.387 -0.2866  0.2026  0.3303
18961W        W35222   6.909   1.775  11.823 -0.0088 -0.1511 -0.0744
18962W        W35223  11.103  13.436  12.216 -0.4586  0.1880  0.0184
18963W        W35224  15.759  19.211  12.988 -0.1491 -0.3234 -0.1047
18964W        W35225   8.233   3.306   3.989 -0.0209  0.1042 -0.0778
18965W        W35226   9.336  10.440  11.883 -0.5216  0.1566  0.0244
18966W        W35227  17.726   9.071   2.236 -0.2449  0.0990 -0.0115
18967W        W35228   8.828  14.568   4.130  0.2104 -0.0108 -0.1405
18968W        W35229   2.713   8.676   4.906  0.2682 -0.1518  0.2244
18969W        W35230  10.956  15.549  10.738 -0.2061  0.1599  0.1387
18970W        W35231  10.058  14.783   0.711 -0.0721 -0.2637  0.2259
18971W        W35232   9.429   0.594   2.995  0.0125  0.2372 -0.1502
18972W        W35233  16.203  13.360  10.136 -0.0816  0.0068 -0.0678
18973W        W35234  10.384   4.741  13.428  0.2783 -0.1124  0.0542
18974W        W35235  12.672  13.494   2.367 -0.0934  0.2125  0.3739
18975W        W35236  19.310   5.481  10.338  0.0135  0.4350 -0.0251
18976W        W35237  19.006   6.434  11.443 -0.0249  0.0617 -0.2014
18977W        W35238  12.536  18.826  12.689  0.0321 -0.3003  0.1269
18978W        W35239  17.365  17.046   2.541 -0.2342 -0.1618  0.3155
18979W        W35240   3.973  13.980   0.310  0.0175  0.0453  0.1420
18980W        W35241   2.777  17.466  13.223  0.1938  0.1051 -0.2339
18981W        W35242  15.840   2.960  12.121 -0.0803  0.2348  0.1723
18982W        W35243  16.773   2.543  11.576 -0.2127  0.0242 -0.0076
18983W        W35244  19.063   1.037   2.223 -0.1229  0.1048 -0.1330
18984W        W35245   1.511   6.163  10.292 -0.3000  0.2913 -0.0477
18985W        W35246  15.978   2.151   1.275 -0.3831 -0.0963 -0.0813
18986W        W35247   1.920   1.987   9.981 -0.0386 -0.1741 -0.2248
18987W        W35248   0.377   6.282   5.232 -0.1486 -0.0702 -0.0977
18988W        W35249  11.176   3.583   0.575 -0.2087 -0.0895  0.3823
18989W        W35250  15.285   2.937   9.570 -0.2014  0.0087  0.0308
18990W        W35251   2.756   9.364  13.427  0.2440 -0.0635  0.1367
18991W        W35252  16.814   7.488  13.352 -0.0275  0.0835  0.1761
18992W        W35253  15.399   3.938  10.586 -0.1834  0.3045  0.1178
18993W        W35254  12.846   5.756   4.128  0.0213  0.0322 -0.2392
18994W        W35255  11.817  13.095   1.906  0.3923 -0.2042  0.0191
18995W        W35256  18.876   5.371  10.032  0.0891 -0.4759 -0.1626
18996W        W35257  13.493   4.847   2.035  0.2226  0.0794 -0.1632
18997W        W35258  13.132  13.211   0.951 -0.0510  0.2521 -0.0912
18998W        W35259   2.815   3.923  12.666 -0.1720 -0.0326 -0.2175
18999W        W35260   8.526   1.533  11.120 -0.1804 -0.1620 -0.1537
19000W        W35261  13.953   5.848   9.443  0.2681  0.1383  0.3274
19001W        W35262  19.460   9.543  11.982  0.2371  0.2477 -0.1816
19002W        W35263  12.855  18.745  12.338 -0.1093  0.0968  0.1741
19003W        W35264  10.867  17.895   4.944 -0.1815  0.0512  0.0088
19004W        W35265   6.290  13.322  14.564 -0.0490  0.1442 -0.0793
19005W        W35266  13.061  11.510  10.743 -0.0098  0.1576  0.1139
19006W        W35267   3.333   5.355   4.825  0.0104  0.4720  0.1176
19007W        W35268   3.442  15.569  13.154 -0.0354 -0.0777 -0.0895
19008W        W35269  19.161   4.006   8.985 -0.0236 -0.0687  0.0622
19009W        W35270  17.823  13.197   4.876 -0.2299 -0.3505 -0.0280
19010W        W35271  10.199   1.352   2.091  0.0185  0.2476 -0.1629
19011W        W35272   4.410  14.834   0.225 -0.1606  0.1450 -0.1301
19012W        W35273  10.077   9.019  11.585  0.2354 -0.2917 -0.2549
19013W        W35274   2.385  15.506   0.042  0.0874  0.1979  0.3523
19014W        W35275  16.409   6.570   0.843  0.1785 -0.2533  0.0999
19015W        W35276  17.273   4.264   1.331  0.3810  0.1615 -0.1298
19016W        W35277  18.793  10.475   4.799 -0.2376  0.3001  0.0326
19017W        W35278  12.696   5.023  13.187 -0.2064 -0.4164  0.0406
19018W        W35279  17.087  17.259   3.482  0.2163 -0.2833 -0.1191
19019W        W35280  15.550  18.545  11.865  0.0820  0.1970 -0.1245
19020W        W35281  13.539  11.587   3.033  0.2154  0.1115  0.1600
19021W        W35282   5.754  14.972   4.796 -0.0493 -0.0292 -0.2527
19022W        W35283  16.856  18.522   1.169 -0.2355 -0.0401 -0.0991
19023W        W35284  15.984   7.260   1.342  0.0342  0.1315  0.2036
19024W        W35285  11.071   2.408  12.694 -0.1653  0.1962  0.1159
19025W        W35286   4.335   3.057  12.762 -0.3343 -0.1456 -0.2028
19026W        W35287   9.790   7.944  14.167  0.1453  0.3165  0.3645
19027W        W35288   5.375   6.553  14.484 -0.4782  0.1295  0.0337
19028W        W35289  19.282  13.267   1.930 -0.1636 -0.2325 -0.0887
19029W        W35290  18.965  11.500  10.368 -0.0665 -0.0786  0.1717
19030W        W35291  18.577   1.821  10.389  0.0487  0.3329  0.1892
19031W        W35292  15.473   0.373   0.723 -0.3651 -0.1655 -0.3445
19032W        W35293   1.870  13.934  12.052  0.3141 -0.1605  0.0219
19033W        W35294  15.771   5.353  10.381 -0.1192  0.0197  0.0408
19034W        W35295   7.267  10.669  13.537  0.0102 -0.0344  0.2697
19035W        W35296   9.603   6.635   3.253  0.0488  0.1038 -0.3560
19036W        W35297  11.300   0.641   2.115  0.2282 -0.1844  0.0074
19037W        W35298  12.225   7.732   0.494  0.2050 -0.0860 -0.1211
19038W        W35299  18.276  12.346   5.371 -0.1398  0.0152  0.1059
19039W        W35300   9.098   7.335  10.307 -0.0178  0.0213 -0.2495
19040W        W35301   3.452   2.344  13.411 -0.1761 -0.1717 -0.1695
19041W        W35302  11.492  19.397   4.542 -0.2694 -0.1554  0.0152
19042W        W35303   5.072  16.824   5.039 -0.0805 -0.4461 -0.0878
19043W        W35304   3.402  14.212  11.489 -0.2378 -0.1387 -0.0054
19044W        W35305  15.447  15.214  11.372  0.4480  0.1735  0.1579
19045W        W35306   3.114   7.583   2.343  0.0452  0.2141  0.1054
19046W        W35307   4.215  12.970   5.284  0.2117 -0.1877  0.1239
19047W        W35308  12.839  15.627  14.132  0.1583  0.4078  0.2892
19048W        W35309  13.518  18.670  11.285  0.0171  0.1865  0.0194
19049W        W35310  16.532  11.816  14.577  0.3128  0.2483 -0.0256
19050W        W35311  11.317  17.806   4.719  0.0971 -0.0049 -0.1379
19051W        W35312  10.400   2.186  11.354  0.2297  0.6660 -0.0842
19052W        W35313  15.650  10.731   0.082  0.5286 -0.0556 -0.4330
19053W        W35314   3.090   6.883   2.973  0.1058 -0.0022  0.2925
19054W        W35315   8.593   0.285  14.628  0.0522 -0.2190  0.0362
19055W        W35316  19.251  14.461   1.292 -0.0588 -0.1660 -0.1728
19056W        W35317   0.160   1.375  14.173 -0.1969 -0.0068  0.0303
19057W        W35318  10.599   7.353   0.528  0.0697 -0.0972 -0.2922
19058W        W35319  18.476  14.600   2.831 -0.0889 -0.3737  0.3125
19059W        W35320   6.648   7.849   0.916 -0.3104 -0.0804 -0.0981
19060W        W35321  12.662  19.047  14.060 -0.0699 -0.0267 -0.0221
19061W        W35322   7.559  17.008  11.460  0.1589  0.0550  0.0844
19062W        W35323  16.304   6.531   0.308  0.1157  0.2219 -0.0096
19063W        W35324  18.833   3.142  10.165 -0.4342 -0.0003  0.2800
19064W        W35325   1.279  11.826  14.129  0.1073  0.0783  0.0193
19065W        W35326   0.533  17.058   3.768 -0.0395 -0.1671  0.3698
19066W        W35327  10.911   4.734  13.485 -0.0734  0.0471 -0.2359
19067W        W35328   8.154  10.849  12.440  0.0905 -0.2507 -0.1150
19068W        W35329   1.377   7.540   1.612 -0.0589 -0.4392 -0.0494
19069W        W35330   2.434  14.186  11.435 -0.0741  0.1954  0.2357
19070W        W35331  10.092   3.920  12.358  0.0012  0.0985  0.1257
19071W        W35332  16.223   1.808   1.071 -0.3740 -0.0712  0.2243
19072W        W35333   3.937  15.622   3.001 -0.1288  0.3970 -0.1446
19073W        W35334   8.749  16.481  10.841 -0.2082 -0.2836  0.0728
19074W        W35335  15.343   9.990   5.383 -0.1578  0.1601 -0.0954
19075W        W35336   4.828  16.998  13.441 -0.0630  0.0294 -0.4743
19076W        W35337  16.834  14.561  14.720  0.5619 -0.1316  0.1801
19077W        W35338  15.932  17.809   0.944 -0.1602  0.0454  0.2150
19078W        W35339   7.556   9.239  11.725 -0.0946  0.0413 -0.3402
19079W        W35340  12.826   7.145   3.101 -0.1421  0.0672  0.0900
19080W        W35341  12.276   6.413   9.433  0.0927  0.1802  0.2722
19081W        W35342   3.294   1.965   3.411  0.3662  0.1910  0.0918
19082W        W35343  18.328   1.450   0.332  0.0086 -0.0151 -0.1823
19083W        W35344  12.795   3.693   4.287 -0.1014  0.1731  0.0013
19084W        W35345   1.398  10.884   5.034 -0.1099 -0.1131 -0.0915
19085W        W35346  11.543  16.963  12.206 -0.1954 -0.0916 -0.1234
19086W        W35347   1.117   5.137   1.639  0.0127 -0.1814  0.2527
19087W        W35348   2.932  15.868  11.592 -0.2213 -0.2548  0.3575
19088W        W35349  14.771  15.936   5.251 -0.0617 -0.2692  0.0598
19089W        W35350  16.261  19.373   5.601  0.0616  0.0403  0.0135
19090W        W35351  15.295   0.125   5.229  0.0164 -0.3447 -0.0392
19091W        W35352   0.959   1.629  14.293 -0.0866 -0.0055  0.1442
19092W        W35353  16.564   2.959  13.312  0.1778 -0.2635 -0.3470
19093W        W35354   7.466  14.099   1.359  0.3241 -0.0381 -0.0729
19094W        W35355   5.068  13.015  13.758 -0.0841  0.0766 -0.0705
19095W        W35356   7.478  10.261  13.197 -0.0617  0.0786  0.1092
19096W        W35357  12.091   1.890  10.389  0.2107 -0.0116 -0.1326
19097W        W35358   6.159  15.422   3.104 -0.1417 -0.0742  0.1021
19098W        W35359   4.060   3.688   9.206  0.2283 -0.0353 -0.0786
19099W        W35360   4.314   1.076  12.649  0.3440 -0.1375 -0.1360
19100W        W35361  15.578   6.942  13.915  0.0077  0.4094  0.0343
19101W        W35362  18.568  12.575  12.348  0.1013  0.0991  0.1768
19102W        W35363   5.822   6.447   2.595  0.0537  0.2192 -0.0017
19103W        W35364   8.689  18.714  13.477 -0.0098 -0.0229 -0.2598
19104W        W35365   5.087  13.038   1.541 -0.3062  0.2909  0.1862
19105W        W35366  17.559  11.722   5.230  0.1620  0.0308  0.0596
19106W        W35367   6.540   7.953  11.630  0.2374 -0.1313 -0.2743
19107W        W35368   2.468   9.206   2.314  0.2023 -0.1399  0.1715
19108W        W35369   5.582   1.000   2.374 -0.1303 -0.0772 -0.0128
19109W        W35370  17.100   6.616   0.860  0.0528 -0.1865  0.0117
19110W        W35371  14.803   8.200   1.887  0.3077  0.0638  0.1662
19111W        W35372  18.842  18.559  13.916 -0.1073  0.2808  0.0685
19112W        W35373  17.007   8.584   2.004 -0.0143  0.0010  0.0595
19113W        W35374  13.373  13.889   3.708 -0.2233 -0.2003  0.1635
19114W        W35375  16.460  16.761   0.835 -0.3489  0.0488 -0.2109
19115W        W35376  14.064   7.000  14.429 -0.0654 -0.0124 -0.1848
19116W        W35377  17.891   5.026  10.578  0.0866 -0.1677 -0.1286
19117W        W35378  11.008  14.016  12.631  0.0339 -0.2628  0.0002
19118W        W35379   4.749   2.220  10.084 -0.0460  0.2915  0.0354
19119W        W35380   7.982  19.450   1.214 -0.1573  0.1298 -0.0089
19120W        W35381   5.709  12.657   0.795  0.0608 -0.1198 -0.1658
19121W        W35382   0.316  13.985   0.242 -0.0042 -0.0318 -0.0743
19122W        W35383  10.116  15.204   5.527 -0.1954 -0.1439  0.0039
19123W        W35384   4.898   3.152   9.608 -0.1331  0.1263 -0.0458
19124W        W35385   2.935  13.375   4.788  0.1623 -0.0934  0.4566
19125W        W35386  13.374  18.622   5.282 -0.1738  0.0478  0.1655
19126W        W35387   5.714   7.608  10.135 -0.2137 -0.1770 -0.0327
19127W        W35388   5.748   5.365   9.220 -0.0110  0.2371  0.1410
19128W        W35389   1.757  16.105  13.551 -0.0972 -0.0573 -0.2134
19129W        W35390   2.195   1.416   4.024  0.0612 -0.2546  0.2154
19130W        W35391  10.989   6.311   3.928 -0.0296 -0.3113  0.1019
19131W        W35392   5.849  15.262   1.152 -0.2799 -0.0909  0.0405
19132W        W35393  17.397   8.864   0.458 -0.0959  0.1591  0.1487
19133W        W35394  18.833   7.895   1.354  0.2059 -0.0469 -0.3047
19134W        W35395  12.943  10.818  13.128 -0.1316 -0.0346 -0.0256
19135W        W35396  16.135  11.088   4.155 -0.1725 -0.1704  0.3101
19136W        W35397   6.609  18.136   2.074 -0.2926 -0.4050  0.0236
19137W        W35398   5.033   9.861  11.070  0.2814  0.1243  0.0762
19138W        W35399   8.972   4.581  11.340  0.1896  0.1249  0.2773
19139W        W35400  13.565   0.249  11.459  0.3336 -0.3389 -0.1188
19140W        W35401   1.248  15.530  11.977 -0.3048 -0.2634 -0.0759
19141W        W35402   4.926   6.343  14.622  0.2847  0.3834 -0.1881
19142W        W35403   9.333  18.829  12.042  0.4984 -0.1379  0.2636
19143W        W35404   0.185  19.463  14.554  0.0392 -0.3353 -0.0712
19144W        W35405   8.560   3.363   9.724  0.1276  0.1149  0.1155
19145W        W35406   1.889  10.568   5.064 -0.0071 -0.1205  0.1604
19146W        W35407  18.238   8.770   4.500  0.0781  0.1065 -0.0563
19147W        W35408   5.743  12.360  10.217  0.2408 -0.5481 -0.1524
19148W        W35409  10.431   8.067   3.561  0.2164  0.2258  0.1545
19149W        W35410   2.306   2.688  13.867  0.3246 -0.1146 -0.0486
19150W        W35411   4.182   9.921  13.478 -0.1459  0.1952 -0.0087
19151W        W35412  16.013  15.948   4.068 -0.0980  0.0299  0.1742
19152W        W35413  12.649  10.030  10.893  0.2213  0.2745  0.3186
19153W        W35414   8.443   3.541  11.440  0.2227  0.0773 -0.0071
19154W        W35415   2.786  17.632   3.984 -0.3155  0.1551 -0.0886
19155W        W35416   2.647   4.984  14.519  0.1298 -0.3054  0.1531
19156W        W35417   0.968   6.971   0.493  0.0689  0.1062  0.2752
19157W        W35418   9.320   9.154  14.579  0.0076  0.2382  0.1905
19158W        W35419   7.257   0.339  12.961  0.0363 -0.2517 -0.0213
19159W        W35420   7.825   1.263   9.658 -0.2370 -0.0537 -0.0343
19160W        W35421  17.546   4.195   0.315  0.1382 -0.2340 -0.0512
19161W        W35422   9.864   7.089   0.990 -0.2521  0.3305 -0.2479
19162W        W35423   1.756  15.445   4.893 -0.1407 -0.1072 -0.0598
19163W        W35424   2.069  11.118   2.929 -0.2511 -0.1658  0.5037
19164W        W35425  10.139  15.291   0.492  0.0183  0.0178  0.0786
19165W        W35426   5.046   0.854  12.919 -0.0993  0.0148 -0.1486
19166W        W35427   8.224   7.034  10.416  0.1282 -0.1942 -0.0459
19167W        W35428  11.646   3.548  13.674  0.4148  0.2466 -0.0067
19168W        W35429  14.596  11.645   3.513  0.1238 -0.2200  0.0749
19169W        W35430   4.763   0.913   3.588  0.3043  0.2099 -0.0765
19170W        W35431  15.111   6.011  13.543 -0.2877  0.1187  0.3604
19171W        W35432   6.962  11.936  13.284 -0.3047  0.0148 -0.1622
19172W        W35433  18.172  12.819  11.328  0.0747 -0.1971  0.0121
19173W        W35434   5.034   6.502   9.261 -0.1860 -0.2560 -0.0637
19174W        W35435  13.030   3.623  11.187 -0.2236  0.1579 -0.1977
19175W        W35436  18.352   6.028  12.110  0.1278  0.1355  0.1346
19176W        W35437   5.896   4.331   0.134 -0.2870 -0.1276 -0.5914
19177W        W35438  17.534   8.022  12.622  0.1818 -0.1506  0.1147
19178W        W35439   1.287  14.561  10.956  0.2188  0.1926 -0.0757
19179W        W35440   2.486   6.739  14.229 -0.2104  0.0039  0.3623
19180W        W35441   0.643   4.063  13.215  0.1981  0.0129  0.2798
19181W        W35442   6.052   3.381   2.578  0.3500 -0.0229 -0.1049
19182W        W35443  11.976  17.551   4.966 -0.3225  0.2757  0.0602
19183W        W35444  13.398   7.033  11.894 -0.4175  0.1784 -0.1433
19184W        W35445   5.957   2.848  11.651 -0.1369 -0.2324 -0.1045
19185W        W35446  14.342  10.713  13.433 -0.0087  0.0086 -0.4197
19186W        W35447  13.339   9.312   4.356 -0.2521 -0.3741 -0.0279
19187W        W35448   2.852   7.751   1.375  0.3649 -0.1124 -0.0257
19188W        W35449   6.288  11.677  11.647 -0.1998 -0.0155  0.0389
19189W        W35450  17.929   1.316  11.604  0.2448 -0.1890  0.1961
19190W        W35451   9.197   6.281   0.187 -0.0851 -0.1186  0.0246
19191W        W35452  16.263   2.728   1.159  0.0875  0.2842  0.1635
19192W        W35453   0.692  10.067  11.813 -0.0572 -0.0220  0.2194
19193W        W35454  16.597   4.505  12.983 -0.2808  0.3189 -0.0454
19194W        W35455   0.185   3.240   0.958  0.0557 -0.2547  0.0776
19195W        W35456  10.547  11.875   4.830 -0.2813  0.1226 -0.1692
19196W        W35457  10.729   9.417  13.760 -0.3165 -0.0683  0.0956
19197W        W35458  18.019  17.159  13.808 -0.0440 -0.0980 -0.2427
19198W        W35459  15.105   3.089   2.592  0.0163  0.0736  0.0131
19199W        W35460  16.878   4.258   0.885  0.6648  0.2281  0.0726
19200W        W35461  18.512  17.609  11.631 -0.0247 -0.1021  0.0047
19201W        W35462   1.139   9.897  11.683  0.1714 -0.0606 -0.0601
19202W        W35463   4.573  15.349  13.782  0.0471 -0.1025  0.2932
19203W        W35464   3.747  12.011   0.760 -0.2083 -0.0047  0.2754
19204W        W35465   2.292  16.913  12.191 -0.0050  0.0864  0.0651
19205W        W35466   6.875  18.646  13.067 -0.0983  0.1613 -0.0694
19206W        W35467  11.424  12.343   3.136 -0.3110 -0.3016  0.0971
19207W        W35468  18.540   8.182   5.345 -0.0979 -0.2009 -0.2582
19208W        W35469  12.032  12.992  11.266  0.1085  0.0470  0.0570
19209W        W35470   5.902  10.720  14.354 -0.0102 -0.1472  0.2191
19210W        W35471   1.190  12.142  14.510  0.3593  0.2680  0.0487
19211W        W35472   7.402   7.821  11.564 -0.0188  0.1603  0.1859
19212W        W35473   6.268  13.318   3.542  0.0630 -0.1014 -0.0296
19213W        W35474  18.560   3.947   1.927  0.0277 -0.0784 -0.3247
19214W        W35475  17.259   8.748   1.178 -0.3911  0.1481 -0.1836
19215W        W35476   2.567  13.833   4.199  0.1802 -0.1050  0.2325
19216W        W35477  18.531  11.964   3.696  0.0172 -0.0782 -0.1259
19217W        W35478   8.120   6.112   4.486  0.4024 -0.0734 -0.1324
19218W        W35479   2.044  11.461   0.525 -0.1736  0.0688 -0.5464
19219W        W35480  19.086   3.417  13.062 -0.2065 -0.0533  0.1794
19220W        W35481   6.058   4.994   3.717 -0.3469  0.0796  0.1062
19221W        W35482   1.299   6.951  12.874 -0.3298 -0.0797  0.0558
19222W        W35483  15.328  13.973  12.908  0.0170 -0.2264 -0.1171
19223W        W35484  18.844   9.390   0.798 -0.0624 -0.0818 -0.0404
19224W        W35485   9.453   0.196   4.266  0.3446  0.1649 -0.1727
19225W        W35486  18.643   4.293   4.268 -0.1668  0.0034  0.2476
19226W        W35487   0.605   6.757  14.494  0.3093 -0.0024 -0.2079
19227W        W35488  16.275  10.915  10.943  0.1797  0.1490 -0.0900
19228W        W35489  12.930   7.914  10.363  0.2223 -0.3354 -0.0567
19229W        W35490   6.287   7.558   0.721  0.1390 -0.0904  0.1343
19230W        W35491  11.940  18.672  14.801  0.0153  0.1124 -0.2760
19231W        W35492   2.357  17.355   1.028  0.2298  0.2386 -0.1648
19232W        W35493  16.472   5.965   3.037 -0.1576  0.1163  0.0644
19233W        W35494  18.500  12.115  11.187 -0.1439 -0.4457  0.0549
19234W        W35495  13.267   5.138   9.968  0.3671 -0.2687 -0.0691
19235W        W35496  17.655   2.545  12.023  0.0915  0.3523  0.2934
19236W        W35497   9.117  19.051  14.224 -0.2953  0.1460  0.1215
19237W        W35498  18.156  16.282   2.070 -0.0355 -0.2660 -0.3380
19238W        W35499   0.422  17.403  12.513 -0.2006 -0.1228 -0.0243
19239W        W35500   9.416   7.257  12.888  0.4043 -0.4659 -0.0386
19240W        W35501   1.359   9.847  14.800 -0.0308 -0.1750 -0.2271
19241W        W35502  15.085   4.735   4.209  0.0417 -0.1306 -0.0499
19242W        W35503   3.981   3.293  13.554 -0.2433  0.4499 -0.0197
19243W        W35504   2.274   9.705   4.052 -0.0171  0.1016  0.2865
19244W        W35505  18.602  15.451   3.185 -0.1440 -0.3579  0.2467
19245W        W35506  15.604  14.769  12.652 -0.0282 -0.1239 -0.1942
19246W        W35507   6.909   5.630   3.383 -0.2044  0.1357  0.0899
19247W        W35508   5.743  10.330   2.443 -0.0649 -0.1708  0.0731
19248W        W35509  10.600   4.226   2.511  0.2185  0.1551 -0.0074
19249W        W35510   2.497  10.723  11.140 -0.0133 -0.0507 -0.2076
19250W        W35511  11.758  13.228   3.201  0.0722 -0.3061 -0.1297
19251W        W35512  16.383   8.294   9.854  0.2130 -0.0123  0.0579
19252W        W35513   5.871   6.246  11.570  0.6446  0.0934 -0.1515
19253W        W35514  15.842   1.529  14.078  0.0881 -0.2147 -0.1724
19254W        W35515   2.904  10.041   0.815  0.2093  0.0962  0.1367
19255W        W35516   2.423   2.405   4.792  0.4752 -0.1739 -0.2155
19256W        W35517   7.079  19.107  11.217 -0.0284 -0.1611 -0.0544
19257W        W35518   6.961   1.179  11.825  0.2163 -0.0753  0.0377
19258W        W35519  15.597  14.043  13.410 -0.2080 -0.0826  0.3559
19259W        W35520  14.069   9.964   1.875 -0.0113  0.0237  0.0231
19260W        W35521   1.831  14.598  11.890  0.2406 -0.4044  0.1783
19261W        W35522  10.934  10.145   1.502 -0.2357 -0.0709  0.1390
19262W        W35523  11.183  12.902  12.397 -0.4689 -0.2806 -0.0825
19263W        W35524  10.844   0.648   1.382  0.0506  0.3366  0.1594
19264W        W35525   2.216   3.832   3.816  0.1466 -0.2128 -0.0908
19265W        W35526   9.988   1.428   3.228  0.0566  0.0679  0.3236
19266W        W35527   5.454   3.257   0.329  0.0035  0.0428 -0.0180
19267W        W35528   3.795  15.739  14.437 -0.1060  0.3171  0.3260
19268W        W35529  17.187   1.305  13.899 -0.3289 -0.2020  0.0693
19269W        W35530  13.001  10.455  14.680 -0.1238  0.3351 -0.0013
19270W        W35531  12.005  18.452  12.252 -0.2472  0.2640 -0.4464
19271W        W35532  16.333  12.957   0.308 -0.0352  0.0916  0.2400
19272W        W35533   9.345   1.748   3.255  0.0936 -0.0885  0.0533
19273W        W35534  13.104  18.402   4.449  0.1503 -0.0105  0.2387
19274W        W35535  13.955   1.683  12.088 -0.2401  0.0729 -0.5009
19275W        W35536  12.612  15.165  12.877 -0.0177 -0.2356  0.1375
19276W        W35537   6.305   4.467  10.683  0.1696  0.2069  0.0857
19277W        W35538  13.485   7.712  10.011  0.1199  0.0655 -0.1258
19278W        W35539   6.642  13.953  12.634 -0.2870 -0.1415 -0.4306
19279W        W35540  12.685  14.909   1.172  0.1663 -0.0061  0.0187
19280W        W35541  17.131  15.703   5.142  0.0961  0.4359 -0.0558
19281W        W35542  14.630   4.422   0.993  0.0568  0.3336 -0.2931
19282W        W35543  11.584  17.322   3.986 -0.1898  0.0883 -0.2543
19283W        W35544  11.404  10.418   1.432 -0.0932 -0.1147  0.1726
19284W        W35545  15.885  15.036   0.340 -0.0919 -0.2165  0.0501
19285W        W35546  19.293  14.758  14.783 -0.0630 -0.0095  0.3313
19286W        W35547  11.871  12.861   4.371 -0.1519 -0.2466 -0.0291
19287W        W35548   2.195   0.653  13.479 -0.1412  0.1031 -0.5735
19288W        W35549  16.620   8.331   1.739 -0.0386  0.0358 -0.0322
19289W        W35550  18.246  16.989   2.357 -0.0363 -0.1306  0.1919
19290W        W35551   2.310   9.836  11.138 -0.1480  0.1453 -0.2534
19291W        W35552  15.981   9.512   3.312 -0.1391  0.0371 -0.0307
19292W        W35553  15.541   6.135  10.710  0.0321  0.2594  0.0105
19293W        W35554  17.203  12.885  14.766  0.3140 -0.0821  0.1565
19294W        W35555   5.954  14.701   0.994 -0.3662 -0.0986 -0.0621
19295W        W35556   9.388   6.789  11.659  0.1930 -0.1149 -0.1377
19296W        W35557   1.541  18.888   3.592 -0.1957 -0.0906 -0.3448
19297W        W35558   3.430   3.084  14.757 -0.0990 -0.2074 -0.2319
19298W        W35559   6.828   5.971  11.943 -0.0646  0.2409 -0.0466
19299W        W35560   3.949  12.273   1.837  0.0502 -0.2220 -0.3351
19300W        W35561   7.196  19.084  12.276  0.2361 -0.0800  0.2457
19301W        W35562  13.004  11.430  14.314 -0.0891  0.0293 -0.3279
19302W        W35563  10.992   1.990   0.536  0.0299 -0.2309 -0.2860
19303W        W35564  12.212  15.812  13.448 -0.1029  0.2772 -0.0906
19304W        W35565  15.000   3.847   4.000 -0.1288 -0.0977  0.0350
19305W        W35566   3.314   0.158  12.361 -0.3747  0.0883 -0.0652
19306W        W35567   4.085   8.287   9.851 -0.2184  0.1910  0.2277
19307W        W35568   8.059   4.911  11.381 -0.0214  0.0448 -0.0183
19308W        W35569  15.918   7.921  14.062  0.1607  0.2671 -0.1636
19309W        W35570  17.507  18.868  10.027  0.3121  0.2850  0.3127
19310W        W35571  18.868  15.771   2.797  0.0965 -0.2348  0.5484
19311W        W35572  14.945  10.439   3.451  0.0295  0.2276 -0.1984
19312W        W35573   6.219   7.276   4.118  0.2424  0.3830  0.1022
19313W        W35574  19.402   1.604   1.618 -0.2000 -0.2421  0.3225
19314W        W35575   0.628  10.904   4.505 -0.0302 -0.1990  0.4735
19315W        W35576   8.891   2.077   1.594  0.1374  0.1550  0.1584
19316W        W35577   9.342   2.620   4.422  0.0566 -0.0515  0.1103
19317W        W35578  15.421  11.626  12.346  0.0523  0.1914 -0.2697
19318W        W35579   7.475  17.063  12.381  0.2853  0.0473 -0.2255
19319W        W35580  18.416  10.448  10.672  0.2175 -0.0936  0.0809
19320W        W35581  17.710  19.124  10.404  0.0994  0.1204 -0.1894
19321W        W35582  16.176   8.983  13.751  0.1830  0.3072 -0.0026
19322W        W35583  12.333  13.040   3.910  0.3771  0.1771  0.3037
19323W        W35584  12.947   0.567  11.235  0.1724 -0.1730 -0.1056
19324W        W35585  13.808   9.896   1.479  0.4029  0.0286  0.0225
19325W        W35586  16.424  17.013  14.363 -0.2138 -0.1197 -0.2612
19326W        W35587  14.754  10.832  12.694 -0.1804  0.0876 -0.0308
19327W        W35588  13.836   2.665   9.982 -0.0369  0.1373 -0.1487
19328W        W35589  12.366  10.435   4.821 -0.1246  0.0131  0.2072
19329W        W35590  17.619  16.645   3.910 -0.1082  0.3381 -0.2734
19330W        W35591  17.082  16.749   0.659 -0.1411 -0.1234  0.1293
19331W        W35592  18.775  13.795  11.651 -0.1738 -0.0008 -0.0961
19332W        W35593  15.838  18.529  12.272 -0.1718  0.1799  0.0311
19333W        W35594   8.424  11.020   2.690 -0.0409 -0.0302 -0.3385
19334W        W35595  17.539   5.322  13.384 -0.1374 -0.0012 -0.2036
19335W        W35596   7.473   2.578  11.302 -0.0443  0.1542  0.3715
19336W        W35597   8.742  19.184   4.489  0.2513  0.0118 -0.0913
19337W        W35598  18.468   8.660   3.557  0.1362  0.0840 -0.0631
19338W        W35599   4.770   9.915  14.069  0.0267 -0.1693 -0.3929
19339W        W35600  13.882   8.322   2.574 -0.2231  0.1992 -0.0335
19340W        W35601  15.279  14.431   4.255 -0.0445  0.1906 -0.3172
19341W        W35602  10.528   8.214   2.479 -0.0205  0.0642 -0.1187
19342W        W35603  17.072  15.399   0.028 -0.2801 -0.0948 -0.0508
19343W        W35604   9.500   5.266   1.422 -0.0393 -0.2226 -0.3495
19344W        W35605   1.070  14.629   4.991 -0.1344 -0.1908 -0.0357
19345W        W35606   5.070   6.965   2.093  0.2672 -0.0098  0.2737
19346W        W35607  10.757   0.053   0.548 -0.2690 -0.2102 -0.1737
19347W        W35608  15.991   0.543  14.005 -0.0242 -0.0213  0.1087
19348W        W35609  12.168   2.029   2.700  0.1188 -0.1217 -0.0180
19349W        W35610  16.048  18.385   3.696 -0.0543  0.0720 -0.3874
19350W        W35611   8.557   4.867  11.364  0.0137  0.5200  0.1043
19351W        W35612  11.738  15.882  12.114 -0.0542 -0.0441  0.0358
19352W        W35613   0.760   0.079  12.968 -0.1133  0.0182 -0.0316
19353W        W35614  17.007   6.078   4.196  0.0628 -0.1783  0.0399
19354W        W35615   7.331  11.853   5.096  0.0256 -0.1213 -0.3454
19355W        W35616   7.505   8.673  13.228  0.2982 -0.3206  0.0648
19356W        W35617  16.679   8.637   0.530 -0.1456 -0.1384  0.3369
19357W        W35618  12.794   0.341   4.182  0.0525 -0.0033 -0.0506
19358W        W35619   8.272   6.934   0.888 -0.2506 -0.4182 -0.0601
19359W        W35620   4.206  17.623   0.570 -0.1675  0.2531 -0.3224
19360W        W35621  13.253   2.835   1.070 -0.3584 -0.3430  0.0101
19361W        W35622  16.452   7.063  13.370  0.1940  0.1321  0.3391
19362W        W35623   0.336  14.585   2.178  0.1947  0.0114 -0.1383
19363W        W35624   4.608   0.961  13.727  0.3521  0.4612 -0.0642
19364W        W35625   0.544   6.523  11.768 -0.1776  0.0689 -0.0930
19365W        W35626  16.552  15.705   1.920  0.2338 -0.0225 -0.0388
19366W        W35627  13.153  14.766  12.082 -0.0222 -0.0240 -0.1598
19367W        W35628  17.320  14.246  14.065  0.0754 -0.0935  0.2916
19368W        W35629  16.288   1.343  14.206 -0.0171  0.0751  0.1242
19369W        W35630  18.798  18.280   1.350 -0.2113 -0.1044 -0.1023
19370W        W35631  15.793  14.102  13.930 -0.0302 -0.2561 -0.0909
19371W        W35632  15.668   0.761  14.299 -0.0724  0.1322 -0.4544
19372W        W35633  14.349   3.712   1.594 -0.1013  0.2499  0.0844
19373W        W35634  14.835   6.036   2.146  0.1465  0.5018  0.3600
19374W        W35635   5.047  17.448  13.348  0.2640 -0.1031  0.1631
19375W        W35636  12.133  17.492   4.491  0.1857  0.2415 -0.0061
19376W        W35637   3.929  11.887  10.893  0.0635 -0.0250 -0.0001
19377W        W35638   0.144   6.894  13.633 -0.2349  0.0211  0.0484
19378W        W35639  18.262  15.527   2.808  0.2164 -0.2381  0.1798
19379W        W35640  15.090   2.205  12.245 -0.0857 -0.3368 -0.0258
19380W        W35641  10.935  15.419  12.146  0.1694 -0.2072  0.3525
19381W        W35642   2.098  18.206  10.763  0.0370 -0.1177  0.3914
19382W        W35643   3.968   9.118   4.666 -0.1038 -0.1359  0.1789
19383W        W35644   5.020   9.234  14.595  0.1108  0.0944 -0.1866
19384W        W35645   0.772  12.018   2.931  0.2242 -0.1087 -0.2751
19385W        W35646  14.357  16.122   0.198  0.0150  0.0897  0.1398
19386W        W35647   0.024  14.211  13.485  0.5690  0.1604 -0.1880
19387W        W35648  15.466   4.796   1.364  0.0578 -0.0340  0.0573
19388W        W35649  15.113  16.640  13.321 -0.2160 -0.0659 -0.2128
19389W        W35650   8.883  18.530   1.542 -0.4171 -0.1031  0.0804
19390W        W35651   8.591  17.164  11.650 -0.2532  0.1246  0.0535
19391W        W35652  10.167   3.751   4.806  0.1015 -0.1888  0.0228
19392W        W35653   3.637  16.236  10.293 -0.2161  0.1586  0.0268
19393W        W35654  15.181  14.357  11.059 -0.2956 -0.1190  0.3278
19394W        W35655   0.933   5.707  14.572  0.0955  0.0366 -0.2574
19395W        W35656   3.794   7.674  11.201  0.1715 -0.1644  0.1853
19396W        W35657   1.918  10.728   2.135  0.4112 -0.0385  0.1551
19397W        W35658   5.833  14.008   5.050 -0.3916  0.0097  0.0198
19398W        W35659  15.869   7.694   0.067 -0.2048 -0.1630  0.0031
19399W        W35660  11.156   2.629   2.566  0.0268  0.0831 -0.1816
19400W        W35661   6.263   0.509  11.983  0.0526 -0.0383 -0.0295
19401W        W35662   2.320  10.733  11.660 -0.4642  0.3898 -0.0392
19402W        W35663  16.396  16.331   4.545 -0.0286  0.3472  0.1412
19403W        W35664   9.264   3.889   2.264  0.2882  0.2450  0.1290
19404W        W35665  12.508   6.172  14.001 -0.4742 -0.0554 -0.0674
19405W        W35666  11.933  12.561   3.667  0.0548 -0.1469 -0.0081
19406W        W35667  13.806  16.074   3.532  0.1093  0.3908 -0.3110
19407W        W35668   0.631  18.977   0.055 -0.1137 -0.1776 -0.1810
19408W        W35669   0.290   1.106  13.089 -0.1499 -0.1057 -0.0360
19409W        W35670   9.833  11.059   0.888  0.2839  0.0762  0.1429
19410W        W35671   1.765  16.900  14.242  0.1050  0.0006  0.2882
19411W        W35672  16.706   3.686   4.904 -0.0128  0.3893 -0.3317
19412W        W35673   9.589   8.329  13.790 -0.0594 -0.0369 -0.1056
19413W        W35674   2.168   6.267   2.603  0.1683  0.0290  0.0682
19414W        W35675   7.936  13.986   4.847  0.0170  0.2395 -0.1235
19415W        W35676  15.382   8.782  14.088  0.0538 -0.1774 -0.4102
19416W        W35677  15.574   2.234   3.859 -0.1526 -0.1808 -0.2347
19417W        W35678   2.990  11.138   2.877  0.4583  0.0535  0.0282
19418W        W35679   3.343  15.197   1.239 -0.0402 -0.0594  0.1131
19419W        W35680   9.200   4.508  10.421  0.0159  0.2471  0.2548
19420W        W35681   0.720   7.883  12.314  0.0064  0.1492 -0.2284
19421W        W35682   2.241  19.222  13.812 -0.0897  0.0250 -0.1765
19422W        W35683  15.044  13.268  11.905  0.3341  0.2275 -0.0926
19423W        W35684   0.788   8.413   4.672 -0.0740 -0.2137 -0.0677
19424W        W35685  19.363   8.236   1.557  0.0402  0.4311  0.2710
19425W        W35686   9.536  17.174   1.022 -0.0494 -0.0843 -0.0666
19426W        W35687  12.272  13.159  11.734 -0.3256  0.3300 -0.1038
19427W        W35688   4.199   3.885  11.559  0.1854 -0.0853 -0.1234
19428W        W35689   7.740   9.654   3.448 -0.2167  0.0592 -0.1394
19429W        W35690  15.305   3.132  10.169 -0.1932  0.0327 -0.0669
19430W        W35691  16.456  16.744   3.207 -0.0730  0.0449  0.0101
19431W        W35692   6.595   2.537  14.366 -0.2150  0.1595 -0.0887
19432W        W35693  18.128   0.571   2.779  0.3239  0.2005 -0.0437
19433W        W35694  11.623  12.186  14.705 -0.0086 -0.2618 -0.1810
19434W        W35695   7.490   3.331   3.915 -0.0997 -0.0059 -0.2624
19435W        W35696  18.282  13.922   2.501 -0.0197  0.2742  0.2502
19436W        W35697   7.919  10.526  14.755  0.2082 -0.2528 -0.2462
19437W        W35698  10.044  11.639  10.587  0.0281  0.1642 -0.2237
19438W        W35699   5.757   0.628   8.725  0.1624 -0.0670  0.3322
19439W        W35700   8.440  13.114   3.792  0.2356  0.1659  0.0411
19440W        W35701  10.302  16.830  10.548  0.1003 -0.0025 -0.0918
19441W        W35702   5.375  10.105   2.796  0.3434  0.1024  0.2121
19442W        W35703  14.512   9.642  14.805  0.0046  0.2400  0.1518
19443W        W35704  15.418  10.044   3.549 -0.2606  0.3471 -0.1169
19444W        W35705   0.109  15.540   2.312  0.2208 -0.2034  0.0092
19445W        W35706   2.026   8.922  13.830  0.3601 -0.2473  0.0591
19446W        W35707   4.809   2.624   0.923  0.4920 -0.0489 -0.0738
19447W        W35708  18.265  11.438   3.838  0.0265 -0.2049  0.0879
19448W        W35709  16.162  10.015   0.988  0.3290 -0.4157  0.3123
19449W        W35710   8.156  18.432   1.674  0.3102  0.2175 -0.1503
19450W        W35711   4.357  14.677  12.450 -0.1106  0.1077 -0.1945
19451W        W35712   5.609   9.646   4.605  0.3886 -0.0439  0.0251
19452W        W35713   3.466   1.059  12.340 -0.3111 -0.0084  0.0363
19453W        W35714   6.103   8.827  11.442  0.2211 -0.1200  0.1338
19454W        W35715  11.267  14.034   3.073  0.2431 -0.3187  0.2140
19455W        W35716   0.442  18.052  13.593  0.0575  0.1102  0.2548
19456W        W35717  12.172  10.693  11.420  0.1292 -0.1306 -0.4360
19457W        W35718  15.130  16.630   4.009  0.1728 -0.3688  0.0249
19458W        W35719   4.051   1.408  14.367 -0.1684  0.0187  0.4129
19459W        W35720   6.079  18.064   3.430 -0.1691 -0.1686 -0.1765
19460W        W35721  13.560  10.326   1.639 -0.2676 -0.0575  0.0069
19461W        W35722   0.383  15.711   0.615  0.1646  0.1758 -0.0255
19462W        W35723  11.785  12.700   4.896 -0.1258  0.0162 -0.0893
19463W        W35724  12.121   9.408  11.625  0.1226 -0.1919  0.1017
19464W        W35725   0.194   4.559  14.290  0.2134  0.0547 -0.1210
19465W        W35726   8.296   5.817   3.423  0.1534  0.0618 -0.2887
19466W        W35727  10.211  17.076  13.820 -0.2198 -0.0574  0.1329
19467W        W35728  15.374   2.841  11.907 -0.3846 -0.1840 -0.0730
19468W        W35729  12.160   4.208   2.692  0.0009 -0.3256 -0.0712
19469W        W35730   4.722  18.394  11.905  0.3224  0.0755 -0.0515
19470W        W35731   5.358  10.292   9.851  0.1785  0.1672  0.4534
19471W        W35732   6.911  16.673  13.274 -0.2253  0.0623  0.0529
19472W        W35733   5.601   8.810  10.304 -0.2287  0.1216  0.2573
19473W        W35734  15.746   7.615   2.446  0.2582  0.0714  0.0109
19474W        W35735   8.585   5.216   9.741 -0.0410 -0.1492 -0.0253
19475W        W35736   3.506   1.824  12.564  0.3815  0.0446  0.1863
19476W        W35737  14.915   2.981   0.007 -0.1391 -0.1658 -0.0900
19477W        W35738   1.144  12.576  14.801  0.1975  0.1843  0.0633
19478W        W35739  18.457   6.315   3.752  0.1187  0.3129  0.2339
19479W        W35740  12.018   1.029   5.352 -0.1515  0.0494  0.0168
19480W        W35741   4.976   2.407   4.697  0.2397 -0.0141 -0.1587
19481W        W35742   8.892   7.222   2.027 -0.2666  0.1859 -0.1151
19482W        W35743   5.958  13.623   1.457 -0.2856 -0.0647  0.0408
19483W        W35744  12.121   8.612   5.755  0.1787  0.1334  0.3005
19484W        W35745  15.671   2.090  13.971 -0.4057  0.0111 -0.0382
19485W        W35746   8.615   2.717   0.151  0.3216 -0.0305  0.0087
19486W        W35747   0.134  18.430  14.402  0.5026 -0.0993  0.0042
19487W        W35748  18.922   3.657   2.209 -0.1772 -0.2437 -0.1342
19488W        W35749   9.422   9.851  14.034 -0.0561  0.2482 -0.1291
19489W        W35750  13.065   4.043   0.348  0.0831 -0.2239 -0.4093
19490W        W35751  17.361   2.114   1.312  0.0317 -0.2408  0.1178
19491W        W35752   2.920  17.546   2.230 -0.2003  0.0441  0.0201
19492W        W35753   6.632  12.973  14.723 -0.0904  0.2504  0.2441
19493W        W35754   2.150  15.001  12.061 -0.1475 -0.0645 -0.3411
19494W        W35755   0.936   4.415  12.284 -0.2473  0.0149  0.1000
19495W        W35756   8.778   1.602  14.619  0.5037 -0.5193 -0.1808
19496W        W35757   2.749   2.012  12.166 -0.1641  0.0510  0.1777
19497W        W35758  13.917   9.816   2.320 -0.0481 -0.0396  0.1455
19498W        W35759   8.209   3.745  11.870  0.0677 -0.0586 -0.3109
19499W        W35760  15.732  19.422  12.556 -0.0658 -0.1443  0.1607
19500W        W35761  15.848  13.674   2.868  0.0018  0.0661  0.1113
19501W        W35762   0.348  11.010  12.898 -0.1972  0.0600 -0.2196
19502W        W35763   9.254   9.907  11.392 -0.0587  0.0001  0.3208
19503W        W35764   9.479   3.307   2.475 -0.1602  0.3775 -0.3038
19504W        W35765  15.096  12.192  11.445  0.5979  0.0808  0.2474
19505W        W35766  16.390   2.284  10.684 -0.3373  0.1296 -0.1013
19506W        W35767  14.772  11.482  13.570 -0.1037  0.0814  0.0055
19507W        W35768   3.184   1.793  14.364 -0.2357 -0.0667 -0.1753
19508W        W35769   0.462  17.174   1.477  0.3652  0.2573 -0.1747
19509W        W35770  14.645   6.180   8.950  0.0560  0.2660  0.0768
19510W        W35771   1.559   0.502   0.639  0.1250 -0.0546 -0.1172
19511W        W35772  11.337  16.314  13.741  0.4236  0.0713  0.1723
19512W        W35773  11.598  18.178   4.347  0.1795 -0.0636 -0.0714
19513W        W35774   7.507   8.939   4.068 -0.3383 -0.1181  0.1505
19514W        W35775  17.808   6.743   1.311 -0.1015  0.2144 -0.0063
19515W        W35776   0.225  13.275   3.065 -0.0569 -0.1352  0.1310
19516W        W35777   4.269   5.952  14.265 -0.0309 -0.1136 -0.1141
19517W        W35778   3.818   0.216  11.834 -0.1622 -0.1662  0.3129
19518W        W35779   1.847   4.140  11.764  0.2789  0.3492  0.3693
19519W        W35780   1.631   8.704   1.009 -0.3552  0.3115 -0.0318
19520W        W35781   6.129   5.425   2.314  0.1441  0.1456 -0.1654
19521W        W35782   3.791   8.630   2.429  0.0368  0.1029  0.2639
19522W        W35783   9.227  15.710   1.477  0.0396  0.1833 -0.0122
19523W        W35784  13.219   7.743  12.612 -0.3625  0.2591  0.1530
19524W        W35785   5.446  12.576   1.700  0.2762 -0.2199  0.1631
19525W        W35786   7.845   8.974  10.073 -0.2020 -0.0702  0.2886
19526W        W35787  15.985  12.692   2.293 -0.3273 -0.1997  0.1552
19527W        W35788   7.140   0.845  12.161 -0.0350  0.0898 -0.1203
19528W        W35789  18.793  18.261   0.384 -0.1635 -0.1512  0.3671
19529W        W35790  15.032  14.783   1.868 -0.0667 -0.0740 -0.0417
19530W        W35791   4.630   9.424   3.958 -0.1546 -0.1334 -0.3058
19531W        W35792   9.026  13.781   3.501 -0.2157  0.3256  0.0029
19532W        W35793  19.337   0.980  13.078 -0.1943 -0.0814  0.0170
19533W        W35794   0.647   3.320  11.239  0.1334 -0.1936  0.1556
19534W        W35795  13.058  17.078  12.797  0.1272  0.0456  0.0059
19535W        W35796  15.761   6.871  11.216  0.2147  0.0766 -0.0423
19536W        W35797  16.885  17.862   0.538 -0.1209 -0.1781 -0.2286
19537W        W35798  10.994  15.265   2.173 -0.4259 -0.0656 -0.0361
19538W        W35799  16.058   7.887   3.890 -0.0611  0.3827 -0.0516
19539W        W35800   0.869  16.351   1.682 -0.3040 -0.0829 -0.0838
19540W        W35801  17.370  18.417   4.519  0.2042  0.2251 -0.1312
19541W        W35802  12.958   1.122   5.093 -0.0120 -0.1613  0.0859
19542W        W35803   0.053  15.290  11.440 -0.1758  0.1106 -0.4440
19543W        W35804   5.936   5.219  10.645  0.1775  0.0466 -0.0769
19544W        W35805   7.064  10.305  11.661  0.4255 -0.0852 -0.1575
19545W        W35806   0.749   0.347   1.306  0.0980 -0.0226 -0.0357
19546W        W35807   3.965  14.394   5.959  0.0953 -0.0461  0.0650
19547W        W35808  12.872  14.265   1.758  0.0322  0.0150 -0.0637
19548W        W35809   4.695   7.836  12.983  0.0838 -0.0769 -0.1174
19549W        W35810  18.214  14.182  12.772  0.1936  0.2261 -0.0760
19550W        W35811   3.721   4.903  14.352 -0.1598 -0.1975 -0.0076
19551W        W35812   9.214   1.368   3.717  0.0184 -0.3727  0.1782
19552W        W35813   8.942   4.231   1.388 -0.5916  0.0449  0.0379
19553W        W35814  12.881   6.702  14.459 -0.2380  0.3087  0.1713
19554W        W35815   7.373   6.559  13.589  0.0800 -0.0369 -0.0422
19555W        W35816  10.860   6.992   0.940 -0.0618 -0.1176  0.0836
19556W        W35817   7.783   3.089  14.670 -0.0001  0.1064 -0.2115
19557W        W35818   5.696  15.771   2.147  0.0619 -0.2416  0.1698
19558W        W35819   6.722   7.776  13.161  0.0594 -0.5164  0.1734
19559W        W35820   4.905   4.209  13.613 -0.1912 -0.1576  0.0127
19560W        W35821   2.362   2.345  12.345 -0.1252 -0.0804  0.2041
19561W        W35822   7.206  14.683  12.619 -0.0094 -0.0104 -0.1278
19562W        W35823   6.704  12.173   1.726  0.4165  0.1029  0.0142
19563W        W35824  17.219   1.892  13.651 -0.2799 -0.1079 -0.0413
19564W        W35825  13.688  12.513   0.964 -0.2305  0.1406 -0.1134
19565W        W35826   6.562   4.886   1.337  0.1353  0.0383  0.2548
19566W        W35827  15.155   4.578  11.361 -0.1194 -0.2368  0.1252
19567W        W35828   7.332  17.313  11.126 -0.1489 -0.1390 -0.2170
19568W        W35829  16.530  16.133   1.620  0.2506 -0.1374  0.0043
19569W        W35830   9.683   5.589  11.957 -0.1112 -0.0648  0.2742
19570W        W35831  14.164   5.702   0.371 -0.0993 -0.0102  0.0126
19571W        W35832  16.962   1.456   0.011  0.1421  0.1082 -0.1431
19572W        W35833  16.237  12.687  12.011 -0.2210 -0.3564 -0.3778
19573W        W35834   1.932  11.396  11.568 -0.1090  0.0102 -0.2253
19574W        W35835   9.408   2.011  11.078  0.1171  0.1542 -0.0926
19575W        W35836   5.744   7.958  10.965 -0.0351 -0.1555 -0.1893
19576W        W35837  10.397   4.480  11.722  0.0819 -0.2490  0.3635
19577W        W35838   7.347  11.171  11.234 -0.0079 -0.0100  0.0706
19578W        W35839  10.368   2.093  13.056 -0.3622  0.2310 -0.1049
19579W        W35840   1.027   6.999  14.753 -0.1930 -0.3076 -0.0263
19580W        W35841  11.999  12.145  11.039 -0.2670 -0.0712  0.0614
19581W        W35842   4.780   1.096  14.651  0.3522 -0.1955 -0.0138
19582W        W35843  14.276   0.678   0.001 -0.1563 -0.1487 -0.0871
19583W        W35844   9.629  18.088  12.993  0.1016  0.2909  0.0333
19584W        W35845   1.510  12.359   3.292 -0.0945 -0.0654  0.0951
19585W        W35846   1.469  12.217  10.839  0.0057  0.0126  0.2920
19586W        W35847  17.059   0.605   2.892 -0.0144 -0.1067 -0.2839
19587W        W35848  11.504  18.874  14.640  0.0449  0.3287 -0.0168
19588W        W35849  14.864  15.170  14.086  0.2330 -0.2654  0.1445
19589W        W35850   5.640   8.603  12.842  0.0813 -0.4965  0.0613
19590W        W35851   8.781  16.688  13.054  0.0613 -0.1357  0.0687
19591W        W35852   1.592   7.018  11.920  0.3529  0.4928 -0.0680
19592W        W35853  16.888  10.286  10.133  0.3872  0.0344  0.0659
19593W        W35854   5.340   0.967  13.325  0.2044  0.2006  0.1121
19594W        W35855   5.419  18.716   2.448  0.0241 -0.3770  0.1489
19595W        W35856   5.621   2.310   9.806  0.2434 -0.2985  0.1273
19596W        W35857   5.297  16.619   3.590 -0.0838  0.5636  0.0709
19597W        W35858  10.333   6.630  13.957  0.1505  0.0361 -0.0110
19598W        W35859   7.398  12.640   3.291  0.1257 -0.4447  0.2911
19599W        W35860   3.993  10.371   1.168 -0.1445  0.1716  0.1692
19600W        W35861   1.076   7.098   3.394  0.0768  0.0451 -0.0437
19601W        W35862   3.590   6.715  12.335 -0.0475 -0.4497 -0.0838
19602W        W35863   5.575   2.787   3.005 -0.2121  0.0915 -0.6116
19603W        W35864  15.318   4.074   0.576 -0.1509 -0.0579 -0.1207
19604W        W35865   5.161  16.554   2.118 -0.3302  0.0229 -0.0611
19605W        W35866  11.699   5.629   3.810  0.2257 -0.1971  0.0869
19606W        W35867   8.114   0.954   4.998 -0.0637  0.1851 -0.0652
19607W        W35868   2.357   7.090  11.397  0.0292 -0.1725 -0.1520
19608W        W35869   2.263   2.344   9.748 -0.1675 -0.5179 -0.0916
19609W        W35870  19.408  10.113  11.352 -0.1749  0.1735 -0.1863
19610W        W35871  15.580   6.205   2.770  0.2499  0.1966 -0.2082
19611W        W35872  17.459   4.276   0.874 -0.1600  0.0476 -0.3015
19612W        W35873  19.474  13.533  11.139 -0.2888 -0.0687 -0.0508
19613W        W35874  17.560  10.431  11.274 -0.0377 -0.0626  0.0758
19614W        W35875   8.828   4.798  13.038  0.1610  0.1551  0.0189
19615W        W35876  12.212  18.723   0.410 -0.0742  0.1260  0.3775
19616W        W35877   8.444  15.673   3.158 -0.0909 -0.0579  0.2045
19617W        W35878  10.342  12.902  11.714 -0.1306  0.2389  0.3144
19618W        W35879   6.054  11.180   1.312  0.1132  0.1547  0.2971
19619W        W35880   8.056   5.945  11.508 -0.0148 -0.1988  0.1239
19620W        W35881  11.856  10.284   4.910  0.0784  0.0279 -0.2562
19621W        W35882  18.247   4.361  13.474  0.0728 -0.1148 -0.2035
19622W        W35883  15.107   5.054   9.296 -0.0194  0.0700 -0.3666
19623W        W35884   1.016  19.269  14.578  0.1899 -0.0110  0.2310
19624W        W35885   6.523   7.249   0.322  0.0348 -0.1647  0.0537
19625W        W35886  18.872   4.734   4.491  0.0844  0.0380  0.0987
19626W        W35887  10.847   6.740  10.938  0.1149  0.1097  0.1026
19627W        W35888  15.814   0.252  11.650 -0.3181  0.0717  0.1289
19628W        W35889  17.594   2.577  12.544  0.1557  0.0345  0.1075
19629W        W35890   6.916  14.382   3.835  0.0039 -0.0044 -0.1332
19630W        W35891   2.637  12.630   3.568  0.1859 -0.0140  0.0101
19631W        W35892  18.646   2.407   3.956  0.3344 -0.2535  0.0262
19632W        W35893   5.078  17.960  13.338 -0.2469  0.1082 -0.0524
19633W        W35894   6.477   8.304  11.257 -0.0860 -0.1886 -0.2294
19634W        W35895   2.616  11.338   0.378  0.1746  0.2249 -0.2019
19635W        W35896   6.611   3.187  13.869  0.4120  0.1192  0.0723
19636W        W35897  11.537   6.545   2.266  0.0934 -0.0472  0.0814
19637W        W35898  19.180  17.302   0.319  0.0127 -0.1393  0.0035
19638W        W35899   6.992  17.254  12.403  0.2114 -0.2807  0.0086
19639W        W35900  13.734  10.863   4.408 -0.0053  0.3537 -0.1116
19640W        W35901   7.317   5.737  14.032 -0.2745  0.0510 -0.0369
19641W        W35902   3.812   1.367  12.655 -0.1050 -0.1192  0.0225
19642W        W35903   1.231   9.581   3.683  0.1816 -0.1225 -0.0463
19643W        W35904   4.348  11.047   9.497  0.0418 -0.1228  0.1460
19644W        W35905   8.472   7.226   9.843 -0.0523  0.1020 -0.0257
19645W        W35906   7.419   8.309  14.019  0.2449  0.3746 -0.0202
19646W        W35907   9.670   3.196   3.369 -0.4318  0.0016 -0.0365
19647W        W35908   4.686  15.826   3.668 -0.1843 -0.1134  0.1327
19648W        W35909  11.483   8.379   5.069 -0.2100  0.0588 -0.0741
19649W        W35910  17.193  14.834  13.937  0.2939 -0.2286  0.0974
19650W        W35911   5.272  18.532  14.737  0.1835 -0.2538  0.0149
19651W        W35912   9.465   5.612  12.386  0.2347  0.0803 -0.2780
19652W        W35913   3.287   9.755   4.362  0.2567  0.6078  0.0839
19653W        W35914  10.372   3.247   9.463 -0.2579  0.0748 -0.1559
19654W        W35915   9.509   8.021  11.395  0.1450 -0.1641 -0.0225
19655W        W35916   5.101  10.320   4.035  0.0379 -0.0904  0.0603
19656W        W35917  14.664   8.984   5.740  0.0948 -0.2603  0.1911
19657W        W35918   3.183   6.663   0.063  0.0134 -0.1807 -0.1546
19658W        W35919  15.299  14.934   1.446  0.0054  0.1104  0.1582
19659W        W35920   7.638   9.632  10.363 -0.0608  0.2757 -0.0615
19660W        W35921   2.705  11.110   4.014 -0.0238  0.0777 -0.0315
19661W        W35922   4.643   6.345  14.136 -0.1352  0.1806  0.3223
19662W        W35923  19.406   8.697  11.553 -0.0188 -0.2197  0.2682
19663W        W35924   6.794   4.325  11.497 -0.1143 -0.0159 -0.0192
19664W        W35925  15.976  16.328  14.065 -0.0401  0.0046  0.1573
19665W        W35926   1.032   9.248   0.321 -0.2308 -0.0392 -0.1654
19666W        W35927   8.953  14.842  12.122 -0.0467  0.0076  0.2875
19667W        W35928   6.714  17.793   0.551  0.2526  0.1792  0.1205
19668W        W35929  13.766  17.377   4.995  0.0121  0.3946  0.1615
19669W        W35930   4.779   6.776  14.449 -0.0425 -0.0868  0.3149
19670W        W35931  15.400  12.761  14.285 -0.0533 -0.4199 -0.1575
19671W        W35932  19.352  15.867   3.591  0.0612 -0.3155 -0.0980
19672W        W35933  15.709  15.553   4.781  0.1221  0.1151  0.2506
19673W        W35934  16.167  15.570  10.842 -0.0671 -0.1742 -0.1081
19674W        W35935   7.085  13.343  14.413  0.1127 -0.1680 -0.0747
19675W        W35936   5.368   1.676  12.806 -0.0450  0.0085  0.0164
19676W        W35937   7.557  11.309   2.975  0.1637  0.1865  0.2071
19677W        W35938   6.797   5.627  11.070 -0.1025  0.1962 -0.0516
19678W        W35939   8.712   4.546   3.823 -0.2618 -0.2354  0.0663
19679W        W35940   3.154  12.792   3.627  0.1620 -0.0273  0.1717
19680W        W35941   3.312  13.044   2.900 -0.1232  0.0467  0.1780
19681W        W35942   4.691  14.083   3.325 -0.3245 -0.1082 -0.0653
19682W        W35943  11.742  16.498  12.128 -0.0633  0.0819 -0.0640
19683W        W35944   3.445   4.958  11.890  0.2964 -0.2082  0.1872
19684W        W35945  17.842  13.167  11.149  0.0449  0.0013 -0.0013
19685W        W35946   4.994   1.269   3.959 -0.1147 -0.0602 -0.0921
19686W        W35947   9.308   7.806   1.117 -0.2458  0.1741 -0.1368
19687W        W35948  18.338  12.491   1.204 -0.0115 -0.3904  0.1256
19688W        W35949  14.826   7.869  14.072  0.1310  0.0722  0.1420
19689W        W35950   5.964  12.644  14.030  0.3129  0.1550  0.1605
19690W        W35951  16.574   5.903   1.349 -0.1833 -0.0715  0.2119
19691W        W35952   5.787   2.671   0.447 -0.3311  0.1554 -0.4314
19692W        W35953  11.541  10.066  11.849  0.1321  0.1376 -0.1756
19693W        W35954  10.491   3.021   3.975  0.1243 -0.3609  0.1997
19694W        W35955  12.953  17.611   3.947  0.0171  0.2227  0.2273
19695W        W35956   7.160   7.808  12.178  0.0549  0.1148  0.1279
19696W        W35957   1.361   8.338  11.778 -0.0281 -0.1332  0.3507
19697W        W35958  18.213   9.699  12.005  0.1109 -0.0834  0.0076
19698W        W35959   9.054  17.969   0.859  0.3669  0.3807  0.2967
19699W        W35960  15.151   2.963  10.650 -0.0391 -0.0136 -0.0213
19700W        W35961   1.201  11.009  13.353  0.1596  0.1564  0.1372
19701W        W35962  14.144  13.472  14.228 -0.0728 -0.1078  0.3066
19702W        W35963  15.438   3.411   9.704  0.2642  0.0741  0.1060
19703W        W35964   8.691   0.066   4.128  0.2776  0.0174  0.2773
19704W        W35965   2.751  17.917   5.315 -0.0391  0.3052  0.2664
19705W        W35966  17.416  12.846   4.596  0.0639 -0.0661  0.0937
19706W        W35967   2.010   4.134   0.294 -0.0208 -0.0080  0.0275
19707W        W35968  13.018   5.422  10.987 -0.1455 -0.1589 -0.2434
19708W        W35969  11.318   3.856   3.041  0.0361  0.0046  0.2323
19709W        W35970   9.198   1.328  10.394  0.1390  0.3304  0.0142
19710W        W35971  15.585  13.874  12.483 -0.0410  0.2701 -0.2276
19711W        W35972  18.829   6.513  10.941  0.0614  0.1553 -0.1210
19712W        W35973  17.114   0.569  13.101  0.3151 -0.2391 -0.1056
19713W        W35974   1.660  15.730  12.224 -0.1090  0.4918  0.1839
19714W        W35975  15.524   3.140   2.172  0.0670 -0.6294 -0.1328
19715W        W35976  17.738  10.370  11.994  0.2592 -0.2000  0.0127
19716W        W35977   4.872  11.754   0.085  0.1502 -0.1278 -0.3227
19717W        W35978   1.168  10.594  10.662 -0.1006 -0.2490 -0.1495
19718W        W35979   4.363   8.456   0.232 -0.3773  0.0183  0.1965
19719W        W35980  13.071  15.539   1.807 -0.2050  0.0452 -0.1074
19720W        W35981  13.853   2.364   3.839 -0.3587 -0.1375  0.0306
19721W        W35982   7.632   7.782  11.104  0.2431 -0.1739 -0.3719
19722W        W35983   2.853  14.069  13.252 -0.0476  0.0509 -0.1406
19723W        W35984   9.825  16.112  12.026 -0.1439  0.1532  0.1014
19724W        W35985  19.298  15.983  13.857  0.2294 -0.1665 -0.3413
19725W        W35986   7.382   6.760  10.888  0.1616 -0.0744  0.0211
19726W        W35987  13.481   4.284  10.741  0.1927  0.1895  0.3414
19727W        W35988   9.667  14.260   1.371 -0.0255 -0.2611 -0.1186
19728W        W35989   8.488  17.533  13.329  0.0773 -0.4609 -0.1712
19729W        W35990   7.986   4.093  12.861  0.3678 -0.0260 -0.0454
19730W        W35991  14.942   9.308  10.850 -0.2785  0.0963  0.0596
19731W        W35992   3.921  18.728  13.155 -0.0948  0.2096 -0.2850
19732W        W35993   3.266   4.000   0.374 -0.1585 -0.2643  0.0874
19733W        W35994   1.331   4.638  11.714  0.0875  0.1208  0.1259
19734W        W35995  18.269   2.688   4.185 -0.1403  0.1252 -0.3730
19735W        W35996   8.930  19.115  11.956  0.1385  0.1213 -0.0054
19736W        W35997   8.002   1.355  11.028  0.2539 -0.3460 -0.1825
19737W        W35998  18.091   8.529   1.104  0.1578 -0.2577  0.1004
19738W        W35999  15.210   0.991  13.999  0.2880  0.0895  0.2273
19739W        W36000  15.340  12.183  12.826 -0.2346  0.1535 -0.4380
19740W        W36001   3.401   6.605  12.786  0.0787 -0.2438 -0.5095
19741W        W36002  10.501  19.074  13.162  0.3840 -0.1661  0.0755
19742W        W36003  17.173  11.760  14.368  0.2061  0.2445 -0.0679
19743W        W36004   1.781   4.470  10.992 -0.3178  0.2384  0.0338
19744W        W36005   1.899  10.205  11.857  0.0523  0.1382 -0.3749
19745W        W36006   8.548  15.685   5.125  0.1671  0.0995  0.2392
19746W        W36007   9.820   9.168  10.296 -0.2455  0.0653 -0.0789
19747W        W36008   3.922   1.461   3.649 -0.0160  0.0465 -0.2145
19748W        W36009  14.994  17.767   3.467 -0.0539 -0.0532  0.0864
19749W        W36010   6.904  16.184  12.346  0.0249  0.2620  0.2000
19750W        W36011  13.988   9.890  10.751  0.0251 -0.1914  0.0741
19751W        W36012  10.840  17.502   4.283 -0.1772  0.1571 -0.3441
19752W        W36013  10.923  15.867   0.874  0.1397  0.1525 -0.3194
19753W        W36014  17.015  18.031   5.168  0.1163  0.1078  0.3450
19754W        W36015   5.983  18.846  12.619 -0.1530  0.1306 -0.1792
19755W        W36016   0.262   2.291  13.816 -0.1645 -0.3422 -0.0931
19756W        W36017  12.560  17.352   2.799 -0.0223  0.0022 -0.0739
19757W        W36018  18.725  12.298   5.071  0.1012  0.0606 -0.3826
19758W        W36019   3.955   4.027  14.088  0.0568 -0.0916 -0.1877
19759W        W36020   2.789  16.396   4.904  0.1332 -0.0623 -0.5075
19760W        W36021   9.312  10.236   1.162  0.0046  0.1979 -0.1734
19761W        W36022  10.600   8.132  11.290  0.1256 -0.0003  0.1398
19762W        W36023  10.080   5.051   0.156 -0.0364  0.1328 -0.1445
19763W        W36024  11.514   1.450   2.354  0.1875  0.0561 -0.0961
19764W        W36025  15.333   5.115  12.330  0.1497 -0.0744  0.4960
19765W        W36026  14.130   0.231   2.419  0.2324 -0.0369  0.4812
19766W        W36027  19.337   2.259  13.434  0.1653 -0.4836  0.0110
19767W        W36028   3.000  19.020   0.328 -0.3827  0.0778 -0.2382
19768W        W36029  19.057   4.984  10.398  0.1003  0.0148  0.1777
19769W        W36030   5.539   8.179  13.061  0.2051 -0.3490 -0.0359
19770W        W36031   3.443   3.644  10.916  0.2007  0.1031 -0.1465
19771W        W36032  11.902   2.042  12.185  0.3595 -0.2082  0.0367
19772W        W36033   0.956   5.802  11.430 -0.0084 -0.0378  0.1150
19773W        W36034   7.364   9.901   3.161  0.1136  0.2407  0.3333
19774W        W36035  18.647   0.345   4.947  0.1302 -0.2370  0.1483
19775W        W36036   8.971   0.974  13.487 -0.2590 -0.0937 -0.0852
19776W        W36037   9.584  17.867  12.518  0.0593  0.0680 -0.0710
19777W        W36038   6.612   1.828   0.034  0.1846  0.0966 -0.0013
19778W        W36039  18.430   6.167   1.256 -0.0199  0.3737 -0.1205
19779W        W36040   2.621   9.495  10.930 -0.0767 -0.2254 -0.1184
19780W        W36041   4.611  16.289   3.468  0.2676  0.1740  0.1921
19781W        W36042  17.143  17.856   4.641  0.2735 -0.1110 -0.1431
19782W        W36043   5.227  12.506   4.977 -0.1695 -0.1873  0.0680
19783W        W36044   4.427  17.851   9.962 -0.1695 -0.0419  0.0642
19784W        W36045   3.730   6.481   1.740 -0.0221  0.2434  0.1363
19785W        W36046  12.953  13.367  10.086  0.0124  0.0194  0.2089
19786W        W36047   5.536  16.192   2.349 -0.1659 -0.0085 -0.0566
19787W        W36048  15.725   9.337  10.245  0.2217  0.0397  0.1407
19788W        W36049  12.796   5.906  11.790 -0.0655  0.2477 -0.3773
19789W        W36050   9.230   9.236   1.107  0.0513  0.1523  0.0622
19790W        W36051  15.404   4.851   1.936 -0.1356  0.3778  0.1221
19791W        W36052  12.603   7.646   3.861  0.0813 -0.1062  0.1329
19792W        W36053  13.890  18.964  14.615 -0.0123 -0.0412  0.0964
19793W        W36054  16.989  18.806   2.980 -0.0844  0.1336  0.0468
19794W        W36055  17.470   7.974   3.128  0.0195 -0.0688 -0.0544
19795W        W36056   6.585  11.982   3.179  0.0628  0.1797  0.0187
19796W        W36057  12.477  18.969  10.745  0.3679 -0.1912 -0.1478
19797W        W36058  15.303   5.217   1.150 -0.0586  0.6285  0.0108
19798W        W36059  11.828  18.917   4.216 -0.0756  0.1795 -0.1061
19799W        W36060   5.779   1.739   9.564  0.1490 -0.0014  0.0858
19800W        W36061  15.401  19.226   4.284  0.5091 -0.2407  0.0843
19801W        W36062   4.401   7.979   0.414 -0.0346  0.0535  0.2330
19802W        W36063   0.059  13.291  14.431  0.2088  0.2878  0.0563
19803W        W36064  12.797   6.112   0.458 -0.0777 -0.3754  0.1123
19804W        W36065  12.266  15.757   3.002  0.0903 -0.0680  0.3323
19805W        W36066  19.292   2.568  13.941 -0.1599  0.3224 -0.4517
19806W        W36067  12.534   1.610  10.521  0.2487  0.1440 -0.1219
19807W        W36068  18.786  17.319  12.432  0.1601  0.0324 -0.0772
19808W        W36069   0.283   2.731  11.939 -0.0575 -0.0321  0.2398
19809W        W36070   1.963  14.689  14.045 -0.1399 -0.1773 -0.0267
19810W        W36071   6.018   7.124   0.105  0.2115  0.2533  0.2329
19811W        W36072   9.451   4.352   1.520 -0.0720  0.0386  0.0375
19812W        W36073   3.755  15.315  14.117 -0.1064  0.3187 -0.0568
19813W        W36074  13.232   6.925  12.400  0.0481  0.0953 -0.3163
19814W        W36075  13.427   9.159  13.061  0.4733  0.0445 -0.0964
19815W        W36076   6.544  13.231   9.433  0.0520  0.0322  0.1298
19816W        W36077  14.789  18.207  11.041 -0.0404  0.2864  0.1334
19817W        W36078  10.748   1.257   2.995 -0.1926  0.0062 -0.0087
19818W        W36079   0.847  10.487   2.790  0.0718  0.3192 -0.1056
19819W        W36080   5.416   0.685  10.005 -0.1160  0.1391 -0.2718
19820W        W36081  12.549   2.472   2.735 -0.0912 -0.1679 -0.3004
19821W        W36082  19.033   3.325  12.059 -0.0802 -0.0221 -0.1387
19822W        W36083   1.583  15.087  14.644  0.0865  0.1346 -0.0234
19823W        W36084   9.784   9.733   3.013 -0.0229  0.2514 -0.2685
19824W        W36085   3.186  16.436  14.416 -0.0157  0.1951 -0.1018
19825W        W36086  12.133  17.015  10.948  0.3064  0.1644  0.0501
19826W        W36087  18.280  12.553  10.896  0.1048  0.0660 -0.1419
19827W        W36088   3.459  12.024   1.172  0.0153 -0.1804  0.2503
19828W        W36089   6.324   7.045  12.266  0.0281 -0.1358 -0.1206
19829W        W36090  15.450  14.049   4.461 -0.0573 -0.0245 -0.0221
19830W        W36091  13.533   2.057  11.964 -0.0212 -0.1721 -0.3491
19831W        W36092  18.635  13.132   5.755  0.1855  0.1261  0.0612
19832W        W36093  10.258   7.140  13.797 -0.3075  0.2279 -0.1302
19833W        W36094  14.574  10.425   1.368  0.2898  0.0003 -0.1387
19834W        W36095  15.325   9.747  14.637  0.0133 -0.0318  0.0384
19835W        W36096  18.099   4.826   4.068 -0.3729 -0.2793 -0.1198
19836W        W36097   6.026  10.653   5.395 -0.0256  0.0208 -0.3286
19837W        W36098  11.952  12.493   5.374 -0.0007  0.3017  0.0611
19838W        W36099   3.832   5.979   0.531  0.0257  0.1288 -0.6533
19839W        W36100   1.730  12.495   1.300  0.0909  0.2662 -0.1093
19840W        W36101  14.811   9.965   3.604 -0.2823 -0.0162  0.1227
19841W        W36102   5.690   5.159   2.416 -0.1625 -0.2030 -0.0937
19842W        W36103  15.317  13.440  12.758 -0.0857 -0.0622 -0.3662
19843W        W36104   9.431   9.499  10.109 -0.1838 -0.1988  0.0332
19844W        W36105   0.936  19.106  13.998 -0.0939  0.2127  0.3066
19845W        W36106   3.063   6.907   0.945 -0.1291  0.0436  0.1162
19846W        W36107   8.850  10.598  11.939 -0.0986  0.1163  0.3294
19847W        W36108   7.322   0.079   1.087 -0.2082  0.0838 -0.0634
19848W        W36109   2.259  14.244  12.119 -0.1444  0.2644  0.1691
19849W        W36110  15.761  14.191  10.303 -0.2580  0.1003  0.0401
19850W        W36111  19.327  11.627   6.207 -0.5569  0.0907  0.1377
19851W        W36112   2.697  15.327   1.191  0.1175 -0.1943 -0.2166
19852W        W36113  10.658  16.812   4.161 -0.0396  0.0653  0.0832
19853W        W36114   1.719  17.687   1.552 -0.0112  0.3417 -0.3067
19854W        W36115  10.560   6.903   3.409 -0.2505  0.0729 -0.1707
19855W        W36116   4.385   4.850  10.215 -0.1406 -0.2352  0.1291
19856W        W36117   0.863   6.250   3.142  0.2553  0.2403 -0.2090
19857W        W36118  10.030   8.328   1.393  0.2433  0.0032 -0.0090
19858W        W36119  19.291   8.654   1.922  0.2661 -0.0270  0.2118
19859W        W36120   9.479  10.164   2.932 -0.0823 -0.0840 -0.2972
19860W        W36121  19.099   8.950  12.939  0.1050 -0.0218  0.4668
19861W        W36122  11.151   0.787   4.842  0.2373  0.1956 -0.0741
19862W        W36123   1.538  13.578   0.504 -0.1761  0.0899  0.2446
19863W        W36124   8.701  18.350   1.110 -0.0581  0.0655 -0.1124
19864W        W36125  14.487  11.127   4.477 -0.2181  0.0957  0.1723
19865W        W36126  17.139   4.396   2.192  0.0269  0.0992  0.0641
19866W        W36127  10.238   4.631  14.723  0.2621  0.0559  0.3676
19867W        W36128  18.146   0.769   2.274 -0.1842 -0.1007  0.2736
19868W        W36129   1.308   8.248   9.954  0.1467  0.0178  0.0655
19869W        W36130   1.181  13.792   5.200 -0.1213  0.3348  0.1946
19870W        W36131  11.014  11.587   4.879  0.3001 -0.0144  0.1307
19871W        W36132  18.707   6.691   2.406 -0.0615 -0.2834  0.0218
19872W        W36133   5.790   1.446   9.982 -0.0171  0.0231 -0.3504
19873W        W36134  10.148   0.764  12.387  0.1397  0.0957  0.1402
19874W        W36135  12.176   8.573   3.875 -0.1911  0.0161 -0.2328
19875W        W36136  13.541  19.169   4.458  0.3740  0.1807  0.0133
19876W        W36137  17.088   3.835   0.554  0.3698 -0.2971 -0.2161
19877W        W36138   5.707  15.559  11.633 -0.1609  0.0531  0.4345
19878W        W36139  11.785  18.234   5.581  0.0307  0.1651 -0.2672
19879W        W36140   0.108   0.026   4.340  0.0137  0.3738  0.0210
19880W        W36141   1.151  18.982  11.037 -0.1181  0.0980 -0.0482
19881W        W36142  17.132   9.737  13.095  0.0538  0.3070  0.3761
19882W        W36143  16.631   9.624  10.589  0.0152 -0.1999 -0.2771
19883W        W36144  17.908   3.826  13.671  0.0251  0.1901 -0.1968
19884W        W36145   1.948  14.331   4.419  0.0078 -0.1339 -0.1066
19885W        W36146  12.910   7.175  12.116  0.0571 -0.1393 -0.0871
19886W        W36147  12.804  14.795   0.018  0.1904  0.1854 -0.3476
19887W        W36148  10.288  19.370   1.322  0.1319  0.1035 -0.2082
19888W        W36149   3.851  14.218   3.641 -0.1143 -0.5553  0.0525
19889W        W36150   5.684   9.881   1.642 -0.2807 -0.2709 -0.1185
19890W        W36151   7.640  10.201   3.388 -0.2598  0.1626  0.2191
19891W        W36152  15.316  10.981   2.555 -0.1442 -0.1391 -0.2648
19892W        W36153  19.266   9.126  14.609 -0.1606 -0.0626  0.0511
19893W        W36154   4.885  15.911  14.386 -0.0709  0.1190 -0.0939
19894W        W36155   2.869   5.265  13.848 -0.1211  0.1916  0.1179
19895W        W36156   3.408   0.492   5.067  0.3467  0.1074  0.1016
19896W        W36157   2.457  17.462   3.230  0.1990  0.2208  0.1355
19897W        W36158   4.530   3.476   3.980  0.1291  0.0358 -0.3808
19898W        W36159   0.498   0.294   4.525 -0.0545 -0.0800  0.0643
19899W        W36160  11.556   6.058  12.331 -0.1498  0.0624 -0.1810
19900W        W36161  18.497  16.200  11.437 -0.0257 -0.0653  0.1557
19901W        W36162   3.712  14.193   1.681 -0.2916 -0.1994 -0.2302
19902W        W36163  10.840   7.463  13.656  0.0040 -0.0843 -0.0547
19903W        W36164  17.126  18.977   4.925  0.1954 -0.1449 -0.1590
19904W        W36165  16.381  16.393  10.897 -0.0650  0.2056 -0.2894
19905W        W36166   5.748  13.486   1.934  0.1395 -0.0400 -0.3109
19906W        W36167  15.726   4.721  11.384 -0.0138  0.3084  0.0204
19907W        W36168  11.833   5.460  13.047 -0.3367  0.1589 -0.2889
19908W        W36169  12.453   3.780   0.381 -0.0227  0.1428 -0.3909
19909W        W36170  11.914   0.230  12.036 -0.1066 -0.0607 -0.0611
19910W        W36171   8.583  17.737  14.650 -0.0908 -0.1868  0.2804
19911W        W36172   4.479  17.319  10.730 -0.0802 -0.1711 -0.0526
19912W        W36173   7.184   4.881   3.115 -0.0507  0.3630 -0.0166
19913W        W36174  12.792   8.624  11.529  0.4390 -0.1933  0.0932
19914W        W36175  11.994  14.097   2.313  0.0488 -0.5452 -0.0352
19915W        W36176  14.608   7.704  12.834 -0.0458 -0.0203 -0.0908
19916W        W36177  17.643   0.238  10.544 -0.2867  0.0680  0.1966
19917W        W36178  10.498  11.713   2.350  0.0918 -0.0683 -0.0134
19918W        W36179  10.632  18.353  12.864 -0.0637  0.1777  0.5249
19919W        W36180   3.022   7.959   4.775  0.0022 -0.0013 -0.0677
19920W        W36181  15.802   3.526  12.337  0.0959 -0.0863 -0.0192
19921W        W36182   3.584  11.482  12.471 -0.0881  0.2685  0.2419
19922W        W36183   1.793   9.927   5.882  0.1071 -0.4710  0.1007
19923W        W36184   9.174  14.140   5.442 -0.0402  0.0334 -0.0652
19924W        W36185  17.594   8.850  11.120 -0.3243  0.0550  0.1791
19925W        W36186  17.677  18.961  11.652 -0.6001 -0.0100  0.0169
19926W        W36187   1.806  16.918  13.725  0.4337 -0.0301 -0.0157
19927W        W36188   5.118   7.698   4.497 -0.0549  0.1242  0.0345
19928W        W36189   7.076  14.162  13.486  0.1633  0.0447  0.0798
19929W        W36190   5.912  15.246  12.012  0.0738 -0.0790  0.0838
19930W        W36191  17.217   6.445   0.413  0.4428  0.1870 -0.1612
19931W        W36192   3.457   4.077   1.410 -0.2240 -0.2009  0.2374
19932W        W36193   8.782  13.565  12.907 -0.0419  0.0823  0.2435
19933W        W36194   6.363  16.396   5.465 -0.0198  0.5525 -0.0603
19934W        W36195   1.910  10.424  14.758 -0.1575  0.0505 -0.1967
19935W        W36196  17.991  18.571  12.090 -0.0871 -0.2013 -0.2151
19936W        W36197  17.371   1.400  14.350  0.2127 -0.1337  0.0430
19937W        W36198  10.180   3.966   2.546 -0.0931  0.0829  0.1567
19938W        W36199   8.494  11.857  12.201 -0.1478 -0.1307 -0.1724
19939W        W36200   6.806  10.106   1.069  0.1295 -0.0283  0.1407
19940W        W36201  16.597  12.267   2.781  0.0193  0.0716  0.1387
19941W        W36202   8.091  14.843   2.290  0.2759 -0.0472 -0.0813
19942W        W36203  15.538  12.984   0.873  0.1011  0.1777 -0.1373
19943W        W36204   0.844  15.337  13.333 -0.0163 -0.2687  0.1446
19944W        W36205  14.762  14.123  11.314  0.1551  0.3571 -0.0424
19945W        W36206   7.259   7.164   2.770  0.2598  0.0368 -0.0483
19946W        W36207  15.867   3.928   0.541 -0.2365  0.0756 -0.0963
19947W        W36208   3.553   6.908   4.100  0.1123  0.1514  0.0957
19948W        W36209  17.031  15.219   5.445 -0.1064  0.0768  0.1109
19949W        W36210   7.556   4.416   0.920 -0.0833  0.0761 -0.2240
19950W        W36211  12.037  19.348   4.437  0.0916 -0.1207 -0.4759
19951W        W36212   7.797   3.015   0.464 -0.0710  0.1288  0.1249
19952W        W36213   6.140   4.339   2.366  0.1438  0.0683 -0.2628
19953W        W36214  15.916  12.069   3.073  0.1286 -0.0342  0.0865
19954W        W36215  17.114   3.235   0.873 -0.2920 -0.2599 -0.0753
19955W        W36216  10.501   3.567  12.484 -0.5227 -0.1171  0.0688
19956W        W36217   3.676   4.009  11.515 -0.1225 -0.1549 -0.1482
19957W        W36218   9.480   2.908  14.565 -0.0321  0.3261  0.0677
19958W        W36219   9.237  12.784   3.995  0.0989  0.0105 -0.1506
19959W        W36220   1.030   2.171  13.179  0.0913 -0.0021 -0.0890
19960W        W36221  15.243   9.233   0.598  0.0399 -0.0686 -0.0879
19961W        W36222   2.045  18.445  12.769 -0.2008 -0.5235  0.2847
19962W        W36223  15.619   9.760   4.916 -0.1908  0.1182  0.1890
19963W        W36224   7.026   0.594   0.762 -0.2671  0.3587 -0.2872
19964W        W36225  12.734   2.635   0.876 -0.0771 -0.0314  0.0553
19965W        W36226   2.030   6.123  10.079 -0.1303  0.1538 -0.0552
19966W        W36227   6.733  17.209   1.846 -0.1093 -0.2211  0.1539
19967W        W36228  11.977  11.784  14.557  0.1106  0.1737  0.1089
19968W        W36229   3.948   8.527   2.940  0.3833 -0.0191  0.0616
19969W        W36230   3.221   0.242   1.702  0.0273  0.1548  0.1595
19970W        W36231   9.466  13.406   0.110  0.2005 -0.1115  0.3932
19971W        W36232   9.832   0.957   3.096  0.1011 -0.0479 -0.0827
19972W        W36233  17.163   3.940   3.601 -0.0016 -0.1159  0.0717
19973W        W36234   6.676  19.466   4.922  0.1605 -0.1021  0.0880
19974W        W36235   0.483  16.465   3.664  0.1212  0.4120  0.1762
19975W        W36236   4.311   2.412  11.257  0.2331  0.3652 -0.3718
19976W        W36237   2.347   0.339  11.762 -0.0087  0.0093  0.0747
19977W        W36238   8.214   4.588   2.881 -0.0301 -0.3052 -0.0533
19978W        W36239  11.386  15.374  10.972 -0.0820 -0.1167 -0.1099
19979W        W36240  18.237   6.876   0.638  0.1483  0.1754  0.2365
19980W        W36241   8.477   2.241   2.034  0.3294  0.2615 -0.2287
19981W        W36242  14.912   4.581   9.540 -0.0406  0.0452  0.2441
19982W        W36243   2.199   1.503  11.856  0.0594  0.0831 -0.0507
19983W        W36244   7.606  15.734  11.911 -0.1841 -0.1475 -0.3675
19984W        W36245   7.709  11.300  10.356  0.0657 -0.3199 -0.1982
19985W        W36246  17.000  14.987  13.008  0.1736  0.4783 -0.2331
19986W        W36247   2.917   5.431   1.268 -0.1785 -0.2729  0.0350
19987W        W36248  16.994  13.356   1.631 -0.4649 -0.0143  0.1296
19988W        W36249   0.849  10.941  10.821 -0.1477  0.3066 -0.0230
19989W        W36250   9.762   0.073   9.452  0.2301  0.0653  0.1005
19990W        W36251   7.201   3.335   1.245 -0.1292  0.1082 -0.0083
19991W        W36252   5.522   4.075   1.287 -0.3064  0.0154  0.3311
19992W        W36253   8.955  18.731   4.420 -0.1887 -0.1091 -0.3322
19993W        W36254  13.932  14.379   6.126 -0.0118  0.2646 -0.0688
19994W        W36255  10.322  12.741  10.954 -0.2957 -0.2710  0.2203
19995W        W36256   4.329  15.066   4.348  0.2450  0.0524 -0.2789
19996W        W36257   2.780   2.784   1.922 -0.0071 -0.2172 -0.1590
19997W        W36258  15.691   2.301   2.491 -0.0552 -0.1722 -0.2838
19998W        W36259  15.606  17.197   1.499 -0.1262  0.2041 -0.2804
19999W        W36260  16.872   0.803  11.747 -0.0879 -0.0587  0.2242
20000W        W36261   5.945  19.153   0.365 -0.1760  0.3026  0.1452
20001W        W36262   1.874   4.103  13.540 -0.1102  0.2483 -0.3089
20002W        W36263   7.865  13.463  11.713  0.2636  0.2888 -0.0628
20003W        W36264   0.061   1.511  10.171  0.1838  0.1830  0.2181
20004W        W36265   6.605   7.804  11.025 -0.4086 -0.0721  0.0672
20005W        W36266  16.949  14.322   4.594 -0.0054  0.0176 -0.0836
20006W        W36267   6.662   0.926  14.481 -0.3444  0.1095 -0.1914
20007W        W36268   2.021   2.053   5.122 -0.0751  0.3860  0.3369
20008W        W36269  12.578  15.080   4.438  0.3304  0.2666 -0.0469
20009W        W36270   1.760   3.385  11.545 -0.1825 -0.1770  0.2220
20010W        W36271   4.879   3.721  13.273 -0.2596 -0.0291 -0.1074
20011W        W36272   4.594   2.990  13.747 -0.3061 -0.1516  0.4425
20012W        W36273  10.834   0.049  11.971  0.1156  0.1698  0.2054
20013W        W36274  18.390  10.528  14.787 -0.0578  0.1817 -0.0448
20014W        W36275   9.833   7.213   2.174 -0.1388 -0.4774 -0.0905
20015W        W36276   1.446   2.899   9.811 -0.3428  0.0003 -0.1434
20016W        W36277   1.293  18.543  11.511  0.0447  0.0867  0.0121
20017W        W36278  13.517  13.675  10.949  0.2498 -0.1626  0.1064
20018W        W36279   1.020   3.941   1.069  0.2919  0.1298  0.3082
20019W        W36280   9.344   3.653   3.608 -0.0229  0.0674  0.0520
20020W        W36281   7.197   5.959   3.715  0.4062 -0.1734 -0.0585
20021W        W36282  12.835   3.792   0.749 -0.0724  0.4427  0.0505
20022W        W36283   6.926  18.904   4.505 -0.2035 -0.1288 -0.1166
20023W        W36284   4.258   1.897  11.157  0.0751  0.1799 -0.3944
20024W        W36285   7.247   3.198  13.361 -0.0533 -0.1364  0.0884
20025W        W36286   9.532   7.126  14.786 -0.0188 -0.0555 -0.1277
20026W        W36287   3.331  14.552   0.013 -0.2602 -0.0140  0.0245
20027W        W36288  14.014   8.069  13.747  0.4188  0.0051  0.0408
20028W        W36289  14.879   5.184  13.460  0.2249  0.2052 -0.2336
20029W        W36290   6.562  16.394  12.826  0.0136  0.0607 -0.3858
20030W        W36291  18.774  14.963  14.604  0.1053 -0.0048 -0.0910
20031W        W36292   8.773   0.916   1.751  0.3215  0.2858  0.1098
20032W        W36293  19.154   3.602   9.652  0.3475 -0.0379 -0.2922
20033W        W36294  14.595  14.730   3.158 -0.1612 -0.1082  0.2427
20034W        W36295   0.386  12.104   1.051  0.1362  0.2299  0.1674
20035W        W36296  17.833   8.034   3.524  0.2303 -0.1072  0.2219
20036W        W36297   2.535  13.981  10.976 -0.4987  0.2535 -0.1172
20037W        W36298  12.088   1.046   0.574  0.0777  0.1331  0.0509
20038W        W36299  17.426   2.045  11.796 -0.2608  0.0672  0.1326
20039W        W36300   1.137   4.455  13.998  0.1229 -0.1940  0.1993
20040W        W36301  17.836   3.380  14.585 -0.2437  0.0604 -0.4754
20041W        W36302   0.769   2.891   2.339 -0.1303  0.0304  0.2622
20042W        W36303  19.043  18.116  13.766  0.1605 -0.0214 -0.2486
20043W        W36304   3.997  12.067   1.306  0.2266  0.0130 -0.3362
20044W        W36305  15.029  16.786   0.358 -0.2704 -0.0801 -0.1738
20045W        W36306   4.193  13.152  10.362  0.0091 -0.1261 -0.0090
20046W        W36307   0.938  17.356  13.942  0.0677 -0.1334 -0.0582
20047W        W36308  14.002  17.566  13.744  0.3894 -0.4278 -0.2959
20048W        W36309  19.427  12.552  13.114  0.1640 -0.1675  0.0005
20049W        W36310   8.592   1.021  12.300  0.2446  0.0539  0.1538
20050W        W36311  18.480  12.931   1.705 -0.2272 -0.1023 -0.1321
20051W        W36312  16.268   4.187  10.560 -0.2905  0.4239  0.0191
20052W        W36313   1.806   0.344   1.560 -0.4013 -0.1773 -0.0005
20053W        W36314   3.180  14.391  12.978  0.0382 -0.1787 -0.2473
20054W        W36315  17.854  16.228  10.806 -0.0662 -0.1518 -0.0548
20055W        W36316   5.696   9.540  12.723 -0.1827  0.1532  0.0657
20056W        W36317  15.388  18.643   5.030  0.0761 -0.1439 -0.2987
20057W        W36318   9.228   1.485   1.046  0.0599 -0.0545  0.0742
20058W        W36319  11.214   4.515   4.475  0.0580  0.3185  0.1948
20059W        W36320  12.386   3.701  10.846  0.1333 -0.1122  0.0575
20060W        W36321  19.289   1.515   2.509  0.0256 -0.1457  0.1317
20061W        W36322   7.232   6.086   1.263  0.2037  0.1935 -0.2209
20062W        W36323  13.686   1.904   3.662 -0.0511  0.0008  0.1836
20063W        W36324  15.280   4.182   2.574 -0.0358  0.3222  0.2701
20064W        W36325  13.192  15.065   5.037 -0.2660  0.1794  0.0743
20065W        W36326   6.905   3.977   9.789 -0.0424 -0.1850 -0.0808
20066W        W36327  14.648  19.089   5.286  0.2066  0.1704 -0.0668
20067W        W36328  13.880  15.401  12.083 -0.0804  0.3649 -0.0072
20068W        W36329   8.360  19.069   1.126  0.0389  0.0083 -0.0508
20069W        W36330  12.058  19.065   3.731 -0.0422 -0.1217 -0.1922
20070W        W36331  10.464  12.191   4.419  0.4406  0.1221 -0.1388
20071W        W36332  13.321  10.433   2.387 -0.0414  0.1027  0.1981
20072W        W36333   7.388  11.942  11.218  0.1459 -0.0226  0.2363
20073W        W36334   2.887  10.896   4.397 -0.0044 -0.0707 -0.0378
20074W        W36335   9.958   5.864   3.729  0.2175 -0.1899 -0.1399
20075W        W36336   4.630  13.547   0.962 -0.1208  0.0843 -0.2446
20076W        W36337  18.074   4.034   2.380 -0.0758 -0.1125 -0.2250
20077W        W36338   4.953   5.852  11.887 -0.4774  0.0136 -0.0300
20078W        W36339   2.065  13.453   4.928 -0.0283  0.0467  0.1519
20079W        W36340  10.848   2.475   0.929 -0.2684 -0.1501  0.1183
20080W        W36341   7.218  17.551   4.716  0.3598 -0.0824 -0.1355
20081W        W36342   1.642   2.318   2.889 -0.0161 -0.3138  0.0933
20082W        W36343   2.756   6.658  13.539  0.2303 -0.4064  0.1809
20083W        W36344  13.821  10.272   2.578 -0.1106 -0.1152 -0.3029
20084W        W36345  15.598   8.266  11.017 -0.1615  0.2856  0.1750
20085W        W36346   0.408   8.559  14.438 -0.0125  0.0400 -0.2935
20086W        W36347  14.109   3.293   1.440  0.1154  0.5478 -0.4113
20087W        W36348   0.390  16.529   4.182 -0.1490  0.0311  0.2565
20088W        W36349   2.986   9.242   4.271 -0.0258 -0.0179  0.0109
20089W        W36350   0.492   8.718  13.995  0.0252  0.0038 -0.2289
20090W        W36351   8.725   6.172   9.932  0.1140  0.0716  0.4226
20091W        W36352  12.433   1.337   5.134 -0.1291  0.3102 -0.5777
20092W        W36353  15.061   1.641   5.307 -0.2599 -0.1136  0.1019
20093W        W36354  12.841  18.028   1.374  0.0161  0.2156  0.0357
20094W        W36355   5.382  17.256   5.174 -0.0612 -0.1759 -0.1939
20095W        W36356   3.438  18.915   0.159 -0.2442  0.2266  0.3313
20096W        W36357  13.348  11.361   2.550 -0.0140  0.1582 -0.0615
20097W        W36358   9.969   5.624  14.066  0.3250 -0.0219 -0.0403
20098W        W36359   8.337   7.927  11.748  0.0053 -0.0856  0.0157
20099W        W36360  16.496  16.412   5.062 -0.0092  0.2043  0.2760
20100W        W36361   5.146   2.478   1.232 -0.2344 -0.0542 -0.1108
20101W        W36362  18.472  18.860   5.104 -0.1796 -0.0402  0.0832
20102W        W36363   5.554   7.993   0.519  0.2753  0.1989 -0.1833
20103W        W36364  12.318  10.912   0.373  0.0908 -0.1056 -0.1834
20104W        W36365   3.192  13.852  14.714 -0.2453 -0.0393 -0.1629
20105W        W36366   0.337  19.104  11.847 -0.0301  0.1481  0.0665
20106W        W36367   9.904  17.734   3.481  0.1647  0.1609  0.1583
20107W        W36368  11.660   9.004  10.189 -0.2604 -0.0197  0.3693
20108W        W36369  16.867  13.445  13.758 -0.0811 -0.2620  0.3437
20109W        W36370  13.003   1.629   3.068  0.1953 -0.0132 -0.2372
20110W        W36371  17.334   9.032   4.458 -0.0288 -0.1756 -0.2773
20111W        W36372   3.037  17.740  12.701 -0.0065  0.0142  0.2348
20112W        W36373  17.484   9.861   2.622 -0.1394  0.1599  0.1086
20113W        W36374   0.252  10.513   1.528  0.0583 -0.1313 -0.0791
20114W        W36375  12.980  14.710   0.742 -0.3508  0.1660  0.0226
20115W        W36376  13.290   2.731   3.233 -0.4825  0.2607  0.0233
20116W        W36377  17.939   5.041  13.131 -0.1246  0.0436 -0.0608
20117W        W36378  19.488   8.427  12.893  0.0489 -0.1213  0.5107
20118W        W36379   6.914   9.636   0.288 -0.3446 -0.0880 -0.1727
20119W        W36380  10.737  11.699  11.279 -0.0400  0.1256  0.2196
20120W        W36381  13.361   1.055  12.517  0.0417  0.1911 -0.0781
20121W        W36382   3.624   6.201  10.904  0.0646  0.2531 -0.3279
20122W        W36383  18.852  15.398  12.751  0.2342 -0.0575  0.0207
20123W        W36384  16.871  10.708   2.229 -0.0048 -0.0911  0.4039
20124W        W36385  10.381  12.855   5.079  0.0385  0.1101 -0.0028
20125W        W36386  15.359   4.614  14.084 -0.0662 -0.1374 -0.0510
20126W        W36387  13.446  10.068  13.999  0.1635 -0.0355  0.3651
20127W        W36388   4.486   9.363  11.865 -0.4420  0.1279 -0.1549
20128W        W36389   3.921   4.194   1.095  0.0364 -0.4661 -0.1768
20129W        W36390   4.392   3.305  14.444  0.0387 -0.0719  0.0050
20130W        W36391  12.454   6.558   0.396  0.0397  0.3297 -0.5226
20131W        W36392  15.543   8.695   3.029 -0.0935 -0.1692  0.2133
20132W        W36393  11.401   9.980  11.217 -0.3378 -0.2114  0.0337
20133W        W36394   0.942   4.846   4.400  0.0891  0.1811  0.1391
20134W        W36395   1.758   9.780   3.759 -0.1335  0.0627 -0.2539
20135W        W36396  15.962  11.879  11.839 -0.0375  0.1713 -0.1871
20136W        W36397  12.960  13.537   3.885  0.0599 -0.0102 -0.2041
20137W        W36398   9.136  15.684   0.971  0.6381 -0.1441  0.1230
20138W        W36399   5.548   9.331  12.285  0.2521  0.0921  0.3896
20139W        W36400  11.590   3.465   0.846  0.2338 -0.5168  0.0002
20140W        W36401   1.112  13.826  11.609 -0.2433 -0.0058 -0.1739
20141W        W36402   7.177  15.912  12.068 -0.2980 -0.4969  0.2136
20142W        W36403   2.852   7.957  14.753  0.1561  0.0940 -0.0727
20143W        W36404   4.226   8.316   1.709 -0.1957 -0.1833  0.0358
20144W        W36405   8.153  11.670  11.925  0.4773 -0.1796 -0.1867
20145W        W36406  12.133   9.216   0.762 -0.0369  0.1423 -0.1396
20146W        W36407   7.444  15.181   5.413 -0.4126  0.0841 -0.0612
20147W        W36408   4.101   9.299   4.054 -0.1011 -0.0095  0.0548
20148W        W36409   7.311   0.189   2.116 -0.3112  0.3710  0.0340
20149W        W36410  10.843  12.798   2.524 -0.0066  0.2292  0.3098
20150W        W36411   1.852  10.906   3.609 -0.0437 -0.2362  0.0193
20151W        W36412  18.921   1.096   0.380 -0.4649  0.1608  0.3446
20152W        W36413   4.784  18.573  13.553 -0.6417  0.1429  0.3087
20153W        W36414  16.849  10.071   4.618 -0.0362 -0.2821 -0.0740
20154W        W36415   8.046   4.951   3.721  0.3057  0.0367  0.0978
20155W        W36416   5.167  19.297  11.231 -0.1590 -0.2733  0.1406
20156W        W36417  13.937  18.227   2.026 -0.0120 -0.3173 -0.1843
20157W        W36418   1.666  16.499  10.447 -0.0442 -0.1848 -0.1977
20158W        W36419  15.709   3.268   1.580  0.1764  0.2529  0.0833
20159W        W36420  11.103  11.130  14.022  0.2127 -0.3058 -0.1887
20160W        W36421  16.032  16.659   2.289  0.1831  0.0859 -0.0952
20161W        W36422  10.447   1.366  10.997  0.1446 -0.4355  0.2725
20162W        W36423   2.822  10.772  12.890  0.1653 -0.4273 -0.0051
20163W        W36424  15.738  18.262   5.238  0.1186 -0.1919 -0.3294
20164W        W36425  10.083   0.658   0.841  0.1593  0.1007 -0.1453
20165W        W36426   3.230   4.067   4.140  0.1144  0.0005  0.0676
20166W        W36427   8.674   4.539  13.509 -0.2098 -0.0009 -0.1465
20167W        W36428   9.923   8.170   2.474  0.0168 -0.2349 -0.3353
20168W        W36429   7.356  16.545   2.256  0.2863 -0.2368 -0.2629
20169W        W36430  10.475   3.905   2.096  0.3118 -0.3295 -0.1555
20170W        W36431   4.846   8.891   2.409 -0.1710  0.0679  0.2842
20171W        W36432   4.963  10.922  14.596  0.1601 -0.1147 -0.0732
20172W        W36433  14.408  13.432   4.426 -0.1564 -0.2188 -0.1397
20173W        W36434  17.116   8.432   0.812  0.4115 -0.1555 -0.1423
20174W        W36435   1.559  18.325  10.624  0.0171 -0.2497 -0.5653
20175W        W36436   3.441   0.615   9.599 -0.2620 -0.1549  0.0966
20176W        W36437  13.972   8.910   1.013  0.2185  0.0815 -0.1914
20177W        W36438  15.290  14.166  14.064  0.3166 -0.2601  0.2477
20178W        W36439  17.187   5.077  12.165  0.1373  0.2940 -0.2043
20179W        W36440   5.023   4.102   0.423  0.1137 -0.1072 -0.1425
20180W        W36441   0.487  12.444  12.308  0.0266  0.1594 -0.0567
20181W        W36442  16.822   2.738  12.908 -0.1811 -0.1004 -0.4103
20182W        W36443  12.481  17.121   0.300  0.1748  0.0215 -0.0162
20183W        W36444  17.785  16.002  11.263 -0.1368  0.1366  0.3384
20184W        W36445   1.116  14.627  13.723 -0.0197 -0.0929 -0.0058
20185W        W36446   2.823  18.468  13.329  0.0720  0.0832  0.2421
20186W        W36447  17.488   3.819  14.708 -0.0036  0.3368 -0.2963
20187W        W36448   9.422   8.198   4.510 -0.0536  0.0107 -0.1172
20188W        W36449  14.881   7.369  14.583 -0.2080  0.0897 -0.5056
20189W        W36450  16.094  17.190  12.493 -0.0574  0.2280  0.1013
20190W        W36451   8.230   1.487   0.828 -0.4192 -0.0852 -0.0562
20191W        W36452  15.462  11.188   3.046  0.0223 -0.1066  0.2031
20192W        W36453  14.254   8.044  10.868 -0.1732  0.1299  0.0426
20193W        W36454  16.578   5.275  10.902  0.1004 -0.0254  0.0731
20194W        W36455   9.182  18.349   2.572 -0.0432 -0.1657 -0.0773
20195W        W36456  17.827   6.497  13.970  0.0184 -0.1102  0.0383
20196W        W36457   4.941  14.950   1.034 -0.1945  0.0834  0.0293
20197W        W36458   8.488  13.535   0.124 -0.0391 -0.0105 -0.0701
20198W        W36459  16.129   1.302  11.875 -0.1082  0.1627 -0.0553
20199W        W36460  18.885   4.689  12.302 -0.0092 -0.2332 -0.2412
20200W        W36461   6.769  12.244   3.715 -0.1845 -0.1787  0.1781
20201W        W36462   4.377   3.049   3.671 -0.0380 -0.0156  0.3037
20202W        W36463  14.891  14.766  13.604 -0.0481 -0.1329  0.3122
20203W        W36464   2.093   2.444   3.026 -0.1951  0.0196 -0.1865
20204W        W36465   3.029  15.333  13.349  0.2619  0.1481 -0.0888
20205W        W36466   6.904   4.600   3.502  0.1126 -0.3986 -0.1311
20206W        W36467  17.995  17.777   0.872  0.1028 -0.0759 -0.1617
20207W        W36468   2.616   0.066  11.235  0.1424 -0.0002 -0.0030
20208W        W36469   2.334  18.465   3.288  0.0149 -0.1359 -0.0510
20209W        W36470   2.285   4.712  12.906  0.1657 -0.1569  0.0516
20210W        W36471  14.986   1.468  12.936 -0.0223 -0.0328  0.2878
20211W        W36472   7.416  17.326  13.368  0.5137 -0.1164  0.0399
20212W        W36473   3.415  10.337  14.669  0.1184  0.2267  0.1329
20213W        W36474   6.867  15.478  10.900 -0.0611  0.0772  0.4495
20214W        W36475  13.636   0.064   2.529  0.2660  0.2242  0.0180
20215W        W36476   1.136   7.399   0.948 -0.0250  0.0748 -0.1467
20216W        W36477   1.139  18.142  13.589  0.0487 -0.2966 -0.0976
20217W        W36478  17.759   8.778  10.105 -0.0749  0.0750 -0.1850
20218W        W36479  10.693  11.242   2.169  0.0109  0.0544 -0.0884
20219W        W36480  11.754  19.445   3.448  0.1416  0.0450  0.1927
20220W        W36481   0.068  16.607   3.144 -0.0627 -0.0272  0.1768
20221W        W36482   3.423   3.504   1.528 -0.0720 -0.0244  0.2910
20222W        W36483  18.586  11.674   5.152 -0.1418  0.0074  0.0277
20223W        W36484  17.112   4.168  14.699 -0.3661 -0.1936 -0.2170
20224W        W36485   5.439   0.198   0.265  0.2428 -0.1359  0.3430
20225W        W36486  11.802  11.489   5.219 -0.2625  0.0264  0.3313
20226W        W36487  14.150  16.652   0.373 -0.1812 -0.1764  0.1266
20227W        W36488  11.926   2.056  11.223 -0.2363 -0.1172 -0.3379
20228W        W36489   3.752   2.946   4.316  0.4907  0.1006  0.1759
20229W        W36490   2.428  15.302  11.088 -0.1507  0.0410 -0.0025
20230W        W36491   1.635   1.832  13.403  0.0752 -0.0393  0.1656
20231W        W36492   0.623   8.168   0.900  0.1620  0.0640  0.1264
20232W        W36493   9.351  14.269  11.208 -0.4661 -0.1452 -0.0359
20233W        W36494   9.629  14.507  12.192  0.0583  0.4098  0.0290
20234W        W36495   5.504  15.654   3.864 -0.0086 -0.1267  0.0762
20235W        W36496   3.203  19.356   3.714 -0.5783  0.2910 -0.0610
20236W        W36497  10.732  13.681   2.450  0.0425  0.1468 -0.0666
20237W        W36498   2.380  14.750  14.369 -0.2424  0.1563 -0.3343
20238W        W36499  17.116   2.724   0.691  0.0175 -0.3494  0.0768
20239W        W36500  12.556   6.861   0.788 -0.0695 -0.3294  0.1322
20240W        W36501  17.842   8.233  13.788  0.2053  0.2191  0.2024
20241W        W36502   9.900   8.040   3.223  0.2202 -0.0240 -0.0049
20242W        W36503   7.121  13.477   0.147 -0.0265  0.0082 -0.0041
20243W        W36504   3.517   3.073  11.779 -0.4062  0.3017 -0.0459
20244W        W36505  15.829   5.481  12.148  0.2607  0.0524 -0.0825
20245W        W36506   7.822   7.106  14.214 -0.1151 -0.0197  0.0566
20246W        W36507   3.723   6.121   9.937  0.1426 -0.1246 -0.0667
20247W        W36508  13.768   4.278  12.058  0.0784  0.2162 -0.1363
20248W        W36509   3.024  14.584   3.130 -0.3136  0.0320  0.0825
20249W        W36510   8.604  16.172   3.313 -0.1542  0.2146  0.0670
20250W        W36511   9.758  10.014  14.402 -0.0341 -0.0696 -0.1990
20251W        W36512  15.799   0.908   5.598 -0.0716  0.1657 -0.3014
20252W        W36513  11.794   8.366   2.343  0.2087 -0.0045 -0.1486
20253W        W36514  13.962   1.124   2.947 -0.1255 -0.1155 -0.0490
20254W        W36515   2.214  14.287   1.821 -0.2760  0.0372 -0.2071
20255W        W36516   6.641   8.856   1.369  0.2698 -0.4423 -0.1495
20256W        W36517   8.362   1.027   2.573  0.0119  0.1191 -0.1890
20257W        W36518  10.590  15.626   1.914 -0.1343  0.1029  0.1253
20258W        W36519   8.291   0.497  13.691 -0.1009 -0.1257  0.1894
20259W        W36520  11.851   7.850  13.688 -0.1040  0.1083 -0.1148
20260W        W36521  18.422  16.053   5.099  0.1733  0.1476 -0.2138
20261W        W36522   0.945  15.493   2.103 -0.1635 -0.0982 -0.2087
20262W        W36523   8.993   0.091  11.835 -0.0031  0.0803 -0.0798
20263W        W36524   3.887   6.131  13.424 -0.1244 -0.4148  0.1606
20264W        W36525  12.161  13.620   3.166  0.2044 -0.0219 -0.2929
20265W        W36526  19.103   0.588   2.053  0.0691  0.1105  0.0357
20266W        W36527   1.078   6.244  12.314  0.1573  0.1722  0.1872
20267W        W36528   1.229  15.247  14.143 -0.0133 -0.1876 -0.1250
20268W        W36529   4.996   5.155  12.612 -0.2314  0.2412 -0.2640
20269W        W36530   0.330   4.150   0.813 -0.0760 -0.0038  0.3581
20270W        W36531   4.448  17.452   4.938 -0.1788  0.0851  0.1668
20271W        W36532   8.370  18.648  13.050  0.0898 -0.2938 -0.1968
20272W        W36533   9.727   5.763  11.418  0.2153  0.0951  0.2271
20273W        W36534  15.017   9.666   2.389  0.0300  0.1864  0.1903
20274W        W36535  13.717   0.976  11.242  0.0994  0.0677  0.1908
20275W        W36536  17.554  13.823   4.121 -0.0411  0.1335 -0.0993
20276W        W36537  11.452  11.338   5.811  0.4230 -0.0039  0.1544
20277W        W36538   7.542  14.695  10.782  0.1239 -0.1282 -0.1788
20278W        W36539  17.349  11.492  14.749  0.2900  0.0328  0.0928
20279W        W36540   2.203   7.739   1.788 -0.1709 -0.0392 -0.0684
20280W        W36541  12.050  10.992   3.566  0.1225  0.0530  0.1721
20281W        W36542  12.331  16.365  12.807  0.0448 -0.3474 -0.1238
20282W        W36543  18.412  17.789   5.934 -0.2049 -0.0493  0.3968
20283W        W36544  16.022   4.775   2.757  0.4399 -0.2886 -0.1799
20284W        W36545  14.197  10.321   2.265  0.0863 -0.0725  0.2191
20285W        W36546   0.089   6.163   3.779  0.0065 -0.1254  0.5371
20286W        W36547  13.224  16.391   2.570  0.1668 -0.2344 -0.0311
20287W        W36548  16.388  17.712   0.584 -0.1455 -0.0970 -0.2980
20288W        W36549  11.526   6.885  12.608 -0.0498 -0.4107 -0.1550
20289W        W36550   8.073   8.053  11.333  0.0526 -0.1388  0.1946
20290W        W36551  11.447   3.666   3.508  0.2557 -0.2640  0.2726
20291W        W36552   1.243   6.422  14.651 -0.0365  0.1072  0.1252
20292W        W36553  16.738   3.339   4.475  0.4952  0.0148  0.0465
20293W        W36554   5.966  18.632   2.399  0.0045  0.0850 -0.0962
20294W        W36555  14.496   7.391  11.438  0.2161 -0.2976 -0.1279
20295W        W36556   8.712   9.750   1.924  0.0146 -0.1916 -0.0867
20296W        W36557  10.513   6.522   4.016  0.1047 -0.4324 -0.2890
20297W        W36558   9.808  10.535   0.689 -0.0917 -0.1368 -0.1549
20298W        W36559   2.915  16.878  13.455  0.0663  0.2529  0.3639
20299W        W36560  14.304  15.563   3.476 -0.2050  0.0754  0.1407
20300W        W36561  15.426   5.722  11.550 -0.1321 -0.1934  0.0847
20301W        W36562  12.393  11.027   2.364  0.0365  0.3783 -0.0803
20302W        W36563   8.221  18.586   4.889  0.0901 -0.2470 -0.1441
20303W        W36564   4.166   1.300  10.235  0.3958  0.0804 -0.0931
20304W        W36565   8.069  13.128   2.521  0.0037 -0.1624  0.0988
20305W        W36566   7.451   7.353  13.816  0.0708  0.0025 -0.0546
20306W        W36567   3.373   1.513  13.823  0.3516 -0.1755  0.1791
20307W        W36568   3.048  18.837   2.776  0.3354  0.4074 -0.3732
20308W        W36569   5.033  11.592   4.713 -0.0983 -0.2792 -0.0001
20309W        W36570  15.388   5.335  11.816 -0.0868 -0.1694  0.3404
20310W        W36571  17.070   3.079   3.192 -0.0746 -0.0798  0.0246
20311W        W36572   9.475   7.457   3.646 -0.0974  0.4615 -0.0368
20312W        W36573   8.807   7.748  12.767 -0.1830 -0.0391 -0.2299
20313W        W36574   4.003  10.936   2.990  0.0858 -0.3528  0.3921
20314W        W36575  12.159   5.626   0.559  0.2370  0.2059 -0.0235
20315W        W36576   4.545   1.744   2.781 -0.2611  0.2692  0.5741
20316W        W36577  11.198  11.430   3.486 -0.1386  0.1718 -0.0298
20317W        W36578   8.189   8.425   3.085 -0.0560 -0.0488 -0.0174
20318W        W36579   0.978   0.531  13.680  0.0614  0.0440 -0.0829
20319W        W36580  12.873   7.360  12.594  0.1626  0.3511  0.0803
20320W        W36581  18.883  12.859   5.132  0.0569  0.2534 -0.4220
20321W        W36582  15.708  19.020   3.536  0.0354 -0.0880  0.0186
20322W        W36583  14.138  17.876  11.155 -0.0687  0.2380  0.0395
20323W        W36584   9.888  19.164   1.018 -0.0929 -0.1628  0.1766
20324W        W36585   0.732   1.493   4.959 -0.0082  0.0036 -0.1314
20325W        W36586  16.478  16.149  11.640  0.1772  0.3475 -0.1236
20326W        W36587  16.279  10.114  13.006  0.4390 -0.3387 -0.1393
20327W        W36588  15.665  11.240  10.643 -0.0414 -0.0767  0.0584
20328W        W36589  18.544   7.997  11.707 -0.4974  0.1311 -0.2798
20329W        W36590   5.951  16.686   4.504 -0.5404  0.2063  0.1836
20330W        W36591  18.355  13.572   0.641  0.2469  0.1809  0.1787
20331W        W36592   9.498   2.720  13.716  0.3161  0.2137  0.0656
20332W        W36593  10.571   3.799   0.409 -0.2136  0.2347 -0.2530
20333W        W36594  11.292  13.411   1.999  0.0476 -0.1152 -0.1386
20334W        W36595   2.570   8.105  11.191  0.0462  0.0809  0.0274
20335W        W36596  15.258  15.193   4.334  0.2287 -0.0720 -0.1105
20336W        W36597   9.188   3.803   9.833  0.3797 -0.1986 -0.2410
20337W        W36598   4.977  15.747  10.552  0.0745 -0.1158 -0.1618
20338W        W36599   2.816   5.107  11.519 -0.3199  0.0775  0.2338
20339W        W36600  18.187   8.708  14.686  0.1761  0.0258 -0.1998
20340W        W36601  17.987  17.624   1.880 -0.1974  0.2484 -0.3350
20341W        W36602  16.685  15.192   0.430 -0.0841 -0.0505 -0.0197
20342W        W36603   1.158   2.419  12.243  0.0190  0.0943  0.1921
20343W        W36604   8.146   6.130   2.130 -0.0731 -0.1709  0.1737
20344W        W36605  18.495   0.292  10.678  0.0445  0.2135  0.2460
20345W        W36606   6.251   8.530  10.419 -0.1870 -0.1401 -0.2467
20346W        W36607   6.858   8.439   1.744 -0.1653 -0.4146 -0.0137
20347W        W36608   9.226   2.636  12.730 -0.0496 -0.1234 -0.0350
20348W        W36609   2.600  17.957   1.551  0.1429  0.1220  0.0686
20349W        W36610  13.677  15.343  13.847  0.1890 -0.1766 -0.2052
20350W        W36611  19.278   8.163  12.372  0.0223  0.4115  0.2588
20351W        W36612  13.311   3.774  14.506 -0.0484 -0.3384  0.0476
20352W        W36613  13.832  14.254   1.764  0.1170 -0.2629  0.0330
20353W        W36614  18.207  10.057   0.130 -0.1423 -0.3551  0.1180
20354W        W36615  10.598   2.701  14.412  0.0191 -0.2952 -0.3246
20355W        W36616   1.283   0.767  12.776  0.0676  0.2061 -0.1068
20356W        W36617   0.853   2.989  12.805 -0.1779  0.2644 -0.0639
20357W        W36618  11.301  15.638   4.591  0.1238 -0.1355 -0.2526
20358W        W36619   6.881  15.091  12.593 -0.0030  0.1797 -0.3241
20359W        W36620   7.882   8.526  13.004  0.1632  0.0546  0.2616
20360W        W36621  12.691  15.035   1.729  0.1138 -0.0607  0.2971
20361W        W36622  13.220   8.699  12.871 -0.2083 -0.4351  0.1509
20362W        W36623  18.685  14.916   0.753  0.3085  0.3022 -0.0469
20363W        W36624   1.084   4.301   3.516  0.0662  0.2809  0.0605
20364W        W36625  13.914  12.738  12.316 -0.3248  0.1164 -0.0043
20365W        W36626  15.294  10.272   3.084 -0.0655  0.1775 -0.1377
20366W        W36627  11.942   6.474  14.596 -0.2586  0.1024 -0.2065
20367W        W36628   3.264   1.906  10.058 -0.0706 -0.0539  0.0628
20368W        W36629  13.887   3.764   1.426  0.0269 -0.1539 -0.2626
20369W        W36630  11.417  16.434   3.591  0.4364 -0.2318  0.0813
20370W        W36631   3.818  10.683  14.665  0.1225 -0.1829 -0.0094
20371W        W36632   7.122   4.918   0.244  0.3661 -0.2165 -0.1179
20372W        W36633  18.382   2.695  11.813  0.1137  0.0302 -0.0789
20373W        W36634  16.585   6.503   3.191 -0.0367  0.0595  0.0089
20374W        W36635  13.536  13.996   0.000 -0.1219  0.0493 -0.1440
20375W        W36636  12.028   7.052   3.901  0.1881 -0.0613  0.1418
20376W        W36637  11.185   3.208  11.265  0.1323  0.0176  0.0370
20377W        W36638  14.220  15.762  12.004 -0.1865  0.0705 -0.0374
20378W        W36639   6.430  14.265  13.825  0.0762  0.2787  0.1128
20379W        W36640  19.275  13.219   3.330 -0.3030  0.1032 -0.0836
20380W        W36641  10.665   7.609  11.531 -0.1338  0.3145  0.2207
20381W        W36642  14.610   2.338   4.744 -0.0867 -0.0368  0.1140
20382W        W36643   1.916  14.703  14.561  0.1630 -0.3291  0.1830
20383W        W36644  13.721   5.488  14.338  0.2148  0.0740 -0.3053
20384W        W36645  15.816   5.366   3.567 -0.0803 -0.2317  0.2104
20385W        W36646   6.514  14.077   3.754 -0.3234  0.3078 -0.3005
20386W        W36647   7.966   1.047  13.229  0.1293 -0.2611  0.2254
20387W        W36648   6.683   4.511  14.386 -0.1865  0.3780 -0.0458
20388W        W36649   1.373  18.732   1.049 -0.0551 -0.1173  0.1761
20389W        W36650   4.064   3.953   3.620  0.0424 -0.2021 -0.1451
20390W        W36651  14.505   5.314   1.112 -0.2987 -0.1419 -0.1645
20391W        W36652   6.443  11.770   0.011 -0.0585 -0.5185  0.0705
20392W        W36653   4.051   9.859  11.831 -0.3991  0.0480  0.2029
20393W        W36654  10.154   0.936   5.901 -0.0339  0.0755  0.1235
20394W        W36655   1.793  12.117   2.198 -0.0021 -0.1716 -0.1691
20395W        W36656  19.396  11.423   4.589  0.1030 -0.2028  0.0730
20396W        W36657   5.996   7.643   2.722 -0.1249 -0.4420  0.0225
20397W        W36658   3.732  17.418  13.316 -0.4128 -0.3418 -0.1436
20398W        W36659  12.208   2.441   0.028  0.1972 -0.2284  0.0660
20399W        W36660   4.998  14.209   4.780 -0.0679  0.1569 -0.2178
20400W        W36661   4.598  15.688   2.798 -0.1019  0.1586  0.0162
20401W        W36662   2.942   9.317   2.347  0.0680 -0.3730  0.6012
20402W        W36663   1.549   6.280  12.152 -0.0052 -0.0944 -0.1692
20403W        W36664   5.017  12.436  12.765 -0.1501 -0.4125  0.5372
20404W        W36665  15.145   7.259   3.408 -0.0512  0.2493  0.0642
20405W        W36666   4.252   5.780  13.289 -0.1296  0.0243 -0.2045
20406W        W36667  14.210   4.101  14.451  0.1972 -0.1626 -0.0641
20407W        W36668  11.347   5.690  12.598  0.1171 -0.1591  0.6238
20408W        W36669  15.649   0.394   4.490 -0.4193 -0.1760  0.2431
20409W        W36670   1.072   8.367  14.232 -0.1350  0.0918 -0.2936
20410W        W36671   1.638   4.214   2.907  0.0514  0.0052  0.1710
20411W        W36672   8.096   5.926   3.980 -0.3300 -0.3320  0.0980
20412W        W36673   0.519   9.395   4.949 -0.1694 -0.0931  0.0679
20413W        W36674  17.893  16.513  12.515 -0.0172  0.1849  0.1370
20414W        W36675  15.893   5.859  10.342  0.0025  0.1295  0.2241
20415W        W36676  17.253   6.852   1.288 -0.2126 -0.4107  0.0198
20416W        W36677  12.710  16.384  13.630  0.2352 -0.0200 -0.0773
20417W        W36678   4.976   9.590  11.854 -0.3183 -0.1696 -0.3999
20418W        W36679  11.748   9.890   4.187 -0.1549 -0.2381 -0.0831
20419W        W36680  13.371   2.270   3.601  0.0416 -0.1063 -0.0174
20420W        W36681  10.606   7.034   0.161  0.0561  0.1818  0.0904
20421W        W36682   8.681  16.350   3.813 -0.2488  0.0079 -0.2676
20422W        W36683  18.236  10.927  13.396  0.0705  0.0341 -0.1070
20423W        W36684   8.280   0.927   1.430 -0.1229 -0.1498  0.0559
20424W        W36685   9.977   7.866   3.702 -0.2383  0.2320  0.1507
20425W        W36686   0.561   5.110  10.584  0.0219  0.0427  0.0946
20426W        W36687   7.285  10.009  10.615 -0.0686  0.3225 -0.1508
20427W        W36688   8.032  17.044   4.239 -0.0046 -0.2616 -0.0743
20428W        W36689  17.402   1.225   9.811  0.0524  0.2170 -0.0535
20429W        W36690   2.742   1.234   3.165 -0.0616  0.1492  0.1187
20430W        W36691   0.086   5.519   3.201  0.2577  0.0176 -0.0809
20431W        W36692  10.201   6.124  10.124  0.3411  0.1790  0.1196
20432W        W36693  14.850  16.099   2.219 -0.3576 -0.1870 -0.1511
20433W        W36694   7.836  18.363   0.163 -0.3474 -0.1048  0.0713
20434W        W36695   4.738   7.615  10.327  0.1932 -0.3927  0.0019
20435W        W36696  10.684  14.945   1.945  0.1038 -0.0016  0.0293
20436W        W36697   4.038   4.548  14.051  0.3799  0.3340 -0.3768
20437W        W36698  12.645   8.824  10.343 -0.0353  0.3275 -0.2968
20438W        W36699  12.055   6.286   2.109  0.0608 -0.1162 -0.1700
20439W        W36700   1.910   9.116   4.822 -0.0603 -0.1405  0.1148
20440W        W36701  16.812  11.927   1.483  0.1198 -0.2505 -0.0016
20441W        W36702  11.107   2.754  10.968  0.0997 -0.0073  0.1261
20442W        W36703  16.010   3.581   1.136 -0.0180  0.1847 -0.0484
20443W        W36704  15.437   9.283   4.048  0.2872 -0.1562  0.2678
20444W        W36705   1.663  15.754  12.705  0.1048 -0.0581 -0.2257
20445W        W36706  14.569  16.329   4.926 -0.1794  0.1040  0.0424
20446W        W36707   9.548  15.078  13.779 -0.0063 -0.0755 -0.0314
20447W        W36708   8.511  14.514  14.581 -0.1044 -0.0033 -0.1437
20448W        W36709  15.731  11.789  14.633  0.1981 -0.1197  0.2307
20449W        W36710  11.161   1.452   3.050  0.1300  0.2833  0.0036
20450W        W36711   1.351   0.579  12.348  0.2956  0.2324  0.1058
20451W        W36712  18.145   8.635  12.882  0.0506  0.0190  0.1571
20452W        W36713  16.262  19.305  10.092 -0.2254  0.2031  0.1671
20453W        W36714   7.060  12.541   0.923 -0.1502  0.1732  0.1733
20454W        W36715  16.056   9.012   3.325  0.0598 -0.3445  0.0908
20455W        W36716  13.825  16.850  14.066  0.1138 -0.0774  0.0646
20456W        W36717   0.667   3.517  12.538 -0.1974 -0.2465  0.3517
20457W        W36718   5.460   7.777   2.359 -0.1002 -0.0863  0.2773
20458W        W36719   1.244  12.167  12.902 -0.0055  0.0247 -0.4802
20459W        W36720   0.280  14.077   0.693 -0.1827 -0.0098 -0.0240
20460W        W36721   5.839   5.190  12.641 -0.2048 -0.1639  0.0939
20461W        W36722  16.413   8.041  11.199 -0.1090 -0.1941  0.1595
20462W        W36723  10.809   5.534   1.061  0.2684  0.0978  0.2203
20463W        W36724   3.546  18.098   1.278 -0.1111  0.2220  0.3023
20464W        W36725   6.990  17.651  13.270 -0.2128  0.1040  0.0631
20465W        W36726   5.787  19.084  13.076  0.0130 -0.0166 -0.4392
20466W        W36727   4.334  15.903  11.436  0.4610 -0.0441 -0.1654
20467W        W36728   9.131  18.145  12.768 -0.3454  0.0341  0.1588
20468W        W36729  18.005   6.879  11.340 -0.0797 -0.1311 -0.0593
20469W        W36730   6.581   4.123   3.517 -0.1602 -0.4400 -0.2215
20470W        W36731  10.840   3.923  13.965 -0.1165 -0.0328 -0.2539
20471W        W36732  10.768   8.201   1.816 -0.1851  0.0363 -0.0157
20472W        W36733   8.980   1.696   4.222  0.2281 -0.0412  0.3281
20473W        W36734  15.207  10.072  11.410 -0.0778 -0.1470 -0.0842
20474W        W36735   0.853   7.957  10.026 -0.0644 -0.1284 -0.0112
20475W        W36736  12.484   7.677  10.445  0.5879 -0.1453 -0.5121
20476W        W36737  18.966   9.513  11.999  0.1960 -0.3903  0.1586
20477W        W36738   9.789  12.930   3.318  0.0511 -0.0566 -0.0275
20478W        W36739   4.829   3.392   3.113 -0.1029  0.0423 -0.1344
20479W        W36740  14.549   8.329  11.283 -0.2580  0.1712  0.0469
20480W        W36741   8.220  15.648  10.749 -0.2883 -0.2204 -0.2651
20481W        W36742  14.974  19.382   5.552  0.0658  0.1966 -0.0131
20482W        W36743   7.813   9.239  11.027 -0.1699  0.2767 -0.1268
20483W        W36744   2.874   1.533   8.869  0.2651  0.0693 -0.1012
20484W        W36745   9.463  19.077  10.647  0.1204  0.1261 -0.1557
20485W        W36746   2.385   1.571   2.986 -0.0995 -0.2037 -0.1445
20486W        W36747  16.210  13.143   1.625  0.0102 -0.4140  0.1196
20487W        W36748  16.311   4.014   3.885  0.1993 -0.0002 -0.1334
20488W        W36749  16.006  12.347   3.912  0.2328 -0.1863  0.3336
20489W        W36750  15.574   5.101  10.855  0.0358 -0.0688 -0.0486
20490W        W36751  10.063  12.119  13.256  0.0460  0.1227 -0.0618
20491W        W36752   1.428  14.263  12.856  0.0945  0.1620 -0.0343
20492W        W36753   0.940   7.944   4.687  0.2342 -0.1438  0.1139
20493W        W36754   7.333   4.807  12.934  0.0240 -0.2043 -0.0159
20494W        W36755  16.528   1.719  13.923 -0.0861  0.1473  0.1866
20495W        W36756  10.244  15.285   1.798  0.1213  0.1480  0.3713
20496W        W36757  16.159  10.519  11.385 -0.0878 -0.0505 -0.2075
20497W        W36758   3.188   9.335   0.710 -0.2575  0.1789 -0.3373
20498W        W36759  11.317   7.109  13.803  0.0274  0.2838  0.2567
20499W        W36760   9.296  18.175  11.024 -0.2350  0.3380 -0.1055
20500W        W36761   8.911  14.588  11.215 -0.0948  0.0821  0.0939
20501W        W36762   1.444  19.307  12.528  0.0393  0.2895  0.0208
20502W        W36763  11.695   0.212   2.055  0.1092 -0.1069  0.5060
20503W        W36764   1.896   5.946  10.519  0.0253  0.1880 -0.1124
20504W        W36765  18.295  14.337   0.989  0.1923  0.0128 -0.4078
20505W        W36766   0.389  13.883  10.894  0.4739  0.3939 -0.1050
20506W        W36767  13.250  13.094   0.451 -0.2294  0.1595 -0.0637
20507W        W36768  15.950   1.515   3.755 -0.0895  0.1772  0.1258
20508W        W36769   7.840   9.679   0.109  0.0510 -0.0654 -0.0846
20509W        W36770  15.265  10.470   2.577 -0.0500 -0.0498  0.1440
20510W        W36771   4.409  18.818   4.686 -0.3202 -0.2579  0.0791
20511W        W36772   7.822   7.291  10.658  0.1222 -0.1543 -0.0494
20512W        W36773  13.603  19.168   2.911 -0.1443  0.0570  0.1198
20513W        W36774   1.337  17.747  13.957  0.1576 -0.2800  0.2721
20514W        W36775   9.373   8.442   9.810 -0.3503 -0.1529 -0.1212
20515W        W36776  15.125  14.260   1.627 -0.0220 -0.1526  0.0107
20516W        W36777  14.695  14.212   3.023 -0.0258 -0.3766 -0.0678
20517W        W36778   9.103  19.409  10.933  0.2521  0.1021  0.2318
20518W        W36779   5.480  13.453   5.888  0.1201 -0.1099  0.0686
20519W        W36780   0.348   3.393  14.561  0.0651  0.0978  0.4103
20520W        W36781  17.555  17.349  11.739  0.0490 -0.1455  0.1899
20521W        W36782  13.111   4.993  13.748 -0.1693  0.0130 -0.3684
20522W        W36783   0.630  17.793  11.512 -0.1698  0.0119 -0.0933
20523W        W36784  11.750  16.848   2.365 -0.2832 -0.0794 -0.2383
20524W        W36785   3.473  10.574  12.253 -0.2346 -0.1510 -0.0310
20525W        W36786  17.818   5.876   0.886  0.1757  0.1049  0.0877
20526W        W36787  13.781  10.918  12.509 -0.0924 -0.0276  0.2891
20527W        W36788  16.127  18.873   1.520 -0.0891  0.0646 -0.0517
20528W        W36789  18.734   8.728  10.669  0.0355  0.2192  0.4027
20529W        W36790  14.867  10.248  13.528  0.1462 -0.1708  0.0014
20530W        W36791  14.331   1.485  10.953  0.0019  0.1363  0.0753
20531W        W36792  10.440  18.524   3.399 -0.1243  0.0161  0.1493
20532W        W36793   4.791  19.305  12.149  0.1523 -0.0289 -0.1054
20533W        W36794   2.896  13.954   3.812 -0.2860  0.4408  0.1182
20534W        W36795  13.013   4.472   9.503  0.0204  0.2453  0.3038
20535W        W36796   9.650  16.742   1.334 -0.1846  0.3078 -0.0676
20536W        W36797   3.706   9.714  12.239  0.2399  0.0095 -0.1042
20537W        W36798  16.909  19.119  14.180 -0.2954  0.1990  0.1478
20538W        W36799  15.142  18.575   1.287 -0.1993  0.1737 -0.1448
20539W        W36800   5.412   5.014   9.021 -0.0205 -0.1852 -0.0268
20540W        W36801   0.358   5.694   5.024  0.1255 -0.0202  0.0617
20541W        W36802   6.852   1.473   2.472 -0.0908 -0.0713 -0.1227
20542W        W36803  17.206  10.572  13.253 -0.0887 -0.1422 -0.3020
20543W        W36804   4.396   3.798  10.613 -0.1609  0.2334  0.2116
20544W        W36805  11.450  10.638  11.784 -0.0847  0.1199 -0.0175
20545W        W36806   6.882   4.527   0.085  0.4323 -0.0508 -0.0806
20546W        W36807  18.138  17.665   3.020 -0.0124  0.0096  0.2442
20547W        W36808   6.018   4.899   0.047 -0.0037 -0.1813 -0.0179
20548W        W36809  11.535   0.915   2.432  0.0473 -0.1870 -0.3401
20549W        W36810   4.634  15.986  13.981  0.2092 -0.0044  0.0135
20550W        W36811   2.233  16.195  14.407 -0.3215 -0.1603 -0.4687
20551W        W36812  16.516  17.504  11.939  0.0188  0.0162 -0.0155
20552W        W36813  14.658  18.625  12.212  0.0126 -0.0781 -0.0855
20553W        W36814  10.753  19.086   1.418  0.2722  0.1174  0.0534
20554W        W36815  14.329   3.132  12.101 -0.1078 -0.3292 -0.1072
20555W        W36816  14.158   4.844   0.218 -0.5293 -0.3851 -0.2910
20556W        W36817   0.244  12.795   3.200 -0.3684 -0.3176 -0.0383
20557W        W36818  16.149   3.264  13.238 -0.2952 -0.1318 -0.1456
20558W        W36819  10.945   9.368  11.893  0.3549 -0.1795  0.1155
20559W        W36820   6.396  11.785   1.025 -0.1753 -0.3210 -0.2438
20560W        W36821  17.825   4.573  11.684 -0.0055 -0.0510 -0.0494
20561W        W36822  14.740  15.200  14.589 -0.0248  0.1426 -0.2873
20562W        W36823  11.438  12.297   3.611 -0.0543 -0.0200 -0.1210
20563W        W36824   1.401   1.937  11.221  0.1536 -0.1804 -0.0781
20564W        W36825  18.203   7.480   0.721 -0.1817  0.0018 -0.2599
20565W        W36826  11.820   0.511   3.797  0.0132  0.2831 -0.0869
20566W        W36827  13.020   5.753   4.866 -0.0420  0.0523 -0.0565
20567W        W36828  13.487  13.068   1.718 -0.1812  0.1808 -0.0547
20568W        W36829   8.534   6.507   1.054  0.0014  0.0125 -0.1613
20569W        W36830   6.471   9.551  12.725  0.1518 -0.2252  0.0376
20570W        W36831   2.727   6.917  14.798  0.2161  0.1147 -0.0864
20571W        W36832  11.727  10.455   4.354 -0.1425 -0.1125 -0.3057
20572W        W36833   0.930  18.526   0.953 -0.1098  0.1688  0.1664
20573W        W36834  15.575   8.356  14.221 -0.0171 -0.2743  0.0942
20574W        W36835   4.558  14.606  13.443  0.0289 -0.1715  0.2180
20575W        W36836  11.116  19.418   4.946  0.3584 -0.0717  0.1627
20576W        W36837   3.503  15.812   1.139  0.2412 -0.1340  0.1337
20577W        W36838  19.351   2.408   1.316  0.2214  0.1464 -0.2548
20578W        W36839  16.794  10.817  14.651  0.0870 -0.0275  0.1885
20579W        W36840  11.700  14.511   2.452  0.0833 -0.0727  0.1736
20580W        W36841   0.074   7.908  11.731  0.0244 -0.2749  0.0181
20581W        W36842   0.919  13.735  11.072  0.1505 -0.1866 -0.0790
20582W        W36843  13.220  16.477  11.186  0.1789 -0.2401  0.2292
20583W        W36844  18.842  11.475   3.364 -0.0007 -0.1212  0.2306
20584W        W36845  15.306  18.356  11.076 -0.0278 -0.0011 -0.1728
20585W        W36846   3.866   0.275   3.323 -0.2252 -0.2087 -0.1520
20586W        W36847  14.077   1.733   5.484  0.3746 -0.2712 -0.0892
20587W        W36848   3.869  14.701  10.447  0.0613  0.1921 -0.2242
20588W        W36849  17.412  10.761   0.458  0.0770 -0.1327  0.0646
20589W        W36850   7.493  18.631  14.061 -0.0641 -0.3422  0.1344
20590W        W36851  14.688   4.662  11.567  0.0460 -0.0027 -0.2365
20591W        W36852  11.879   1.728   2.112  0.1771  0.2396 -0.0394
20592W        W36853   8.955   8.541   0.350 -0.4151 -0.1246  0.2270
20593W        W36854   1.658   4.348   1.158  0.2808  0.0098  0.0847
20594W        W36855  15.667  12.107  10.302  0.3088  0.3961 -0.2882
20595W        W36856   4.934   7.364   0.807  0.0157 -0.1509 -0.0556
20596W        W36857   8.471   5.177   3.325  0.1034  0.0222 -0.0987
20597W        W36858   5.798  15.774  11.151  0.0975  0.0165 -0.1895
20598W        W36859   8.067  15.230  14.798  0.1304 -0.1043  0.4134
20599W        W36860   2.135  10.614  12.296 -0.1941  0.2742 -0.1126
20600W        W36861   0.434  16.801   3.353 -0.1316 -0.0948  0.1547
20601W        W36862   3.267   7.395   3.942 -0.4187 -0.1901  0.0336
20602W        W36863   7.584   7.105  10.201  0.0067  0.0309 -0.0915
20603W        W36864   8.096  14.147  11.203 -0.1639  0.1353 -0.0841
20604W        W36865  12.242   0.342   1.992 -0.2487  0.0628 -0.1674
20605W        W36866   1.701   0.936  10.710  0.0111 -0.1692  0.3012
20606W        W36867  12.698   9.032   3.155 -0.0866 -0.0222 -0.2709
20607W        W36868   1.744  11.734  14.538 -0.2112 -0.1674  0.1857
20608W        W36869  14.974  13.723  13.984 -0.2425 -0.1585  0.0020
20609W        W36870   8.177   9.947   1.769 -0.1412 -0.1144 -0.0637
20610W        W36871  14.677  11.947  11.349 -0.0169 -0.1890 -0.0634
20611W        W36872  10.314   1.122  11.493  0.1262 -0.3209 -0.1337
20612W        W36873  16.015   8.881   4.674  0.0753  0.3293  0.2228
20613W        W36874   0.310  16.537  12.280  0.0561  0.0493 -0.1283
20614W        W36875   7.932  10.539   1.974  0.2747  0.1533 -0.1658
20615W        W36876  15.153   9.920   0.483 -0.0718 -0.1217  0.2795
20616W        W36877  13.357   6.010   3.949  0.0304 -0.0823  0.2286
20617W        W36878   0.551  10.786  13.364  0.0152  0.3628  0.1009
20618W        W36879  15.376   6.862   4.007  0.3480  0.1238  0.0140
20619W        W36880  10.899  14.563   0.516  0.0119  0.0944  0.1921
20620W        W36881  17.874   0.968   4.800  0.3003 -0.1056  0.0843
20621W        W36882  13.392   3.316  14.263  0.1880 -0.2388 -0.0206
20622W        W36883  19.127   2.296  10.484 -0.2744 -0.1350  0.0187
20623W        W36884  16.677   0.056  13.906  0.0516  0.0386  0.2169
20624W        W36885  16.021  17.461   3.606 -0.0130  0.2159 -0.2136
20625W        W36886   0.021   3.160  14.285  0.2126 -0.0587 -0.0383
20626W        W36887   4.234   5.941  11.074  0.1234  0.1391  0.2159
20627W        W36888   6.655  15.386  11.357 -0.1153  0.0070  0.0510
20628W        W36889   0.364  18.547  13.566 -0.1344 -0.1234 -0.2385
20629W        W36890   3.027  11.337  12.172 -0.0694 -0.0500  0.5120
20630W        W36891  10.373  15.409  11.998 -0.0172 -0.3730  0.3173
20631W        W36892   5.940   5.384  11.115 -0.1530  0.2462  0.0077
20632W        W36893  13.786   8.139  10.290  0.0989  0.3110  0.2115
20633W        W36894  15.187  10.674  13.524 -0.2312  0.0089 -0.0662
20634W        W36895   5.676  12.088  13.358 -0.2912  0.0743  0.5051
20635W        W36896   4.228   0.500   2.469 -0.0450 -0.1183 -0.0698
20636W        W36897   4.428  14.121   4.694 -0.0046  0.0347  0.5105
20637W        W36898   7.223  14.985  13.152 -0.3725 -0.1135  0.2546
20638W        W36899  10.111   9.387   3.100 -0.2675  0.1532 -0.0127
20639W        W36900   8.939   6.185   2.399  0.0283 -0.0325 -0.2881
20640W        W36901   9.496   6.695  13.970  0.1114 -0.1598  0.2603
20641W        W36902   1.216  11.677   2.545  0.0832 -0.0568  0.2726
20642W        W36903   3.699  18.128   3.544  0.4168 -0.2740  0.1523
20643W        W36904  14.697   9.270   2.095  0.1226 -0.1047  0.1194
20644W        W36905   9.333  17.185   0.121 -0.0138 -0.0409  0.1384
20645W        W36906   5.003   4.262   3.913  0.0932  0.2806  0.0746
20646W        W36907  10.100  17.932  13.345  0.0425  0.0437  0.2831
20647W        W36908   9.392   8.950   9.956  0.0158  0.3350 -0.0220
20648W        W36909   3.241   3.889   9.725 -0.0663 -0.0504  0.1514
20649W        W36910   7.997  17.142  10.439 -0.2215  0.0129  0.5768
20650W        W36911   7.868   3.695  13.694 -0.0735 -0.0696  0.0746
20651W        W36912  14.188   7.020  11.630 -0.3281 -0.1940  0.1492
20652W        W36913  14.286   1.476   0.700  0.1723 -0.0730 -0.0450
20653W        W36914   6.733   1.701  14.324  0.0978 -0.0354 -0.0204
20654W        W36915   5.426  17.951   4.499 -0.1750 -0.2441 -0.0100
20655W        W36916   1.452   1.418  10.467 -0.2035 -0.0605  0.0925
20656W        W36917   2.155  17.225  13.989 -0.0823 -0.2576  0.1707
20657W        W36918  13.002  12.816  14.223 -0.0645  0.1349 -0.0218
20658W        W36919   8.523   4.625   1.939  0.1542  0.0287  0.2173
20659W        W36920  17.676   4.767  14.664 -0.1974  0.0903 -0.1648
20660W        W36921  19.098  10.789  14.217 -0.1435  0.2347  0.1455
20661W        W36922  16.156  11.285   2.359  0.4130 -0.3157 -0.1168
20662W        W36923   0.188  18.651   5.566 -0.0302 -0.3599  0.3623
20663W        W36924   9.910   8.670  13.838 -0.1740 -0.0130 -0.3020
20664W        W36925   3.390  16.041  11.565 -0.1476 -0.1330 -0.0538
20665W        W36926  14.982  13.626  10.460  0.0912  0.1138  0.2957
20666W        W36927  18.074   8.171   9.387  0.2861 -0.0854  0.3204
20667W        W36928   4.687   4.360   0.145 -0.0840 -0.1827 -0.0526
20668W        W36929  13.391  14.284   6.075 -0.1730 -0.1590  0.0027
20669W        W36930   5.098  15.911  11.023 -0.0480 -0.0410 -0.1799
20670W        W36931   0.213  10.491  10.432  0.1492 -0.2579  0.3365
20671W        W36932  12.821  17.264   1.445  0.1473 -0.0411 -0.0906
20672W        W36933   2.698   0.261   0.295 -0.3764  0.1222 -0.0284
20673W        W36934  13.343  11.300   3.512  0.1732  0.2316  0.2618
20674W        W36935   0.812  10.465  10.961  0.1844 -0.1867 -0.2211
20675W        W36936  15.922   6.433   2.406 -0.1455  0.0846 -0.0693
20676W        W36937  17.451   7.928  10.833  0.4263  0.1955  0.1759
20677W        W36938   6.096   6.692   1.058 -0.1739  0.0449 -0.1134
20678W        W36939  16.114   7.050  10.418  0.1029  0.0406  0.0199
20679W        W36940  10.728  16.988  13.810  0.2381  0.0200  0.1554
20680W        W36941   0.659  12.021   0.477 -0.2411  0.2444 -0.0251
20681W        W36942   4.361   2.941  13.276  0.1411 -0.2093  0.2758
20682W        W36943   0.611  14.805  12.841  0.0013  0.2379  0.2642
20683W        W36944   4.508  10.085  10.209 -0.0601  0.2247  0.0603
20684W        W36945   9.661  15.852   1.414  0.5542 -0.0814 -0.0149
20685W        W36946   3.054  13.234   3.268  0.1824  0.0647  0.0447
20686W        W36947  12.969  17.822  13.750  0.0121 -0.0076  0.1821
20687W        W36948  14.973  15.377   5.848 -0.0235 -0.1043 -0.0762
20688W        W36949   7.325   6.652   1.807  0.0965  0.1075 -0.1223
20689W        W36950   2.853   8.917  12.837 -0.4161  0.0988  0.0311
20690W        W36951   9.703  11.970   1.488 -0.0193 -0.1303  0.1825
20691W        W36952   4.324  13.043  11.724 -0.0123  0.0659  0.4679
20692W        W36953  12.915  10.880  14.002  0.2654  0.1730  0.0986
20693W        W36954   4.496  14.256  14.055 -0.0673 -0.1081 -0.1191
20694W        W36955   9.786   8.689   2.364 -0.2948 -0.1585 -0.0408
20695W        W36956   8.153  13.284   3.366  0.0654  0.3838 -0.0888
20696W        W36957  10.004  17.805  11.870  0.2574  0.1422  0.1172
20697W        W36958   9.578   6.630   0.193  0.1540 -0.4106 -0.0014
20698W        W36959   0.649   4.414  14.022 -0.0459 -0.1451 -0.1979
20699W        W36960   1.575  16.229  10.912 -0.2255 -0.1033 -0.1832
20700W        W36961  10.398   7.347   2.224  0.3201 -0.1201 -0.0040
20701W        W36962   1.669   2.528   0.756  0.2198  0.4218 -0.1419
20702W        W36963  17.955   2.264   2.025 -0.0128  0.0492 -0.0916
20703W        W36964   8.368  17.084   4.669 -0.2353  0.1854 -0.1897
20704W        W36965   7.739  17.940  13.984  0.1614  0.1910  0.0545
20705W        W36966  19.434   6.371  13.554  0.0310 -0.0095  0.0412
20706W        W36967  10.728   8.787   3.973  0.1207  0.2242  0.1896
20707W        W36968   6.825   0.013   0.885  0.0200  0.0845 -0.0129
20708W        W36969  12.036   9.510   3.921  0.1474  0.1088  0.0105
20709W        W36970   3.919  16.313   0.450  0.0472 -0.1484 -0.1028
20710W        W36971  14.408   8.237   2.646 -0.1439  0.1862 -0.0573
20711W        W36972   6.172   9.457  10.428  0.1536  0.1900  0.4277
20712W        W36973  13.388   4.276   4.875  0.2044 -0.1662  0.3135
20713W        W36974   6.367   2.236  11.212  0.1314 -0.4468  0.0714
20714W        W36975   0.497  14.866   4.314 -0.2794  0.2183 -0.0039
20715W        W36976  15.081   9.450  12.904  0.3201 -0.1671  0.3023
20716W        W36977   8.635  17.394   4.033 -0.1906 -0.4019  0.2391
20717W        W36978  18.034   6.445   0.985 -0.1833  0.2828 -0.1087
20718W        W36979   5.929   2.915   2.621 -0.6348  0.3260  0.1780
20719W        W36980  19.425  18.217   1.391 -0.1521  0.3743  0.1448
20720W        W36981  13.415  13.930  14.089  0.1541 -0.1564  0.4626
20721W        W36982   8.001   2.495   1.956 -0.2594  0.5698  0.0734
20722W        W36983   9.016  14.940   2.777 -0.0423  0.0514  0.0489
20723W        W36984   7.009  19.155   1.192  0.1739 -0.4403 -0.0487
20724W        W36985  11.382  17.677  10.916  0.1800  0.7054 -0.1555
20725W        W36986  10.952  18.007   4.433 -0.1974  0.0509 -0.0735
20726W        W36987  12.975  13.112   2.759  0.0040 -0.1441  0.2131
20727W        W36988  18.845  19.082   9.932 -0.1985  0.0583  0.2518
20728W        W36989   9.732  17.061   2.248  0.3839  0.3270  0.2709
20729W        W36990  16.548  18.144  11.801  0.2514 -0.0887  0.1277
20730W        W36991  17.622  14.079   5.538 -0.2597  0.1881  0.3181
20731W        W36992   5.829   4.461  11.876 -0.0470  0.1032  0.1013
20732W        W36993   3.436  14.157  13.736  0.2897  0.0611 -0.0794
20733W        W36994   0.949   7.083  12.464  0.0488  0.2324 -0.0425
20734W        W36995   8.443  10.974  11.381 -0.2359 -0.0315 -0.1728
20735W        W36996   8.052  16.952  11.214  0.1994 -0.0239 -0.0166
20736W        W36997  16.739   0.478   2.571  0.3253 -0.1059 -0.0081
20737W        W36998   3.197  17.342   1.333 -0.1655 -0.3624  0.3279
20738W        W36999   3.893   3.329   3.277  0.3180 -0.0989  0.0280
20739W        W37000  11.778   0.416  13.139 -0.1791 -0.1248  0.1126
20740W        W37001  18.763  11.142  13.392  0.0490  0.1773  0.3672
20741W        W37002   0.996   6.520  10.302 -0.0055  0.0177  0.1177
20742W        W37003  13.358   8.638   1.996 -0.1098 -0.0083 -0.0479
20743W        W37004   0.140  15.703   0.101 -0.4485  0.0740 -0.1141
20744W        W37005  12.226  13.633  11.904  0.1642  0.0581 -0.1017
20745W        W37006   1.006   1.215  12.342 -0.0571  0.0180  0.1196
20746W        W37007   8.947  10.477  14.504 -0.1777  0.3734 -0.1565
20747W        W37008   4.294  16.322   3.034  0.0836 -0.2509 -0.0125
20748W        W37009  18.110   4.757  12.061  0.1644  0.0569 -0.0775
20749W        W37010  13.058  16.031  12.458  0.0464  0.2094  0.1016
20750W        W37011  11.559   6.691  11.670 -0.0341  0.0082 -0.1679
20751W        W37012   0.603   2.871   1.820 -0.2144 -0.1496  0.1645
20752W        W37013  16.837  17.867  13.593 -0.2382  0.0647 -0.2547
20753W        W37014  11.924  10.618   0.580  0.1654  0.1262 -0.1172
20754W        W37015   4.540  14.018   0.121  0.3455 -0.2935  0.5894
20755W        W37016   3.954  17.589  12.768 -0.1446  0.1888  0.0928
20756W        W37017   0.254   1.493  10.626  0.2684  0.0617 -0.1222
20757W        W37018   9.734   2.457  13.346 -0.0047  0.1039  0.1554
20758W        W37019   0.254   7.706   0.880 -0.0267  0.0569  0.4451
20759W        W37020   0.032  16.321   3.764 -0.0622 -0.2680 -0.0730
20760W        W37021   1.172   4.577   0.452  0.1062  0.3956  0.5229
20761W        W37022  12.607   5.907   4.587  0.1607  0.0201 -0.0343
20762W        W37023   6.345   2.847  12.633  0.1787  0.1692 -0.2774
20763W        W37024   3.773  15.927   9.343 -0.1793  0.2438  0.1455
20764W        W37025   4.225   7.078   1.387 -0.0364  0.1831 -0.5907
20765W        W37026   1.822   4.214  12.254  0.1012 -0.1108 -0.1520
20766W        W37027  10.235   8.949  10.652  0.0398  0.0949  0.2105
20767W        W37028   3.291  15.042  14.681  0.0939 -0.1150 -0.1735
20768W        W37029   6.017   4.208  12.503 -0.2104 -0.1290 -0.0298
20769W        W37030  13.842  12.574   4.897  0.0030  0.1041  0.0618
20770W        W37031   9.656   8.292   2.872 -0.0440 -0.1789 -0.2056
20771W        W37032   7.405   0.217  10.505  0.1637  0.3772 -0.3110
20772W        W37033  14.174  16.847  11.670 -0.0685 -0.1822  0.0375
20773W        W37034   8.578  16.785   1.796  0.1566 -0.2530 -0.0261
20774W        W37035  13.196   9.862  12.910 -0.3457 -0.0529  0.1395
20775W        W37036  18.471   8.321   1.365  0.1004 -0.0953 -0.4719
20776W        W37037  13.006  10.129   0.228 -0.0237 -0.0991 -0.0660
20777W        W37038  11.863  11.916   4.426 -0.1412  0.1881 -0.1047
20778W        W37039  16.949  12.163   2.410 -0.4811 -0.0153 -0.2892
20779W        W37040   6.868  17.708   1.917  0.0984  0.1490 -0.0584
20780W        W37041   6.155   1.984   3.791  0.3759  0.1149 -0.3540
20781W        W37042  18.108  12.171  10.238  0.2083  0.3471  0.1530
20782W        W37043   1.486   2.601   3.816  0.2777  0.3670 -0.1149
20783W        W37044   6.321   9.890  10.365 -0.3850 -0.1128  0.0596
20784W        W37045  18.992  11.245  14.162  0.2941  0.1336  0.2755
20785W        W37046   6.173   3.839   2.569 -0.3790 -0.1797  0.0968
20786W        W37047   1.471  17.875  13.295 -0.0433  0.0959  0.3490
20787W        W37048   9.440  10.671   0.979 -0.0181 -0.0069  0.2921
20788W        W37049  17.148   0.049  13.195  0.0398  0.2341  0.0218
20789W        W37050   8.469   0.628   1.973 -0.1319  0.1316 -0.0622
20790W        W37051   7.567  17.582   4.333 -0.2427  0.2092 -0.1194
20791W        W37052  14.118   1.653   4.999 -0.0043 -0.0376 -0.0180
20792W        W37053   9.892  17.676   3.003  0.1154  0.1298  0.3175
20793W        W37054   8.978   0.519  11.540 -0.2233 -0.1942  0.1028
20794W        W37055  12.324   4.546   0.257 -0.0543 -0.3742 -0.1639
20795W        W37056  16.548   0.507   0.739  0.0269  0.0067 -0.0066
20796W        W37057  14.610  13.984  10.558  0.3576  0.2193  0.2102
20797W        W37058  12.216  11.886  12.228 -0.3556 -0.1116 -0.2697
20798W        W37059  18.599   8.889  13.785 -0.0981 -0.4325  0.1541
20799W        W37060  17.157  17.470  12.946  0.0353 -0.0159 -0.0488
20800W        W37061   8.872  14.006   1.605  0.3575 -0.1174 -0.0637
20801W        W37062   1.106  16.896  11.462  0.2266 -0.1394 -0.0963
20802W        W37063   6.028  18.595   4.173 -0.1356 -0.0145  0.0573
20803W        W37064   5.303   4.509   1.404  0.1894  0.2289 -0.1303
20804W        W37065   7.883   4.268   3.735  0.0205 -0.5526 -0.3773
20805W        W37066   5.902   6.495   0.048 -0.2353 -0.1612  0.0611
20806W        W37067  16.478  17.944   4.585 -0.0682 -0.0066 -0.3054
20807W        W37068  12.606   0.646  13.003  0.2382  0.0015 -0.1133
20808W        W37069  18.769  14.140  13.544 -0.0644 -0.1572 -0.1325
20809W        W37070  17.697  13.493   1.331  0.2047  0.0503  0.1218
20810W        W37071  11.137  14.835  13.834  0.2114  0.2394  0.1844
20811W        W37072   9.132  13.976  10.291 -0.3475  0.0543 -0.0491
20812W        W37073   4.247  12.183  12.746 -0.3281  0.0390  0.0721
20813W        W37074   6.244   0.719  14.713  0.2990 -0.3269 -0.0931
20814W        W37075   2.189  10.763   2.540  0.0451  0.1035 -0.0311
20815W        W37076  13.371  16.677   1.070 -0.0640 -0.0242 -0.1458
20816W        W37077  10.649   0.088   5.123 -0.0730 -0.1363 -0.0339
20817W        W37078   3.966   9.336  11.847 -0.0948  0.1347  0.2921
20818W        W37079  19.301   2.634   4.596  0.0060  0.0275 -0.0494
20819W        W37080  12.913   6.956  10.300 -0.0378 -0.1468  0.3224
20820W        W37081   7.981  15.864   2.656 -0.2448 -0.2980 -0.0623
20821W        W37082   2.081  10.773  14.197  0.3117 -0.5017  0.1225
20822W        W37083   3.706  16.426   2.813 -0.1075  0.0630  0.0768
20823W        W37084  14.996  16.900  12.875  0.0238  0.1964 -0.3541
20824W        W37085   1.086  19.373   2.748 -0.1064  0.0794  0.0453
20825W        W37086   4.998  15.510   1.628  0.0374  0.0096  0.2885
20826W        W37087   5.651   4.377  14.426  0.0176  0.3254 -0.0955
20827W        W37088   0.755   6.199  11.147  0.0057 -0.4276  0.0935
20828W        W37089   1.835  13.011   4.082 -0.0726 -0.1611 -0.3963
20829W        W37090  12.597  14.627   1.991  0.0503 -0.2660  0.1244
20830W        W37091   7.765   2.156  12.456  0.1826 -0.1560 -0.0536
20831W        W37092  16.001   1.967  10.985  0.1799  0.0586  0.3970
20832W        W37093   8.238   6.606  13.480  0.1144  0.3867 -0.0978
20833W        W37094   0.097   6.269   1.964 -0.1284 -0.1835 -0.0912
20834W        W37095   9.391   4.202   0.129 -0.1131  0.1227  0.0487
20835W        W37096  10.094  17.996   0.931  0.2333  0.2128 -0.0923
20836W        W37097   6.488  15.633   2.752  0.0396 -0.0141  0.3462
20837W        W37098   1.864  18.673   0.288 -0.2182 -0.0319  0.3285
20838W        W37099   4.768   4.222  11.502 -0.1880  0.1441 -0.0989
20839W        W37100  17.815   5.806   2.438  0.0170  0.3838  0.1731
20840W        W37101   3.540  16.331   5.947  0.0887  0.1342  0.1137
20841W        W37102  14.312  10.748  12.963  0.0153 -0.0720  0.0832
20842W        W37103   5.707   5.701   0.022 -0.0461 -0.3113 -0.0679
20843W        W37104   4.300   6.231  10.227  0.1466 -0.0487  0.1441
20844W        W37105  13.357   3.671   0.664  0.1172 -0.2923 -0.0958
20845W        W37106  11.679   8.700   2.775  0.0014  0.4962 -0.0536
20846W        W37107  15.223  10.379   0.798  0.3536  0.0329  0.1637
20847W        W37108  12.692  13.725  12.247  0.0910 -0.2628 -0.1013
20848W        W37109  10.636   4.873  12.568 -0.2512  0.0063  0.0459
20849W        W37110  19.028  13.569   3.611  0.0364 -0.0440  0.0894
20850W        W37111  18.072  17.124   0.237  0.0393 -0.3114 -0.0679
20851W        W37112  13.519  14.867  13.923 -0.2882 -0.0109  0.0601
20852W        W37113   3.463   1.750   0.507 -0.0985  0.0806 -0.1928
20853W        W37114  15.296  11.622   0.243  0.3537  0.1232 -0.0916
20854W        W37115  15.323   2.901   5.063 -0.3356 -0.0777 -0.3337
20855W        W37116  15.549   6.968  10.240 -0.2279 -0.2535 -0.2891
20856W        W37117  10.451  15.941   0.431  0.2895  0.1630 -0.1533
20857W        W37118   6.428   0.643  14.122  0.1950  0.2391  0.1180
20858W        W37119   0.099   7.672   2.313  0.2883  0.2050  0.0361
20859W        W37120   1.258  16.341   4.615  0.0340  0.1338  0.0731
20860W        W37121  18.353   6.372  10.864  0.1296  0.0335  0.0795
20861W        W37122   5.460   7.122   1.758 -0.0084 -0.0369  0.1058
20862W        W37123  17.396   2.677   4.916 -0.3039 -0.2088  0.2032
20863W        W37124  10.027  10.915  14.698  0.0833  0.2149  0.1026
20864W        W37125   2.895  17.679  14.550  0.5400  0.0196 -0.0099
20865W        W37126  15.724   2.036  11.887  0.0988  0.2765  0.2575
20866W        W37127   0.056   7.279  11.809 -0.4469  0.0356  0.0669
20867W        W37128   3.089  13.162  11.630 -0.0374  0.0660 -0.0463
20868W        W37129   9.635   2.930   0.984  0.4904 -0.0202  0.3104
20869W        W37130   7.130  16.417   3.478 -0.1115  0.0536 -0.2708
20870W        W37131  16.251   3.142   0.273  0.2647  0.2109 -0.1529
20871W        W37132   5.570   3.278   2.397 -0.0408 -0.0913  0.0023
20872W        W37133   2.592   8.957   1.870 -0.0172  0.0587  0.1045
20873W        W37134   2.129  12.026  12.884  0.1797 -0.0834 -0.0522
20874W        W37135  18.673  12.291  11.954 -0.1950 -0.2883 -0.0529
20875W        W37136   1.524   3.156   0.481  0.2320 -0.0499  0.3591
20876W        W37137   6.976  13.453  10.689  0.1360 -0.3942  0.0577
20877W        W37138  12.454  11.586   4.851  0.0240  0.2013  0.1502
20878W        W37139  12.893  16.589   0.775  0.6874 -0.0747 -0.0526
20879W        W37140  18.281  15.484  13.305  0.3811  0.0999  0.2013
20880W        W37141  17.154   3.493   4.711  0.1674  0.0179 -0.1008
20881W        W37142   5.118  14.574   4.089  0.3845  0.1320  0.0636
20882W        W37143   0.120  11.465  11.562  0.2475  0.3840 -0.1996
20883W        W37144   6.969  13.238   4.016  0.0319 -0.2367 -0.0306
20884W        W37145  14.394   3.506  10.558 -0.0313  0.2395  0.1421
20885W        W37146   8.015  14.436  11.669  0.0739  0.0436 -0.2476
20886W        W37147   3.576  11.448   4.501  0.2811  0.0407  0.0374
20887W        W37148  12.722   9.247  12.159  0.2239  0.0685  0.0622
20888W        W37149   6.579   1.097   2.779  0.0513 -0.2534  0.0091
20889W        W37150  19.073   1.580   0.193  0.0443  0.0901 -0.2631
20890W        W37151  10.058   8.356   3.661 -0.0174 -0.0157 -0.1902
20891W        W37152   4.092  14.740  14.696 -0.1548 -0.1176 -0.1139
20892W        W37153  16.371  14.051   4.722  0.1564 -0.0584  0.1554
20893W        W37154  10.386   3.903   3.533  0.0072 -0.3279  0.2073
20894W        W37155   0.139  18.348   5.139  0.4268 -0.0791  0.6668
20895W        W37156   8.699   7.903  13.313  0.1679 -0.0620 -0.0924
20896W        W37157   8.976  13.288  12.096 -0.4473  0.0442 -0.1948
20897W        W37158  13.619  14.212  13.692 -0.1208 -0.1741 -0.3344
20898W        W37159   2.013   8.854  13.151 -0.0582  0.2264 -0.0686
20899W        W37160  17.345   7.800   4.711  0.1699 -0.1103  0.0205
20900W        W37161  10.473  17.732  13.652  0.2602 -0.0387 -0.1206
20901W        W37162  16.325   7.441   3.976  0.1270  0.0301 -0.0856
20902W        W37163  18.666  18.636   5.539 -0.0032  0.0498 -0.0272
20903W        W37164   1.352   3.375  10.778 -0.2295 -0.0276 -0.3972
20904W        W37165   2.180   0.336  12.237  0.1648  0.2652 -0.0711
20905W        W37166  15.381   8.889  12.758  0.3407  0.2908 -0.2609
20906W        W37167  17.674   1.588   1.367  0.1780 -0.3924  0.0298
20907W        W37168   0.050   8.656  10.364 -0.1241  0.2600  0.1212
20908W        W37169   0.362   1.283   5.249  0.0930 -0.0213 -0.0860
20909W        W37170  19.013   8.926   3.932  0.0869  0.2419  0.0761
20910W        W37171   3.108  10.282  12.017 -0.2757  0.1201  0.0382
20911W        W37172   6.316  13.415  10.426 -0.5490 -0.2321 -0.0290
20912W        W37173   8.682   2.291   4.628  0.0221 -0.1815  0.0018
20913W        W37174  13.180   5.086  13.108  0.1650 -0.0005 -0.0720
20914W        W37175  17.633  15.566  12.340 -0.2820 -0.2762  0.2648
20915W        W37176   7.152  15.860  11.613  0.3590 -0.1146  0.2933
20916W        W37177   9.187   3.021  12.001 -0.1464 -0.0505 -0.0008
20917W        W37178  17.199   9.178  12.949  0.0631  0.1432  0.0275
20918W        W37179   2.242  11.499  11.179 -0.0998 -0.1966  0.1904
20919W        W37180  16.254   2.642  11.581  0.0795  0.2938 -0.0393
20920W        W37181  10.052   4.854   2.168  0.2488  0.2007  0.0080
20921W        W37182   2.414  13.332  14.192  0.0495 -0.0322  0.2529
20922W        W37183   3.229   1.451  12.161 -0.1299 -0.0276 -0.1126
20923W        W37184   0.495  14.191  13.680 -0.0496 -0.2580 -0.0351
20924W        W37185   0.008  16.209   0.109 -0.2862  0.1446  0.3361
20925W        W37186  15.117  12.078  14.318 -0.0925 -0.3073 -0.1210
20926W        W37187  16.962  11.640   3.278  0.0233  0.1259 -0.2149
20927W        W37188  13.541  12.426  13.357  0.0621 -0.1031 -0.1001
20928W        W37189   7.788   4.064  10.837  0.1956  0.0430  0.0049
20929W        W37190   9.667  11.085   1.453  0.0823 -0.2072  0.1297
20930W        W37191   8.585  11.554  13.817 -0.2352 -0.1099 -0.1451
20931W        W37192  12.152   9.660   4.371 -0.1482  0.0048 -0.1571
20932W        W37193  10.455   5.053   3.862 -0.3263  0.0345  0.0896
20933W        W37194  15.174  17.725   3.976 -0.0381 -0.0766  0.2498
20934W        W37195  15.644  11.479   1.802 -0.0955 -0.0755 -0.1912
20935W        W37196   3.294   8.709   4.252 -0.1285 -0.2046  0.3305
20936W        W37197  16.335   0.285  14.250 -0.0325 -0.0846  0.2563
20937W        W37198  18.799   3.942   9.318 -0.1142 -0.4093  0.1297
20938W        W37199   8.954   8.503   1.655  0.1488 -0.1509  0.2982
20939W        W37200  17.939   8.884   3.831  0.1228 -0.1899 -0.0697
20940W        W37201   6.738   5.258   1.761  0.2966 -0.3288  0.1175
20941W        W37202  13.680  17.866  13.557 -0.0096 -0.0708  0.4534
20942W        W37203   1.803   7.400   0.198 -0.2973 -0.2307 -0.0331
20943W        W37204  14.026   4.976   2.393  0.0339 -0.0885  0.1848
20944W        W37205  15.415   2.962   1.269  0.2121  0.0341 -0.1582
20945W        W37206  17.523   3.923   2.161 -0.0527  0.2366  0.2479
20946W        W37207  14.441   4.979   1.543 -0.1447  0.0672 -0.0453
20947W        W37208  15.477   9.512   2.251  0.1245 -0.0857  0.0823
20948W        W37209  12.556   4.643  10.889  0.1406 -0.0355 -0.0349
20949W        W37210  19.398  11.597   2.549  0.4700  0.4334  0.1741
20950W        W37211  12.823  15.369   2.209  0.1783  0.0636  0.1092
20951W        W37212   5.748   8.413  13.515 -0.0688  0.2594 -0.1953
20952W        W37213  14.319   5.833   3.880 -0.0150  0.2905  0.0375
20953W        W37214  17.277  13.154  13.000 -0.0161  0.2766 -0.3542
20954W        W37215  14.484  16.147  12.501 -0.0071  0.0122  0.1794
20955W        W37216  10.186   8.670  13.060  0.3468  0.1422 -0.1000
20956W        W37217  15.794  12.428   5.573 -0.1079  0.0169 -0.0634
20957W        W37218  15.484   0.229   4.040  0.4260  0.0062 -0.1005
20958W        W37219   6.591   9.790  12.024 -0.0477  0.0162 -0.0669
20959W        W37220   1.779  12.777   9.958 -0.0895  0.1162  0.0559
20960W        W37221  14.368   8.560   3.545  0.3352 -0.1612 -0.0236
20961W        W37222   1.432  16.475   0.220 -0.4432  0.2873  0.1245
20962W        W37223  15.269  15.970   3.589  0.1513 -0.1050 -0.1440
20963W        W37224   1.269   6.235   5.209  0.3265  0.1010 -0.0684
20964W        W37225  14.085  19.139   4.525 -0.1760  0.1486  0.0331
20965W        W37226  18.809   2.354   1.484 -0.0346  0.0019 -0.2615
20966W        W37227  13.255  14.122  12.711 -0.1659 -0.1526 -0.0685
20967W        W37228  17.526   4.563   2.617  0.1234 -0.1495  0.3793
20968W        W37229  15.159  18.977   4.690 -0.1192 -0.0380 -0.1588
20969W        W37230   0.173  19.457   3.746  0.3319 -0.1184 -0.0137
20970W        W37231   5.709   5.264   0.192  0.0854 -0.0184 -0.0346
20971W        W37232  11.965  17.455  14.081  0.0010  0.3176  0.1629
20972W        W37233  15.136   1.398   5.727  0.1830 -0.2750 -0.1955
20973W        W37234   1.530   4.998  11.998 -0.2962 -0.1036  0.1958
20974W        W37235   4.139   0.554   2.941  0.2066  0.2980  0.0504
20975W        W37236   4.519   2.771   1.955 -0.1433 -0.0048  0.0353
20976W        W37237  11.014   3.801   1.768  0.0382  0.0579 -0.0288
20977W        W37238  10.322   0.792   3.003 -0.0450 -0.2525 -0.0435
20978W        W37239  18.454  14.988  14.133 -0.2217 -0.1864  0.0904
20979W        W37240  16.758   0.463   3.284 -0.3316 -0.3184 -0.0129
20980W        W37241  10.312   5.477   0.891 -0.1063  0.1280 -0.1290
20981W        W37242  15.814   1.146  13.395  0.2791  0.3917  0.2347
20982W        W37243  15.323   5.293   3.372 -0.0762 -0.0680 -0.2208
20983W        W37244   4.967  13.594   2.888 -0.0323 -0.0366 -0.1051
20984W        W37245   5.784  15.274  14.761 -0.2375 -0.0273 -0.3779
20985W        W37246   3.588   0.675   3.650 -0.0060 -0.1046 -0.2173
20986W        W37247  14.103  17.571   4.719 -0.2763 -0.1245 -0.0993
20987W        W37248   8.401  13.911   4.663 -0.0049  0.0367  0.0478
20988W        W37249  14.995   4.817  12.630 -0.1176  0.2268  0.0171
20989W        W37250  17.199  13.362   0.028  0.0800  0.0320 -0.1931
20990W        W37251   9.444  17.278  12.081 -0.4805 -0.2439 -0.0613
20991W        W37252   7.434   8.246   0.613 -0.0964  0.1652  0.4796
20992W        W37253   2.785  15.586   0.708 -0.1928  0.0068 -0.0817
20993W        W37254   7.819   8.294   2.579 -0.2472  0.0016 -0.1495
20994W        W37255   3.218   7.988  13.056  0.0682  0.2301 -0.0828
20995W        W37256   5.378   4.100   9.903 -0.1588  0.1906  0.0012
20996W        W37257  18.941  16.283   2.573 -0.0719 -0.1127 -0.0242
20997W        W37258   8.821  15.569  11.314  0.2319 -0.2058 -0.0065
20998W        W37259   3.429   8.616   0.924 -0.0462  0.5742 -0.2467
20999W        W37260   8.671   8.215   0.707 -0.1488 -0.0116  0.0217
21000W        W37261   0.958  15.891   2.960  0.2146  0.1078  0.2154
21001W        W37262  14.323   9.079   1.348  0.0712  0.0465  0.0357
21002W        W37263  10.823   6.303  12.644 -0.1748 -0.0859  0.0218
21003W        W37264  18.555  14.018   0.237 -0.0043 -0.1385  0.2015
21004W        W37265   5.219   3.570   9.632  0.1557 -0.3619  0.3345
21005W        W37266   5.780  17.338  11.075  0.2217  0.0568 -0.3458
21006W        W37267   5.427  10.663   4.315  0.0200  0.0041 -0.0597
21007W        W37268  15.291   8.708   0.691  0.2781  0.1209  0.1119
21008W        W37269   4.153   9.793  14.779  0.1836  0.3434 -0.1527
21009W        W37270   5.748  10.940   3.602  0.1153  0.1303  0.0263
21010W        W37271  14.182   8.469   2.235 -0.0708 -0.1256 -0.0937
21011W        W37272   4.179   5.642  11.464  0.1157 -0.2117  0.1258
21012W        W37273   4.676  12.793   2.882  0.0688  0.1515 -0.2130
21013W        W37274  13.358  17.290   3.925 -0.3335 -0.2026  0.1349
21014W        W37275   6.477  16.838   0.133  0.2623 -0.1200  0.0948
21015W        W37276   6.624   5.627   0.333  0.0695  0.0964  0.1506
21016W        W37277  17.331   6.507   4.065  0.0503 -0.2211  0.3583
21017W        W37278  18.285   1.352   0.860 -0.0785  0.1029 -0.0975
21018W        W37279  10.304  12.150   0.060  0.0453  0.4199  0.0794
21019W        W37280   7.145   8.759  14.040  0.1133  0.2283 -0.0236
21020W        W37281   5.375   4.408   2.341  0.0625  0.1169  0.1126
21021W        W37282  17.478  17.538   0.225  0.1682  0.1377  0.0207
21022W        W37283   1.851  16.157  12.556  0.1338 -0.3608 -0.1163
21023W        W37284  16.723  17.397  14.220 -0.0908 -0.0547  0.0686
21024W        W37285   7.358   9.552  14.298 -0.0449  0.1528  0.0725
21025W        W37286  15.724   4.680  13.296  0.1448 -0.1523  0.1001
21026W        W37287   4.167   3.876   0.780  0.1160 -0.0356 -0.3680
21027W        W37288  16.529  13.700  12.570 -0.2683 -0.2526 -0.5445
21028W        W37289   4.677   7.950   4.476 -0.2934  0.3662 -0.0414
21029W        W37290  17.751   0.610  13.241 -0.3844 -0.1979  0.2020
21030W        W37291  14.192   3.216  11.512  0.1618  0.0574 -0.0020
21031W        W37292  16.604  14.001  11.249 -0.1515  0.0023  0.2494
21032W        W37293   1.241   6.069   3.592 -0.0505  0.2055  0.0435
21033W        W37294   9.996   2.542  12.365 -0.3538  0.1232 -0.1126
21034W        W37295  16.849  14.511  12.091 -0.2781 -0.1520  0.1145
21035W        W37296  13.285  17.884  12.081 -0.2729 -0.2805  0.0623
21036W        W37297  13.648  17.441  11.928  0.3869  0.2530  0.1128
21037W        W37298   5.532  18.105  14.666 -0.0534  0.0139 -0.0067
21038W        W37299   4.399  14.728   5.263 -0.3020  0.0364  0.4501
21039W        W37300  13.562  19.321   5.257 -0.1911 -0.1840  0.1626
21040W        W37301  12.993  19.280  14.761  0.1688  0.2131 -0.0760
21041W        W37302   7.129  18.095   2.217 -0.0483  0.1912  0.0479
21042W        W37303   1.288   1.172   1.466 -0.1676 -0.1345  0.0560
21043W        W37304  12.082  12.614  12.792  0.1808  0.1058  0.1625
21044W        W37305   8.567   9.092  14.644  0.0248 -0.1521  0.0584
21045W        W37306   2.459   0.014   3.217 -0.1431 -0.2616  0.0627
21046W        W37307   9.396  11.138  10.426 -0.2033  0.0390  0.1466
21047W        W37308  10.953  11.220   2.600 -0.3582 -0.1861  0.0110
21048W        W37309   7.717   0.274  12.964 -0.0037  0.0231 -0.0912
21049W        W37310  16.498  15.521  14.245  0.1446 -0.0918 -0.3506
21050W        W37311  14.840   2.358   2.287 -0.2145  0.2359  0.1090
21051W        W37312   2.694   4.181   2.109 -0.1568  0.0381 -0.0784
21052W        W37313   0.824   5.942   0.199 -0.4589 -0.5708  0.2738
21053W        W37314  16.205  17.134  11.072 -0.1450  0.1693 -0.1489
21054W        W37315   5.437  18.197   3.101  0.2562 -0.0821  0.1145
21055W        W37316   2.820   2.109  14.586  0.3977 -0.1940 -0.4142
21056W        W37317   9.711  14.472  12.746 -0.1020 -0.3218 -0.1832
21057W        W37318  10.841   3.143   2.572 -0.0771 -0.0163 -0.1190
21058W        W37319   5.509  18.749   1.480 -0.2796  0.1116 -0.0872
21059W        W37320   2.482   1.274   0.241  0.1398 -0.1089  0.2233
21060W        W37321   0.403  11.792  11.108  0.2548  0.0407 -0.0559
21061W        W37322  10.775   0.910   4.045  0.1995 -0.2458  0.0533
21062W        W37323   3.048  13.222   0.764  0.1544 -0.0616  0.1979
21063W        W37324   6.458   3.124   0.539 -0.1666  0.3081  0.0335
21064W        W37325  12.704   0.856   4.815  0.3503 -0.0666  0.0893
21065W        W37326   7.598   2.507   1.471 -0.3238 -0.2777  0.0048
21066W        W37327   1.265   1.412  11.366  0.2370  0.0866  0.0774
21067W        W37328   5.469   1.898   2.313 -0.2547  0.0966  0.2246
21068W        W37329   7.731   4.696   0.276 -0.4036  0.0259 -0.0416
21069W        W37330   4.201   2.538   0.255 -0.0634  0.3117  0.1121
21070W        W37331  18.161   2.561   1.556 -0.5249 -0.3643  0.5382
21071W        W37332  13.660   1.717  11.603 -0.1845  0.1665  0.1774
21072W        W37333  11.553  18.261   2.943 -0.0572  0.4182 -0.1063
21073W        W37334   1.474  17.005   4.237  0.0967  0.1152 -0.1055
21074W        W37335  10.327   8.414  10.933 -0.2586 -0.3226  0.0280
21075W        W37336   6.358  17.549   3.865  0.1936  0.0233 -0.0876
21076W        W37337   3.523   3.587  14.315  0.3073  0.3357  0.0775
21077W        W37338  12.084  13.078   4.899  0.1651 -0.1738 -0.0762
21078W        W37339  15.022   9.644  11.204  0.0205  0.0720  0.1099
21079W        W37340  18.273  14.336   3.661 -0.2487  0.1840 -0.1739
21080W        W37341  16.992  14.805  12.553  0.1934 -0.2728 -0.0837
21081W        W37342   0.782   3.640   1.581  0.4981 -0.2801  0.0774
21082W        W37343   0.551  18.722  11.543  0.1770 -0.1406  0.4438
21083W        W37344  13.403  18.585  14.653  0.4006  0.0482 -0.0171
21084W        W37345  14.259  15.681  13.513  0.1572  0.2691  0.2254
21085W        W37346   3.459  13.958   4.992 -0.3346  0.3860 -0.0002
21086W        W37347   4.274   7.473   4.163  0.1539  0.3160  0.2184
21087W        W37348   8.596  16.739   0.517  0.0066 -0.0318  0.4915
21088W        W37349   6.660   3.122   3.261  0.3648  0.1316 -0.1381
21089W        W37350  19.308  16.280   0.981 -0.0371 -0.1581  0.0272
21090W        W37351  15.161  15.445  13.071  0.1049 -0.1916  0.0903
21091W        W37352  18.414  18.053  12.016 -0.0815  0.0238  0.3123
21092W        W37353   0.822   1.384  11.847  0.1460 -0.0853 -0.1177
21093W        W37354   3.059  12.024   4.793 -0.0315 -0.2201 -0.1974
21094W        W37355   1.981  17.677   0.114 -0.1976 -0.0934 -0.0534
21095W        W37356  17.371   6.887  10.613  0.0421  0.1653  0.0774
21096W        W37357  14.031   7.746   1.631  0.2481 -0.0457  0.1157
21097W        W37358  10.773  12.289   1.261  0.1378  0.2190 -0.0067
21098W        W37359  17.151   3.912  12.109  0.1710  0.1437 -0.0475
21099W        W37360  11.298   3.038  12.769  0.3641  0.2249 -0.0308
21100W        W37361  12.087  10.161   4.469 -0.0996  0.1518  0.3249
21101W        W37362  12.812  19.136  11.048 -0.0215 -0.1968  0.1793
21102W        W37363  14.081  12.226   0.848  0.0198 -0.1520 -0.0675
21103W        W37364   2.998  17.967   4.470 -0.0044 -0.1464  0.0682
21104W        W37365   7.729  13.240   1.729  0.0267 -0.1628  0.3281
21105W        W37366  18.233   6.907   4.267  0.2132  0.1225 -0.0665
21106W        W37367   2.417   6.114   3.010  0.4186 -0.1697 -0.0913
21107W        W37368  12.921  16.553  11.556 -0.0261  0.2262  0.4212
21108W        W37369  13.904   0.410  12.535  0.1835 -0.0865 -0.1396
21109W        W37370  10.335   4.917  12.083 -0.2576  0.0095 -0.0427
21110W        W37371   8.917   9.722  11.811  0.0351  0.0947  0.0824
21111W        W37372  15.454   0.068  10.815  0.0120  0.0818  0.1581
21112W        W37373  17.992   1.499   2.704 -0.1622  0.3043 -0.0891
21113W        W37374   1.862   9.201  13.482 -0.0053  0.1004 -0.2129
21114W        W37375  18.156   5.456   2.216  0.1705 -0.0448 -0.1394
21115W        W37376  15.108  17.823  11.112 -0.3399  0.0142  0.1558
21116W        W37377   9.453   9.550  11.080  0.1429  0.1064  0.1321
21117W        W37378   1.637   2.727  12.644 -0.2009  0.0971 -0.0355
21118W        W37379   0.890   8.160   1.297 -0.2633 -0.2858 -0.1599
21119W        W37380  16.021   1.459  10.865 -0.1258 -0.3300  0.0341
21120W        W37381   3.313   3.630  11.427  0.1031 -0.1746  0.1151
21121W        W37382   9.671  17.708   0.966 -0.1034  0.0882 -0.0517
21122W        W37383   6.910   3.260   0.312 -0.0783 -0.2023  0.1091
21123W        W37384   4.697   5.726  11.426  0.1844 -0.0594 -0.0311
21124W        W37385   4.179  12.503   4.365 -0.0395  0.1449  0.2703
21125W        W37386   9.697   4.894   0.750 -0.0024  0.2134 -0.1807
21126W        W37387  15.884   4.435  13.862 -0.3066  0.2672  0.1618
21127W        W37388   1.821   3.816   2.569 -0.0696 -0.0204 -0.0482
21128W        W37389  11.719   0.390  13.812  0.0365 -0.0745 -0.1545
21129W        W37390  17.127   0.196  13.974  0.0016 -0.1806 -0.0062
21130W        W37391  18.862  14.348  14.657  0.0625  0.2848 -0.0435
21131W        W37392  18.378  17.464   2.575  0.3567 -0.0776 -0.3042
21132W        W37393  11.871   0.426  11.562 -0.0406  0.3169 -0.0600
21133W        W37394   1.246   8.238   2.893 -0.0967  0.0867  0.0570
21134W        W37395   0.770   1.348   1.828 -0.1202  0.3325  0.1669
21135W        W37396  16.641   3.880  14.060 -0.1432  0.0398  0.1408
21136W        W37397  19.293  15.207   3.049  0.1229 -0.0508  0.1224
21137W        W37398  18.515   0.204   0.463 -0.5936  0.1133 -0.0358
21138W        W37399  13.039  11.861  13.846 -0.2872  0.1355 -0.0116
21139W        W37400   2.092  10.429   4.203 -0.2105 -0.0531 -0.0306
21140W        W37401  11.389   8.670  12.405  0.2178 -0.0487 -0.0477
21141W        W37402   2.665  14.074  14.457 -0.2767 -0.2603 -0.0191
21142W        W37403  14.901  14.429   0.279  0.3185 -0.1347 -0.0575
21143W        W37404  10.080   1.992  11.699 -0.0701 -0.3546 -0.2555
21144W        W37405   1.003  18.327  14.650  0.0313  0.0807  0.0538
21145W        W37406   8.719   4.035   1.796 -0.1269  0.1840 -0.1178
21146W        W37407  15.943   7.131   3.147 -0.0322  0.2445 -0.0327
21147W        W37408   7.787   5.548   2.993  0.1074 -0.3295  0.1275
21148W        W37409   8.098  17.510   3.409 -0.1897 -0.0060  0.0375
21149W        W37410   6.783   6.757  12.006  0.1784  0.0653 -0.0310
21150W        W37411   2.578  12.611  13.620 -0.1858  0.0184  0.2934
21151W        W37412  10.224   3.132  10.975 -0.0773 -0.4741 -0.0842
21152W        W37413   6.630  14.415  10.047  0.1597  0.0483 -0.2167
21153W        W37414   6.677  19.288  11.391  0.0617 -0.0073  0.2618
21154W        W37415  13.646   6.776  14.313 -0.1375  0.0779  0.2386
21155W        W37416  10.724   4.628  14.763 -0.2362 -0.0132 -0.2436
21156W        W37417  10.795   7.951   4.338  0.5263 -0.0726 -0.0924
21157W        W37418   1.009   1.067   0.260  0.2411  0.0756 -0.1350
21158W        W37419   7.398  11.671  10.349  0.2136  0.3043 -0.0013
21159W        W37420   6.977   2.132   3.323 -0.3474 -0.2069  0.0156
21160W        W37421   7.217   6.920  12.484  0.0962 -0.0364  0.1413
21161W        W37422   3.744   1.722  10.260 -0.1149 -0.3510 -0.2179
21162W        W37423   0.776  16.764   1.361  0.1780 -0.1982 -0.1633
21163W        W37424   7.460  12.042   1.150  0.0940  0.0102 -0.3394
21164W        W37425  12.871  18.292  13.330 -0.2436  0.1428 -0.2860
21165W        W37426   6.317   6.812   3.872 -0.0415 -0.3271 -0.1841
21166W        W37427  14.247   9.454   2.178 -0.1616  0.0518 -0.1669
21167W        W37428   9.217   3.853   1.238 -0.0230 -0.3093 -0.1084
21168W        W37429  13.137  15.489   0.296 -0.7728 -0.2838  0.0316
21169W        W37430   4.468  17.539   3.992 -0.2741  0.3023  0.0804
21170W        W37431  17.383   4.979   4.614 -0.3208  0.4707 -0.0134
21171W        W37432  17.600   5.394   9.914  0.3282  0.0276 -0.0552
21172W        W37433   1.987   1.889   2.787  0.2601  0.0605  0.1914
21173W        W37434   9.687   9.944   9.829 -0.1838  0.0451 -0.0726
21174W        W37435  12.765  17.917   0.307  0.1630 -0.1113 -0.1354
21175W        W37436  19.317   2.385   0.072  0.0237 -0.1279  0.0855
21176W        W37437   4.499  16.838   5.746  0.0282  0.0103  0.3234
21177W        W37438  13.985   4.403   0.039  0.3108  0.3409  0.4864
21178W        W37439   6.175  18.400   1.950 -0.0919  0.0718 -0.2184
21179W        W37440  12.253  13.954  11.497  0.1636  0.0656  0.2184
21180W        W37441   6.751   6.673  10.348 -0.0013 -0.1530  0.0435
21181W        W37442  18.368   4.753   9.882  0.1561  0.0672  0.0835
21182W        W37443  14.531   5.788  11.808  0.5244 -0.0112  0.0642
21183W        W37444  12.626   3.081   1.273 -0.5007  0.0631 -0.0868
21184W        W37445  10.107   6.710   3.250  0.1318 -0.0422  0.3075
21185W        W37446  18.433   0.845   3.070 -0.4544 -0.2356  0.1572
21186W        W37447   4.481   8.908   1.212  0.2219 -0.0877 -0.1748
21187W        W37448  15.094   4.021   1.715  0.4637  0.1780  0.0504
21188W        W37449   8.540  10.231   0.229  0.2693 -0.1187  0.0249
21189W        W37450  10.804   9.945  10.150 -0.1109  0.2162 -0.1401
21190W        W37451   3.646   2.633  13.849 -0.1402  0.0216  0.2584
21191W        W37452  18.294   3.784  12.418  0.0243 -0.0905  0.0981
21192W        W37453  10.007   8.441  12.615 -0.0027 -0.0036  0.0515
21193W        W37454  17.742   3.188  10.207 -0.0240  0.1213 -0.0059
21194W        W37455   5.926  13.974   2.877 -0.1007 -0.2091  0.0279
21195W        W37456  18.288   2.235   1.223 -0.1437  0.0794 -0.0375
21196W        W37457  10.357  11.459   2.774 -0.0938  0.3713 -0.0811
21197W        W37458  15.308  13.076  13.125  0.2526  0.0556 -0.3596
21198W        W37459  10.619  10.822   1.786  0.2037 -0.4011 -0.1939
21199W        W37460  10.565  12.501   4.021 -0.0195  0.3787  0.2853
21200W        W37461  19.298  12.452  13.691 -0.1229 -0.1809 -0.2178
21201W        W37462  11.696   1.106  12.984  0.0784  0.2062  0.0476
21202W        W37463  18.864  16.254  12.566 -0.1612  0.2688  0.0108
21203W        W37464  11.815   3.480  14.469 -0.0531  0.0565  0.1053
21204W        W37465  16.939  15.192   0.873  0.2463 -0.0010 -0.1143
21205W        W37466  11.293   9.532   0.652 -0.0105  0.0863  0.0007
21206W        W37467  14.049  16.137  13.389 -0.0262  0.2173  0.1299
21207W        W37468  13.087   1.403   1.622 -0.0271  0.3334 -0.1858
21208W        W37469   0.834   4.341   0.766 -0.3170 -0.0974 -0.1390
21209W        W37470  15.517  19.214  13.998 -0.0485  0.2894  0.0350
21210W        W37471   9.490  12.611   2.906  0.1735 -0.2620 -0.0514
21211W        W37472   4.020   0.840   1.105  0.2092  0.1527  0.0892
21212W        W37473   6.399   1.529   3.492  0.0283 -0.2231 -0.1933
21213W        W37474   3.191  13.333  14.725  0.0118 -0.0896 -0.3076
21214W        W37475   0.107  12.806  13.947  0.2813  0.3356  0.0961
21215W        W37476  19.328   6.564  14.087  0.1384 -0.1037 -0.0133
21216W        W37477   9.325   8.018  14.050  0.0507 -0.0805  0.0901
21217W        W37478   3.432  13.957   1.338 -0.2390  0.3749 -0.3003
21218W        W37479  12.881   3.767  13.413 -0.0878 -0.1018 -0.0098
21219W        W37480   9.631   5.096   3.434 -0.0110  0.2212 -0.2500
21220W        W37481  17.898   6.875   2.174  0.2260 -0.0819 -0.0645
21221W        W37482  19.305   1.111  13.955  0.4023  0.1472  0.1293
21222W        W37483  17.694  16.633   1.687 -0.0007  0.1549 -0.1687
21223W        W37484   7.940  13.757  13.335 -0.3978  0.0659 -0.2722
21224W        W37485  14.638   9.007   3.220 -0.1949  0.0276 -0.1736
21225W        W37486   9.872   1.093  11.892 -0.0424 -0.0899  0.0620
21226W        W37487  13.999  16.348  14.763  0.2839 -0.0391 -0.0506
21227W        W37488   5.013  15.234  11.876  0.3247 -0.3787  0.1133
21228W        W37489   2.858   8.741   2.246 -0.0220  0.0217  0.0462
21229W        W37490  12.526   0.164   5.030 -0.0865 -0.0915 -0.1516
21230W        W37491  13.809  14.438   5.581  0.0088  0.1868  0.2251
21231W        W37492   3.117   5.724  14.452 -0.2424  0.0014  0.1012
21232W        W37493   1.576  18.435  13.993 -0.2559  0.0952 -0.1740
21233W        W37494  14.204   7.731   9.457 -0.0480  0.0648 -0.0751
21234W        W37495   1.571  19.083   0.236  0.0496  0.0102 -0.2052
21235W        W37496   1.363  15.538   1.200 -0.3262  0.0378 -0.1333
21236W        W37497   7.135  12.822  11.132 -0.0252 -0.2586 -0.1535
21237W        W37498   3.196   2.962  13.805  0.0751  0.2075  0.3234
21238W        W37499   8.141  15.818  13.025  0.1046  0.0919  0.1816
21239W        W37500  17.475   3.229  10.963 -0.1151  0.5372 -0.0764
21240W        W37501   2.821   3.625   9.482  0.2147  0.2256  0.0766
21241W        W37502   6.811   0.443   0.241 -0.4382  0.2220  0.0046
21242W        W37503   1.856  18.542  11.557  0.0274  0.2527  0.0902
21243W        W37504  11.289   2.653  10.456  0.1776 -0.0350 -0.2252
21244W        W37505  10.964   9.330  10.881  0.2512  0.1080  0.1596
21245W        W37506   4.950  14.227  14.654  0.1357 -0.1750 -0.2185
21246W        W37507  14.828  14.508   2.628 -0.0062  0.3348 -0.0934
21247W        W37508  15.750  13.336  12.999 -0.3724  0.2390 -0.1833
21248W        W37509   4.086   7.185  10.495 -0.0895  0.0580 -0.1251
21249W        W37510  18.983  17.750  12.600 -0.0965 -0.2526  0.0268
21250W        W37511  14.423  14.240   2.401  0.1996  0.0794  0.4585
21251W        W37512   4.404   2.595  10.769  0.2531  0.0338  0.2799
21252W        W37513   5.705   5.509   0.601  0.0023 -0.1438 -0.2021
21253W        W37514   8.257   5.637   1.657  0.0717 -0.0459  0.0262
21254W        W37515  13.261   0.472   0.244  0.1007  0.0315  0.0336
21255W        W37516  16.474  11.404   0.975 -0.6170 -0.4161  0.2090
21256W        W37517  16.901   1.298   2.600 -0.1909  0.0118 -0.1891
21257W        W37518   9.370   7.826  10.696  0.2169  0.0354  0.0622
21258W        W37519   4.276  16.657   3.415  0.0259 -0.1000 -0.0328
21259W        W37520   4.684  18.585  10.376 -0.0529 -0.1934  0.2369
21260W        W37521  13.891   7.932   2.110  0.1856  0.1795 -0.1512
21261W        W37522   9.021  17.070  11.868  0.0053 -0.0669 -0.0097
21262W        W37523  12.589  10.874   4.271 -0.1045 -0.2492  0.1073
21263W        W37524  18.464   4.723  13.688 -0.0396 -0.0311 -0.1925
21264W        W37525   1.850  18.081  14.697 -0.0878 -0.2558 -0.2056
21265W        W37526  17.270  16.073  14.705 -0.1142 -0.2516  0.1014
21266W        W37527   5.791   5.544   2.739 -0.1177 -0.1858 -0.2793
21267W        W37528  13.655  13.462  14.057 -0.1638  0.0078  0.0271
21268W        W37529  18.876  16.339  13.949  0.0488 -0.1743  0.2247
21269W        W37530  11.303  17.461  12.453  0.1335  0.1050  0.3440
21270W        W37531  17.378   0.135  11.962  0.2375 -0.1274 -0.0427
21271W        W37532   2.139  17.747  11.182 -0.0882 -0.0023  0.0258
21272W        W37533  17.210  18.204  11.217 -0.0651 -0.3212  0.1789
21273W        W37534   6.829  18.465   9.863  0.3812 -0.3692 -0.1890
21274W        W37535   4.203   7.476   9.921  0.0513 -0.1199  0.0361
21275W        W37536   1.357  16.124  14.591 -0.0077 -0.1409  0.1607
21276W        W37537  11.536   5.797   3.246 -0.0227  0.6128 -0.0119
21277W        W37538  19.351   6.513  13.083  0.2368  0.0361 -0.3635
21278W        W37539  16.902  11.565   1.829  0.1274 -0.0341 -0.0586
21279W        W37540  10.425  12.019   2.687  0.1926  0.1453  0.1512
21280W        W37541  14.700  12.808  14.740 -0.0327 -0.0521 -0.0656
21281W        W37542   8.500   4.771   9.868 -0.0613 -0.2356 -0.1250
21282W        W37543   9.869   5.108  12.092 -0.0492  0.1867 -0.1464
21283W        W37544  12.357   5.090   3.309  0.4123 -0.2114  0.1492
21284W        W37545   7.370   8.085   9.748 -0.1440 -0.2466 -0.1849
21285W        W37546  18.621   8.322   4.417 -0.0502  0.1378 -0.1190
21286W        W37547  13.577   4.852  13.571 -0.0775 -0.0285 -0.0356
21287W        W37548  17.650  15.065   1.415  0.1429 -0.2396 -0.1345
21288W        W37549   0.521  10.620   0.462  0.2136  0.0612 -0.1342
21289W        W37550  10.726   6.310  13.903 -0.2603 -0.4118  0.1740
21290W        W37551   3.628   5.372  14.621 -0.5310  0.0180  0.2898
21291W        W37552   0.997   5.570   3.656  0.0744  0.2141 -0.2378
21292W        W37553  10.569   0.722   3.577 -0.0447  0.1339 -0.1511
21293W        W37554  11.264  12.122   0.296  0.2887 -0.0578 -0.3632
21294W        W37555   6.246   5.988   9.041 -0.1171  0.1373 -0.2827
21295W        W37556   9.066   9.098  12.794 -0.1756  0.0398  0.1667
21296W        W37557   8.776   8.620  12.793 -0.0253  0.0482  0.4605
21297W        W37558  15.635  19.252  11.659  0.2693 -0.0789  0.1232
21298W        W37559  17.693  16.623   0.799 -0.3219 -0.1158  0.1413
21299W        W37560  16.465  16.573   0.397  0.2830  0.1018 -0.1275
21300W        W37561   6.712  15.999   4.620 -0.2832 -0.2920 -0.1025
21301W        W37562  14.437  10.936   5.667  0.0236  0.1316 -0.0729
21302W        W37563   4.793   7.586   0.348 -0.1012 -0.0609 -0.0833
21303W        W37564  14.046   9.412   4.211  0.2460  0.2438  0.1475
21304W        W37565   4.261  12.442  13.178  0.2806 -0.0013 -0.0610
21305W        W37566   5.994  11.468  11.324 -0.2029 -0.3535 -0.1593
21306W        W37567  10.953   8.391  12.094  0.0250 -0.0668  0.3345
21307W        W37568  11.087  17.333   1.124  0.0707  0.1097 -0.2091
21308W        W37569   5.652  14.845   3.161  0.2477  0.4982  0.2320
21309W        W37570  16.973   5.901   2.870 -0.2667  0.1544  0.0982
21310W        W37571   8.393   1.252  11.860  0.2128  0.2734  0.2066
21311W        W37572   0.126  15.756   4.314 -0.1032 -0.1872  0.0658
21312W        W37573   1.905   4.758  10.078 -0.6142  0.3394 -0.0099
21313W        W37574   3.598   6.565  13.330 -0.0253  0.0330  0.0906
21314W        W37575  14.611  11.570  12.807  0.2452  0.1164 -0.0652
21315W        W37576   7.185   8.287   3.554 -0.0117  0.0194 -0.0672
21316W        W37577  14.348  14.128   1.694 -0.0890 -0.0371 -0.0927
21317W        W37578  17.119   1.652   1.193  0.2920  0.1638 -0.1899
21318W        W37579   8.663  15.480   2.342  0.2903  0.2262 -0.0057
21319W        W37580   7.567  19.245   2.213 -0.1913  0.1252  0.0032
21320W        W37581   9.383  11.483   1.655 -0.1303 -0.1693 -0.1909
21321W        W37582   0.011  11.038   4.841 -0.3816  0.1707 -0.1681
21322W        W37583   5.206  14.187  10.948  0.1731 -0.1734 -0.1389
21323W        W37584   5.367   0.135  10.779 -0.3725 -0.1449 -0.0229
21324W        W37585   9.409   4.857   1.827  0.0593  0.0758 -0.0767
21325W        W37586   1.018   6.758  13.628  0.2859  0.2666  0.3421
21326W        W37587  15.174  10.801  10.312 -0.0334  0.0509 -0.2786
21327W        W37588   7.780  17.428  11.244 -0.0879  0.0067  0.0065
21328W        W37589   3.194   4.440  10.906  0.0374 -0.3719 -0.1588
21329W        W37590  15.804  17.492  13.383  0.3792  0.1405  0.2556
21330W        W37591  17.100  14.154   1.613 -0.3985  0.0180  0.0697
21331W        W37592   9.232  13.539  10.663 -0.1143  0.0687  0.2057
21332W        W37593  16.721  11.445   2.895  0.2023  0.1126  0.0268
21333W        W37594  17.327  16.231   0.571  0.0478  0.2849  0.2278
21334W        W37595  12.766   7.634   0.705  0.2936 -0.0448  0.0939
21335W        W37596  18.115   4.293   2.842 -0.2571 -0.1956  0.2126
21336W        W37597  17.655  17.536  12.859 -0.0529 -0.1830  0.3029
21337W        W37598  18.489   7.593   2.625  0.1207  0.2537  0.0085
21338W        W37599   2.396   8.593   1.577 -0.0730  0.2941  0.2877
21339W        W37600   2.763  12.580  14.548 -0.1835  0.1640 -0.0792
21340W        W37601  11.424  13.897   5.670  0.1114 -0.0367 -0.0518
21341W        W37602   4.620  12.783   1.608 -0.0807  0.0573  0.2016
21342W        W37603   0.228   9.417   3.577  0.1895  0.1110  0.2831
21343W        W37604   0.090  17.844  11.623 -0.4758 -0.2963  0.0126
21344W        W37605   4.640  10.083   1.966  0.4066  0.0625 -0.3626
21345W        W37606   2.202   6.774  10.951  0.4937  0.5360  0.2321
21346W        W37607   1.270   9.874  12.562  0.4864  0.1021 -0.1289
21347W        W37608   7.088  14.698  11.555  0.0343 -0.0812 -0.0679
21348W        W37609   1.433   8.093   3.365 -0.0451 -0.1288 -0.1572
21349W        W37610  10.800   9.539   4.792  0.0780  0.2060 -0.1010
21350W        W37611  15.654   7.488   4.620  0.0398  0.0045  0.1097
21351W        W37612  15.323   4.175   3.103 -0.2367  0.1018 -0.1055
21352W        W37613   7.876   8.730  11.839  0.0518  0.3979 -0.1941
21353W        W37614  17.051  15.373  11.541 -0.2551 -0.0816  0.0424
21354W        W37615  12.043  10.799   4.568  0.1700  0.2066 -0.1092
21355W        W37616  15.767   2.748   5.820  0.0355 -0.2001  0.2783
21356W        W37617   6.813  18.651  12.463 -0.0863  0.2666 -0.2774
21357W        W37618   4.751   9.601  11.406  0.0517 -0.1491  0.1040
21358W        W37619   1.916  15.280   0.335  0.1868  0.2901  0.0535
21359W        W37620  17.858  12.530   4.175 -0.0057  0.0756  0.3897
21360W        W37621   3.514  18.986   4.077 -0.3733  0.1799  0.2744
21361W        W37622   9.434  16.512  11.855 -0.5428 -0.1767  0.0907
21362W        W37623   3.366  13.018   0.440 -0.2374  0.1621  0.0343
21363W        W37624  15.888  16.845  11.761  0.1397 -0.0936 -0.2283
21364W        W37625  18.812   6.265  12.271 -0.1112 -0.4133  0.1787
21365W        W37626   1.942   9.003   2.451 -0.5495  0.1209 -0.2825
21366W        W37627   5.932   1.459   2.998 -0.1871  0.1452 -0.1487
21367W        W37628  13.703   2.022   5.329 -0.1177  0.1952 -0.1307
21368W        W37629   5.543  19.346   1.795  0.0412  0.2187  0.0615
21369W        W37630  13.425   7.591  10.633 -0.1979 -0.0499 -0.1399
21370W        W37631  17.478  18.800   9.487  0.2189  0.0402  0.3411
21371W        W37632  12.565   9.044   9.668  0.2906 -0.1751 -0.0307
21372W        W37633  16.928  14.841   4.691  0.0966  0.4234 -0.1150
21373W        W37634  12.433  13.709   4.608  0.2293  0.3033 -0.5111
21374W        W37635   5.036   4.297  11.965 -0.0503  0.0865 -0.1283
21375W        W37636  10.202   2.533   0.407 -0.1061  0.1892  0.1486
21376W        W37637   6.029   4.150   9.579 -0.4370 -0.3375 -0.2396
21377W        W37638   9.815  16.732  11.035  0.0275  0.0466  0.0784
21378W        W37639  15.367   1.372  10.779  0.3575 -0.3030  0.1115
21379W        W37640   8.671   9.715  13.916 -0.0831 -0.1653 -0.1332
21380W        W37641   2.255  15.786  12.348  0.2156 -0.2507 -0.2839
21381W        W37642  15.124  18.150   4.213  0.2233  0.0402 -0.2982
21382W        W37643   4.592   3.784   4.433  0.6824 -0.0890 -0.0461
21383W        W37644   5.787   7.023  10.996 -0.2035  0.0640  0.0616
21384W        W37645  10.166   4.190   4.462  0.1522 -0.0068  0.0534
21385W        W37646   5.268   1.072  10.582 -0.0377  0.2157  0.0310
21386W        W37647  15.073   7.735   4.968 -0.1377 -0.1044 -0.4159
21387W        W37648   6.928   2.357   0.963 -0.4041  0.2293  0.1194
21388W        W37649   8.167  11.532   1.815  0.1389 -0.1811  0.1556
21389W        W37650   4.101  12.723   3.909  0.2223 -0.1190  0.1835
21390W        W37651  11.098  18.836  12.683  0.2280  0.0693  0.1816
21391W        W37652  10.484  15.324  11.495  0.3612  0.1437  0.2629
21392W        W37653   9.764   0.470   4.534  0.1401 -0.0322 -0.2033
21393W        W37654   9.599   1.322   2.856 -0.2113 -0.3186 -0.1285
21394W        W37655   8.917   9.420  12.443  0.0555 -0.0177 -0.1567
21395W        W37656  16.397   4.046  12.832 -0.4026  0.1140 -0.3365
21396W        W37657  13.926  17.800  14.235 -0.3140 -0.2095  0.1173
21397W        W37658   4.107   0.331  14.500 -0.0592 -0.0810  0.1101
21398W        W37659  18.295   3.627  11.396 -0.0711 -0.2961  0.2063
21399W        W37660  19.335   1.407   5.167 -0.1510 -0.0214  0.4528
21400W        W37661  19.457   8.807  13.251 -0.1676 -0.2201  0.2450
21401W        W37662   1.673   6.326   3.550 -0.0698  0.2752  0.1433
21402W        W37663  11.739  11.480   4.279  0.0009  0.1680  0.0699
21403W        W37664   3.196  15.710   3.057 -0.2218  0.0697  0.1921
21404W        W37665   9.054   5.561   3.313 -0.0418  0.0270  0.0651
21405W        W37666   2.504   3.812   1.148  0.3925  0.0075 -0.0078
21406W        W37667   0.934   3.745   4.406  0.0522 -0.0719  0.1371
21407W        W37668   4.657  15.175   1.356 -0.1106  0.1938 -0.2323
21408W        W37669  17.124  15.027  14.445 -0.2301  0.1884 -0.1260
21409W        W37670   6.427  16.204   2.924  0.0752 -0.2919 -0.0689
21410W        W37671   1.576  15.104  10.515  0.3362 -0.0111 -0.1264
21411W        W37672  10.138  11.409   0.105  0.0654 -0.1134  0.1125
21412W        W37673   4.130   4.862  11.095  0.3182  0.2399  0.1707
21413W        W37674  12.740   3.699  12.016  0.0080 -0.0314  0.1293
21414W        W37675  10.582   8.535  10.436  0.2189 -0.1854 -0.2143
21415W        W37676  16.781  12.738   5.417 -0.1596 -0.2351 -0.2270
21416W        W37677   3.954  17.111   3.455  0.0105  0.0831 -0.0328
21417W        W37678  12.881   1.967  13.502 -0.0503  0.1279 -0.2352
21418W        W37679  15.107  10.806   3.100  0.2185 -0.2733  0.0753
21419W        W37680  19.084  11.510   0.124  0.2039 -0.2876 -0.0670
21420W        W37681   7.849  18.629  10.885  0.0160 -0.0076 -0.1108
21421W        W37682   3.173   3.866   3.028 -0.2780  0.0554  0.1539
21422W        W37683   9.996   2.889  13.709  0.0710  0.3393 -0.1460
21423W        W37684   6.856   5.102  12.168 -0.0762  0.0530  0.2260
21424W        W37685  18.710  13.315  10.830  0.3707  0.2713  0.1789
21425W        W37686  13.381  17.836   4.038 -0.0298 -0.1745  0.2403
21426W        W37687   7.148   1.219   9.966  0.1639 -0.1006 -0.1404
21427W        W37688   8.527  15.289   2.833  0.0946 -0.1021 -0.2349
21428W        W37689   0.842   0.699  14.170  0.0650 -0.0243  0.0609
21429W        W37690  14.718   9.947   4.284 -0.0393 -0.2719  0.0594
21430W        W37691   2.799   5.214   2.843  0.0504 -0.0939 -0.2826
21431W        W37692  10.824  12.083   0.078  0.0493 -0.4177  0.1583
21432W        W37693  17.461  19.278   9.727 -0.1046 -0.2439 -0.1973
21433W        W37694   0.219   4.266  13.605 -0.1597  0.0496 -0.2250
21434W        W37695   8.429   3.478  10.939  0.1133  0.4220 -0.1432
21435W        W37696  16.976   8.787  12.641 -0.0715  0.4451 -0.2316
21436W        W37697  12.030  15.643   5.040 -0.0914  0.1139  0.1153
21437W        W37698   6.396  11.580  11.089 -0.0207 -0.1777  0.0576
21438W        W37699   2.848   8.083   0.422  0.0939  0.6240 -0.0609
21439W        W37700   0.489   5.587  13.304 -0.1204 -0.1424 -0.0071
21440W        W37701   4.533  12.046   1.218  0.1846  0.3829 -0.2660
21441W        W37702  15.907  13.141   5.555  0.1181  0.1114 -0.2088
21442W        W37703   0.037  12.000  13.749 -0.2017  0.3591  0.0833
21443W        W37704   8.015  17.499  11.711  0.2927  0.0321 -0.1125
21444W        W37705   6.703   7.308   0.977  0.0125  0.0199 -0.4630
21445W        W37706   1.431  19.389  11.815  0.0303  0.3019 -0.2279
21446W        W37707  10.209   2.556  13.931 -0.5026  0.0966 -0.2928
21447W        W37708   4.028  13.008  10.774  0.3096 -0.2610 -0.2326
21448W        W37709  18.399  17.126   5.567  0.2367 -0.2121 -0.1694
21449W        W37710  12.214   5.748  13.204  0.1475 -0.0129 -0.0121
21450W        W37711   5.723   9.311  10.755  0.2895  0.1124  0.0884
21451W        W37712   5.923  18.981   2.726  0.0516 -0.1200  0.3114
21452W        W37713   4.832   5.073   2.898 -0.1309  0.1360 -0.6536
21453W        W37714   6.370  12.915   4.713  0.0269 -0.3455  0.0184
21454W        W37715   6.353   0.457  13.360 -0.1132 -0.0644  0.1507
21455W        W37716  13.560   8.609   1.502  0.0705  0.0879 -0.2312
21456W        W37717   4.729   0.703  10.221 -0.0796  0.0815  0.0042
21457W        W37718  14.638   4.885   0.043 -0.3423  0.1221  0.3070
21458W        W37719  10.215   3.202  11.474  0.1245 -0.1207 -0.1095
21459W        W37720  16.254  16.189  13.088  0.1368 -0.4355  0.1002
21460W        W37721   3.866  19.042   2.640  0.1319  0.0821 -0.1423
21461W        W37722  18.452  12.611  13.164 -0.0161 -0.2411  0.0491
21462W        W37723   3.205  13.725   3.403 -0.0996  0.1372 -0.1502
21463W        W37724  19.424  15.885  14.486 -0.1393  0.1735  0.1164
21464W        W37725  11.986  17.768   0.054 -0.2936  0.0071  0.3273
21465W        W37726  10.115   5.936  11.970 -0.1753 -0.3016  0.0485
21466W        W37727  14.526   5.368   3.259 -0.1015  0.1482  0.0110
21467W        W37728   9.631  17.557  13.284 -0.2352 -0.2634  0.2097
21468W        W37729  18.714  12.610   2.379 -0.1605 -0.0386 -0.0955
21469W        W37730   2.070  13.908   4.707  0.1018  0.0516  0.0279
21470W        W37731  15.583   8.796   4.066 -0.1326  0.1551 -0.1433
21471W        W37732  16.078   0.195   4.128  0.2446 -0.0243  0.0454
21472W        W37733   7.421  18.825   9.133 -0.2679 -0.2320  0.2941
21473W        W37734   5.347  12.218   2.375 -0.0494 -0.0125 -0.1380
21474W        W37735  10.783  14.085   3.899  0.1208  0.0439  0.1536
21475W        W37736   2.019  10.406   2.885 -0.0840 -0.0266  0.1140
21476W        W37737  10.623   9.584   0.784  0.3261 -0.0257  0.0848
21477W        W37738  10.620  13.585   4.214  0.2691 -0.0606 -0.3279
21478W        W37739  12.455   6.058   0.864  0.0224  0.1671  0.0156
21479W        W37740   4.157   4.243   0.298  0.0374  0.0779 -0.0934
21480W        W37741  15.581   3.809   1.577  0.0377  0.0786 -0.0237
21481W        W37742  17.897  14.546  14.744  0.1814  0.0305  0.2340
21482W        W37743   6.987  18.772   2.795  0.1676 -0.1295  0.2293
21483W        W37744   9.062  12.134   0.949  0.1048 -0.0412  0.0422
21484W        W37745   3.273  14.429   4.534 -0.1373  0.0470  0.1807
21485W        W37746  15.247   3.409   3.055 -0.0118 -0.1148 -0.2306
21486W        W37747   4.338  18.318  14.687 -0.1769 -0.1185 -0.0024
21487W        W37748  11.225  17.198  10.651 -0.1305  0.0368 -0.2030
21488W        W37749   1.601  16.903   2.017  0.0737 -0.1188  0.1376
21489W        W37750   1.542   5.847  11.213 -0.3106  0.1873  0.0717
21490W        W37751   4.501  10.034  12.521 -0.0474 -0.5036 -0.4209
21491W        W37752   9.243  18.877   2.625 -0.0558  0.2921  0.0142
21492W        W37753   2.214   9.628   3.189  0.0806 -0.1952 -0.4226
21493W        W37754   6.879  18.174  14.445 -0.1318  0.2571  0.2424
21494W        W37755   1.493  11.376  13.796  0.3126  0.0539 -0.2580
21495W        W37756  10.851  13.260   2.195  0.0149  0.0540  0.0737
21496W        W37757  11.800   3.401   4.555 -0.0296  0.0391 -0.1244
21497W        W37758   2.367   8.662  14.102  0.2092 -0.3195  0.1404
21498W        W37759   6.396  17.987  12.045  0.2067  0.1364  0.3379
21499W        W37760  17.860  17.455   0.564  0.0489 -0.2528 -0.2255
21500W        W37761  18.308  18.679   4.619 -0.2371 -0.1382 -0.0199
21501W        W37762   6.320  17.477   0.436 -0.2107  0.2956 -0.0385
21502W        W37763  11.539  18.287   2.324 -0.1446  0.2219 -0.3507
21503W        W37764  14.954  17.318  11.318  0.0153 -0.0213  0.2920
21504W        W37765   9.175  18.373  11.832 -0.2214 -0.2340  0.1044
21505W        W37766  14.786   5.062  10.298  0.0028  0.5049 -0.3612
21506W        W37767  11.286  10.541   2.933 -0.2050 -0.1521 -0.1755
21507W        W37768  11.793  17.178   4.608 -0.0746 -0.0875  0.1004
21508W        W37769  14.365   0.755   1.410  0.1600 -0.2178  0.1405
21509W        W37770  16.544  12.758   1.434 -0.0731  0.0515  0.0975
21510W        W37771  14.818   5.096  12.128 -0.1522 -0.2098  0.0232
21511W        W37772   2.687  12.163   1.444 -0.2516  0.2025 -0.0678
21512W        W37773   3.399   8.856  12.999 -0.1806 -0.0578  0.0706
21513W        W37774  12.118  18.143  14.556 -0.0364 -0.0403 -0.0842
21514W        W37775   6.579   3.827   4.616 -0.3891 -0.2467 -0.3626
21515W        W37776   2.423  16.342   1.719  0.3014 -0.0958  0.2285
21516W        W37777  16.681  12.802  10.713 -0.1738  0.0660 -0.1842
21517W        W37778   9.316   3.403   1.546 -0.0745  0.3019  0.1179
21518W        W37779  15.308   9.091  13.453  0.0844 -0.2740 -0.1577
21519W        W37780   3.607   3.885   2.781  0.2648 -0.0928  0.1962
21520W        W37781  12.307   9.435   3.457 -0.0591 -0.2585 -0.1648
21521W        W37782   8.864  10.296   2.615  0.1014  0.1437  0.2331
21522W        W37783  12.786  13.981   2.993  0.3983  0.2374 -0.0455
21523W        W37784  14.423  11.397  12.065 -0.3393 -0.2458 -0.2194
21524W        W37785  17.517   2.183   5.092 -0.0418  0.0238  0.0508
21525W        W37786   4.681   6.640  12.505  0.3761 -0.0672 -0.0946
21526W        W37787   0.615  11.149   9.785 -0.1206 -0.1268  0.3353
21527W        W37788  13.142   5.337   2.923 -0.2717 -0.4597  0.1421
21528W        W37789  12.123   8.582   1.224 -0.0547 -0.4938  0.0534
21529W        W37790  18.555   1.458   1.895 -0.1589  0.2243 -0.2308
21530W        W37791   6.873  16.221   1.325 -0.0892  0.0135  0.1655
21531W        W37792   4.304   7.312   0.438  0.1159 -0.0132 -0.0697
21532W        W37793  12.310  19.396  11.115  0.0141 -0.1074 -0.2480
21533W        W37794   3.620   5.367  12.112  0.1878  0.3382 -0.1771
21534W        W37795  10.145   3.481   2.178  0.0267  0.2376  0.4340
21535W        W37796   0.635  16.262  11.920  0.2119 -0.0608  0.0364
21536W        W37797   5.955   2.368   4.369 -0.0433 -0.4443 -0.0908
21537W        W37798   9.962  16.221   2.698  0.0383 -0.0466  0.3001
21538W        W37799  17.406   0.358  13.518  0.1599 -0.1299 -0.0912
21539W        W37800  18.634  13.149  12.167 -0.1332 -0.1550  0.2271
21540W        W37801   8.311  11.359   1.302  0.3463  0.2738 -0.1591
21541W        W37802  13.070   9.506   3.949 -0.1634  0.0888  0.1206
21542W        W37803   8.420  10.554   1.667 -0.1299 -0.1529  0.1860
21543W        W37804   1.760   9.496   0.114 -0.4033 -0.1338  0.4557
21544W        W37805  16.304  13.870  11.689 -0.0948  0.0799  0.1440
21545W        W37806  18.719   4.256   3.021  0.1145 -0.2253 -0.1188
21546W        W37807   0.225  19.051   1.734 -0.0392 -0.2550 -0.3587
21547W        W37808   2.784  14.862   3.849  0.0589  0.0817  0.0301
21548W        W37809   9.541   0.673  10.379  0.0738 -0.1398  0.0090
21549W        W37810   9.537  12.685  10.347  0.0668  0.0273 -0.1393
21550W        W37811   9.057   4.249  10.839 -0.0315  0.1157 -0.3351
21551W        W37812  10.139  18.015   1.469  0.4203 -0.0531  0.1754
21552W        W37813   3.472   8.366  12.870 -0.2184 -0.2140  0.0305
21553W        W37814   9.383   5.152   3.911 -0.4060  0.1100 -0.1436
21554W        W37815   4.587   5.501   9.137 -0.1912 -0.1163  0.1289
21555W        W37816   5.947  12.100  14.292 -0.1572 -0.0512 -0.2171
21556W        W37817   8.148   3.791   9.868 -0.0450  0.0417 -0.3253
21557W        W37818  13.058   6.829   4.578 -0.1083  0.1098 -0.4890
21558W        W37819  14.534  13.830  14.250 -0.0145  0.0720 -0.0248
21559W        W37820  17.382   6.799  12.764 -0.2571 -0.1234  0.0892
21560W        W37821   0.027  11.104  14.115  0.1850  0.1858 -0.0655
21561W        W37822  13.454  12.552   4.073  0.0329 -0.0865  0.1756
21562W        W37823  10.565  18.188   1.431  0.0120 -0.0486 -0.2009
21563W        W37824  13.955   0.816   2.597  0.2158  0.0202  0.0180
21564W        W37825  11.251  10.288   3.394  0.2105  0.1676 -0.2930
21565W        W37826   1.578  13.200   4.906 -0.1404 -0.0843 -0.1505
21566W        W37827   7.110  14.916  10.660 -0.2648 -0.2879 -0.1240
21567W        W37828  19.034   7.578  13.133  0.0696  0.2049 -0.1561
21568W        W37829  12.873   1.354   2.120  0.2363 -0.2301  0.5111
21569W        W37830  15.280  18.405   5.468 -0.1066  0.2448 -0.0734
21570W        W37831   4.827  15.932  11.478 -0.2780 -0.1759 -0.1985
21571W        W37832   8.688   1.994   3.562  0.0625 -0.0989  0.0680
21572W        W37833  10.482  15.353  10.888 -0.2440  0.0053 -0.0441
21573W        W37834  15.201   4.530  13.142 -0.1344  0.3053 -0.2335
21574W        W37835   8.051  19.103  12.081 -0.0572  0.3244 -0.1671
21575W        W37836  13.283   8.723  11.336 -0.1864 -0.1139 -0.0816
21576W        W37837   2.174   0.975   5.134 -0.2831  0.0234  0.3753
21577W        W37838   6.158   8.718  10.890 -0.2540  0.0014  0.0072
21578W        W37839   8.773  17.779  13.726  0.0660 -0.1472 -0.0808
21579W        W37840  11.622   5.548   0.575  0.0640  0.0633 -0.0876
21580W        W37841  12.843  17.027   2.517  0.0029 -0.0154  0.2394
21581W        W37842  10.373  10.083  11.784 -0.3843 -0.3998  0.1214
21582W        W37843   5.851   4.784  14.228  0.2891 -0.2811  0.2124
21583W        W37844   8.908   7.818   3.130  0.3250  0.0485 -0.1537
21584W        W37845  12.880   3.932  14.657  0.2371 -0.2056 -0.1065
21585W        W37846   6.832  11.994   1.278  0.0794  0.0560  0.4352
21586W        W37847   5.582   6.556  13.178 -0.0105 -0.0815 -0.1858
21587W        W37848   3.884   3.844  13.260 -0.3377 -0.1574 -0.0368
21588W        W37849   5.680   0.669   2.749  0.3227 -0.2206  0.0706
21589W        W37850   2.613  13.165   3.502 -0.0017 -0.2273 -0.0454
21590W        W37851  17.325   0.518  10.789 -0.1513 -0.0097 -0.2079
21591W        W37852   9.971   4.228   4.975  0.3648 -0.2224 -0.0353
21592W        W37853  16.825   2.099   3.622  0.4960  0.3913  0.0336
21593W        W37854   0.437   4.118  11.583  0.1134  0.0428 -0.1346
21594W        W37855   0.870   1.188   3.231 -0.0087 -0.1203 -0.1494
21595W        W37856  17.723   4.380   3.086  0.0062 -0.4139  0.0628
21596W        W37857  11.792   8.141   3.761 -0.0762 -0.0757  0.2977
21597W        W37858   8.964   5.142   3.623 -0.2778  0.1678 -0.1674
21598W        W37859   9.794   3.651  12.712 -0.0576  0.2689 -0.0073
21599W        W37860   0.671   9.909   4.656  0.0271  0.0067 -0.0997
21600W        W37861  18.760   2.242   4.822 -0.0188  0.2436  0.3256
21601W        W37862   4.209  11.057   0.402 -0.1119  0.0538  0.0714
21602W        W37863   1.846   6.713   3.838 -0.2114 -0.4304  0.0744
21603W        W37864   8.550  18.529  10.612 -0.0664  0.1369 -0.1638
21604W        W37865   7.119   3.867   2.243 -0.0030 -0.1681 -0.4631
21605W        W37866  13.086   9.712  14.810  0.1198  0.4850 -0.0947
21606W        W37867   1.085   8.544   3.347 -0.2112 -0.1778  0.1583
21607W        W37868   8.900   4.347   9.825  0.4243  0.0845 -0.0692
21608W        W37869   2.795   6.749   1.472 -0.1998  0.0516  0.0380
21609W        W37870  11.360   9.618   1.688 -0.3323  0.2658 -0.2164
21610W        W37871   4.726   0.274  12.363  0.2231  0.0181  0.1022
21611W        W37872  16.032   1.782   1.642 -0.3731 -0.1068  0.3877
21612W        W37873  10.581   0.612  11.323 -0.2374 -0.0617  0.1309
21613W        W37874   4.571  10.190   3.223 -0.1458 -0.0962  0.1271
21614W        W37875   1.959   7.331   1.461 -0.0904 -0.2317 -0.2488
21615W        W37876  16.116   9.089   1.234 -0.2393  0.1418 -0.0529
21616W        W37877   3.290  18.843   3.445  0.2385  0.2301  0.0968
21617W        W37878   4.572   8.805   3.374  0.0355  0.1185  0.0744
21618W        W37879   7.627   9.710   4.435 -0.3683  0.1430 -0.1335
21619W        W37880  11.322   6.683   0.160  0.2566  0.1565 -0.0359
21620W        W37881  12.034   6.652   1.323  0.2328 -0.0035 -0.5096
21621W        W37882   0.500   7.238   0.595  0.1520 -0.2289 -0.0913
21622W        W37883  15.273   6.217  14.143  0.5092 -0.1463  0.1104
21623W        W37884  16.352   9.880   3.864 -0.0736  0.0168  0.1451
21624W        W37885  18.113  16.979   1.872  0.0860 -0.3716  0.1506
21625W        W37886   1.944   7.110   2.456  0.2872  0.0280 -0.0658
21626W        W37887   3.184  10.715   5.157  0.0558 -0.0517  0.0669
21627W        W37888  12.103  16.185   3.374  0.1668 -0.1321 -0.0670
21628W        W37889   8.064   6.978   4.144 -0.1293 -0.0656  0.0476
21629W        W37890   2.794  10.371  13.696 -0.1053 -0.0881  0.0068
21630W        W37891  12.586   8.928  14.718  0.0672  0.1290 -0.1926
21631W        W37892  13.518   5.090   2.529  0.1108 -0.3439 -0.1662
21632W        W37893  12.298  18.825  11.214 -0.1637  0.3009  0.0300
21633W        W37894   0.427  15.982  11.535 -0.1819  0.4712  0.1837
21634W        W37895   9.053  13.010  11.403  0.0495  0.0185  0.0004
21635W        W37896   2.210  11.077  11.997 -0.3833 -0.2275 -0.0394
21636W        W37897   4.405   9.642  13.839  0.0761  0.0783 -0.5361
21637W        W37898   4.067   0.479   5.290 -0.1247  0.3262 -0.0094
21638W        W37899  15.310  16.159  14.071 -0.2669  0.0605 -0.1675
21639W        W37900   2.831  16.771   1.665  0.2634 -0.1344 -0.1970
21640W        W37901   0.936   9.692   4.036 -0.1227 -0.2052 -0.0647
21641W        W37902   4.023   3.780   3.099 -0.1014 -0.0089 -0.3683
21642W        W37903  12.882   4.618  12.436 -0.1587  0.1420 -0.3847
21643W        W37904  11.140   5.678  13.070 -0.0925  0.0897  0.1823
21644W        W37905   0.252  10.643   3.452  0.2085 -0.0016  0.0227
21645W        W37906   1.676  16.101  13.088 -0.0320  0.1662  0.2028
21646W        W37907   4.183  11.444  10.546 -0.0903 -0.1843  0.0615
21647W        W37908   3.419  12.212  12.022 -0.2688 -0.3183  0.0021
21648W        W37909   4.180  11.942  13.632 -0.2055 -0.1053 -0.0621
21649W        W37910   1.898   8.537   1.457  0.1107 -0.1320  0.3589
21650W        W37911   7.126  12.993  13.429  0.1643 -0.2629 -0.0041
21651W        W37912   4.469   9.136  12.303 -0.1907 -0.0860  0.0851
21652W        W37913  16.446  11.374  10.659  0.4009 -0.2237  0.1415
21653W        W37914  11.735   7.818  11.460  0.1370  0.0367 -0.1368
21654W        W37915   9.237   6.761  14.590 -0.1096  0.1832 -0.4434
21655W        W37916   6.510   9.574  10.878 -0.2834 -0.0421 -0.0815
21656W        W37917  14.281  17.878   0.789  0.0711  0.0065 -0.0961
21657W        W37918  16.026  13.571  12.599  0.0566  0.0171 -0.1111
21658W        W37919   6.970   0.931   3.779 -0.0427 -0.0957  0.0786
21659W        W37920  12.717  13.114   1.909  0.1648  0.0409  0.5496
21660W        W37921   5.354   8.049  12.015  0.3026  0.1209 -0.1563
21661W        W37922   8.398   3.915  12.710  0.0398 -0.0713 -0.1263
21662W        W37923   3.158   5.312  13.436  0.2643  0.0529 -0.1645
21663W        W37924   7.643   4.837   1.811 -0.1475  0.0483  0.1030
21664W        W37925   7.926  16.481   5.828 -0.2288 -0.2824 -0.0821
21665W        W37926   8.403   7.283   4.786  0.2140  0.1241 -0.0731
21666W        W37927  11.961  17.332   2.200 -0.4136 -0.6013 -0.3819
21667W        W37928  11.828   3.068  12.568  0.0537  0.0929 -0.4620
21668W        W37929   0.836   7.515   4.290 -0.2216 -0.1553 -0.3291
21669W        W37930   4.269   1.284   1.705  0.0696 -0.0446 -0.3030
21670W        W37931  13.533  10.325  10.582 -0.3254  0.0982 -0.0933
21671W        W37932   7.262  13.416   1.605  0.2349  0.4572 -0.4746
21672W        W37933  18.344   8.429   4.862 -0.3104  0.1061  0.2241
21673W        W37934  12.855  16.981  11.810  0.0050 -0.1759  0.1194
21674W        W37935   4.031  11.390  13.045 -0.2331 -0.2780 -0.0704
21675W        W37936  12.402  16.973   2.264 -0.3207  0.1586  0.0568
21676W        W37937  10.002  13.201   5.222 -0.2731 -0.0351  0.0086
21677W        W37938  18.377   1.727  11.659 -0.3644 -0.1681  0.1067
21678W        W37939  13.424  14.853   3.797 -0.0629  0.3481  0.2125
21679W        W37940  14.415   6.770  13.454  0.3116  0.0593  0.1297
21680W        W37941   9.275   6.930  10.559 -0.1911 -0.0985 -0.1404
21681W        W37942   3.952   1.778   2.717 -0.1828 -0.1503 -0.4355
21682W        W37943  13.480   2.513   4.140  0.1746 -0.2878 -0.2667
21683W        W37944  10.326   8.339  13.834  0.1703 -0.2725  0.0432
21684W        W37945  11.717   5.897   4.351 -0.1592 -0.2898 -0.4335
21685W        W37946  15.179   7.293   9.998  0.2050  0.2918  0.0083
21686W        W37947   3.681   5.805  12.598 -0.1708 -0.1202  0.1100
21687W        W37948  11.981   5.830  11.391 -0.1848 -0.3054 -0.0163
21688W        W37949  15.040  12.488  14.541  0.0342  0.2932  0.3751
21689W        W37950  13.921   9.564  11.113  0.1392  0.0536 -0.1046
21690W        W37951   7.444  14.143  14.158 -0.0440 -0.0670 -0.1919
21691W        W37952   8.998   7.188  12.136  0.1567 -0.1610 -0.1750
21692W        W37953  12.993   6.519   9.969  0.1254 -0.0225 -0.2656
21693W        W37954   2.461  13.218   5.493 -0.1301 -0.0545  0.1553
21694W        W37955   8.837  15.455  14.492  0.4490  0.2429  0.2014
21695W        W37956  12.606   4.714   5.468  0.1828 -0.3089 -0.1227
21696W        W37957  16.900   0.245  10.732  0.0350 -0.1522  0.2878
21697W        W37958  15.523   1.938  13.050 -0.1597 -0.0317 -0.1998
21698W        W37959   3.560  14.229  12.669  0.1694  0.2280  0.1479
21699W        W37960   7.210   4.875  10.461  0.2704 -0.1693  0.0666
21700W        W37961  17.114  13.087  13.494 -0.2015  0.2835  0.1600
21701W        W37962  12.079   9.153   4.690 -0.0992 -0.1704 -0.2056
21702W        W37963  17.087   1.215   4.276  0.0553  0.3542 -0.4578
21703W        W37964   7.230  16.245  12.717  0.2884  0.0527  0.2447
21704W        W37965  10.025   0.226   3.624  0.1123 -0.3094 -0.1599
21705W        W37966  10.862  16.471  13.787  0.3524 -0.1233 -0.0042
21706W        W37967  14.842  17.263   0.232 -0.1158  0.1561 -0.0583
21707W        W37968  18.827  11.608  13.849 -0.1279  0.0391 -0.0074
21708W        W37969   0.789   3.577  13.827 -0.1316 -0.0151 -0.1309
21709W        W37970   4.393   2.971  11.113 -0.1446 -0.1958 -0.1718
21710W        W37971  15.037   4.940  14.366  0.2175 -0.1027 -0.2686
21711W        W37972  10.859  16.014   2.814  0.3597 -0.0314 -0.3679
21712W        W37973  11.053   5.733   0.279  0.0085  0.1778  0.0528
21713W        W37974  11.088  13.216   2.646  0.1855  0.3125  0.2409
21714W        W37975   7.199  17.310   1.748  0.0704  0.1876 -0.0979
21715W        W37976  12.437  12.801   0.785  0.2435 -0.1929  0.2430
21716W        W37977  14.200  16.742  14.587  0.0849 -0.1398  0.1118
21717W        W37978   7.921   0.818  11.121  0.0086 -0.2976  0.0626
21718W        W37979  10.775   8.913  10.708  0.1937  0.2051 -0.3916
21719W        W37980  19.365   2.829  14.609 -0.0001  0.0709  0.0933
21720W        W37981   5.388  15.807   0.361  0.1117  0.0884  0.0346
21721W        W37982   6.682   1.341  14.778  0.6381  0.1410 -0.0285
21722W        W37983   5.883   2.375  11.422  0.0226 -0.3575 -0.2045
21723W        W37984   5.486   9.182   3.300 -0.0031 -0.2080 -0.1551
21724W        W37985  18.381  17.400  12.091  0.0248  0.3115  0.2538
21725W        W37986   1.334   8.360   3.820  0.1945 -0.0051  0.0483
21726W        W37987   5.310   9.222  11.796  0.0004  0.0137 -0.2177
21727W        W37988   8.418   3.233  11.811 -0.0356  0.1785 -0.0044
21728W        W37989   4.203  16.815   2.886 -0.0602  0.0379  0.0383
21729W        W37990   8.325   0.573  10.372 -0.2740 -0.2949 -0.0056
21730W        W37991   7.791   3.663  11.162  0.0188 -0.4091  0.0587
21731W        W37992  16.013  11.443  13.228 -0.3652  0.0583 -0.2564
21732W        W37993  18.017   1.659  10.332  0.0404 -0.3855 -0.1623
21733W        W37994   8.571   9.376  14.253  0.2131 -0.5409 -0.0773
21734W        W37995   2.033  14.346   4.945  0.1199  0.1335 -0.3205
21735W        W37996  18.543   9.313  12.270 -0.0237 -0.2106  0.0437
21736W        W37997  14.958   1.562   2.364  0.1878 -0.1008 -0.4322
21737W        W37998   6.908  16.444   4.645  0.1871 -0.0211  0.0024
21738W        W37999   7.418  13.274   4.092  0.0706  0.0330 -0.1614
21739W        W38000   1.603  17.703   2.419  0.0910 -0.0660  0.1100
21740W        W38001   9.557   8.450  14.283  0.0691  0.0690 -0.2751
21741W        W38002  10.608  16.176   1.397 -0.1205  0.2202 -0.0700
21742W        W38003  13.711  17.375  13.203  0.3017 -0.0028 -0.0024
21743W        W38004  13.919   2.867   1.735  0.2725 -0.3474  0.1539
21744W        W38005   7.179   3.077  14.787 -0.0588  0.1668  0.3275
21745W        W38006   4.239   3.343   8.898  0.0117 -0.0776  0.0232
21746W        W38007  11.803  14.851   2.748  0.2842  0.1225 -0.2546
21747W        W38008  15.251   7.669   9.662 -0.2074  0.0737 -0.1014
21748W        W38009  18.257  16.381  10.565 -0.0421  0.4580 -0.0588
21749W        W38010   2.333  12.148   2.111  0.0810  0.0030  0.0914
21750W        W38011  17.791  11.136   0.281 -0.0245 -0.2926  0.1720
21751W        W38012   9.106   5.055  11.210  0.5207  0.0519 -0.1745
21752W        W38013  18.843  15.980  11.766  0.2129  0.1321  0.3826
21753W        W38014   0.493   0.278   2.211  0.1610 -0.2429 -0.0203
21754W        W38015   6.019  15.896   0.783  0.0264 -0.1989  0.0978
21755W        W38016   5.328  12.147   1.905 -0.0315  0.1037 -0.2349
21756W        W38017  12.982   6.893   1.066  0.1742 -0.1510  0.1114
21757W        W38018  10.036   9.294   0.432  0.0206  0.1011  0.1853
21758W        W38019   0.569   5.419   0.662 -0.1800  0.1792 -0.0671
21759W        W38020   1.986  13.636   2.435 -0.0425 -0.0641  0.0836
21760W        W38021  15.935   8.281  13.159 -0.4886  0.0825  0.4188
21761W        W38022   8.445  13.833  13.558 -0.0613  0.3737  0.1356
21762W        W38023  13.283  10.771   0.752  0.0530  0.1802  0.2554
21763W        W38024  10.761   5.089  10.675 -0.0993  0.1838 -0.2458
21764W        W38025  19.320   4.292   3.676 -0.2341 -0.1196  0.1777
21765W        W38026  17.702  15.558   4.269  0.1772 -0.0979 -0.2318
21766W        W38027  17.926   0.666   3.362  0.1811 -0.2227  0.0749
21767W        W38028   6.980  18.404   3.089  0.1271  0.1764  0.4383
21768W        W38029  13.945  13.771  13.050 -0.1050  0.2118 -0.0125
21769W        W38030  18.515  19.347   4.823  0.0242 -0.0068  0.3193
21770W        W38031  12.797  16.213  12.776  0.0095 -0.0755 -0.3217
21771W        W38032  14.934   5.962  14.456 -0.3372 -0.0722  0.2452
21772W        W38033  15.563   9.855   1.840  0.2903  0.1166 -0.1512
21773W        W38034  17.776   0.394   0.049  0.0359  0.1235  0.1843
21774W        W38035   4.219   8.840   1.796 -0.2754  0.1568  0.1284
21775W        W38036  11.934   7.324   0.289  0.2957 -0.0041 -0.4415
21776W        W38037   8.347  12.443   1.627 -0.0473  0.2344 -0.1853
21777W        W38038   9.541   6.152   1.088 -0.3791  0.0817  0.1417
21778W        W38039   3.168   7.586  14.614 -0.2176  0.2215  0.2996
21779W        W38040   9.173   9.861  12.416  0.1674 -0.1742 -0.2481
21780W        W38041   3.324   9.625   3.085  0.5070 -0.1710  0.2197
21781W        W38042   7.537   6.283   3.342 -0.2677  0.2288  0.0603
21782W        W38043  12.864   6.583  13.156  0.0677 -0.0657  0.2111
21783W        W38044   7.565   9.105   0.754 -0.0858  0.1399  0.0306
21784W        W38045  13.211  13.700   1.012 -0.0526 -0.0757  0.2980
21785W        W38046   1.718   4.035   3.811 -0.3461 -0.1253  0.4005
21786W        W38047  17.865   9.165  13.323 -0.0309 -0.1469 -0.1429
21787W        W38048   3.050  10.517   4.764  0.1516 -0.1082 -0.2596
21788W        W38049   5.127  10.016   4.962 -0.0945 -0.0612 -0.1267
21789W        W38050  11.650   5.202   0.890 -0.0647 -0.2323 -0.2028
21790W        W38051  13.947   3.811   0.102  0.0355  0.0091 -0.2177
21791W        W38052   2.765   1.596  11.908  0.2089  0.0435  0.1214
21792W        W38053  16.428  17.059  12.989 -0.1511 -0.0808  0.2480
21793W        W38054   2.311  18.054  12.994  0.2627  0.2712  0.1995
21794W        W38055  16.081  11.810  14.237 -0.1776 -0.1734 -0.3241
21795W        W38056   4.778   8.218  11.296  0.0869  0.0747  0.1303
21796W        W38057   8.393   3.400  13.993  0.1221  0.2271 -0.2247
21797W        W38058   4.471  19.227   4.220 -0.0838  0.1866  0.1383
21798W        W38059   9.950  11.489   1.584  0.2696  0.2038 -0.1421
21799W        W38060   8.793  18.155   2.282 -0.1806 -0.2801  0.0751
21800W        W38061   1.189  15.840  12.627  0.0190 -0.1754 -0.3632
21801W        W38062  14.830   5.909   3.985 -0.2332  0.1082  0.1967
21802W        W38063   1.475   0.481  11.737 -0.0270  0.0240  0.0216
21803W        W38064   2.204  18.717   3.706 -0.1824  0.2248  0.0440
21804W        W38065  12.355  17.133  14.134  0.1758 -0.1701  0.1945
21805W        W38066   7.626   8.967  12.189  0.1775  0.3031  0.0010
21806W        W38067   4.906   9.386  12.810 -0.2054  0.1497  0.2584
21807W        W38068   9.586  14.450  13.869 -0.1775  0.0732  0.6013
21808W        W38069  17.929   6.812  13.397  0.1009  0.1450  0.0743
21809W        W38070  16.343   9.989  12.484 -0.1950  0.2527 -0.0196
21810W        W38071  12.251   4.330   0.934  0.5116  0.2534 -0.1653
21811W        W38072  19.295  18.465   3.091  0.0344 -0.0367 -0.1924
21812W        W38073   7.296  14.063  11.917  0.1219  0.0715 -0.1509
21813W        W38074   4.291  16.625  11.518  0.2888  0.4623  0.1718
21814W        W38075  18.047  12.900   0.193  0.3002 -0.2473  0.0398
21815W        W38076  12.434   1.271   0.861  0.0947  0.1603 -0.2915
21816W        W38077  18.279   7.200  12.611 -0.1137 -0.2353  0.2851
21817W        W38078  14.073  14.770   5.172 -0.3004 -0.1973 -0.2827
21818W        W38079   2.204  14.415   0.859  0.2925 -0.0569 -0.1428
21819W        W38080   5.504   7.972  13.722  0.0484  0.0161 -0.4095
21820W        W38081   8.408   0.817   0.925  0.2656 -0.5130 -0.0922
21821W        W38082  10.156  18.274   4.225  0.0406  0.1321  0.0084
21822W        W38083  10.743   7.754  14.442 -0.3274  0.1969  0.0905
21823W        W38084   7.554  13.709  14.760 -0.2980 -0.2710  0.2721
21824W        W38085  13.825   1.257  12.281 -0.0113 -0.0675 -0.0359
21825W        W38086  18.378   3.282  13.910  0.1658 -0.1829  0.1555
21826W        W38087  17.247   4.529   4.880  0.5076 -0.0610 -0.1954
21827W        W38088  17.337  16.588  14.709  0.2830 -0.0461  0.3492
21828W        W38089  16.404  13.348   5.324  0.1018  0.0331  0.4003
21829W        W38090  19.171   8.412  10.633 -0.1902 -0.2113  0.2611
21830W        W38091  11.497   5.027   0.453  0.4667 -0.2767  0.0377
21831W        W38092   8.802  19.260  13.366  0.1927  0.2838 -0.4670
21832W        W38093   0.060  17.730  10.762  0.1260 -0.0504 -0.1333
21833W        W38094   6.914   6.694  14.258 -0.1401 -0.2193  0.1778
21834W        W38095   5.554   2.342  11.064 -0.1899 -0.2001 -0.2761
21835W        W38096   7.145   5.325   0.679  0.0584  0.1149  0.1934
21836W        W38097   4.083  13.445   5.578 -0.0193 -0.0360  0.0294
21837W        W38098  18.054  12.649   1.589  0.1141 -0.0198 -0.0798
21838W        W38099  10.186   9.173  12.982 -0.1571 -0.1040 -0.2747
21839W        W38100  15.885   8.948  12.674 -0.3531 -0.2647  0.3408
21840W        W38101   7.675   2.112  13.475  0.1744  0.3467  0.0195
21841W        W38102   6.877   1.563  10.909 -0.0007 -0.0683 -0.1137
21842W        W38103   5.136   0.914   0.434 -0.1296  0.1211 -0.1756
21843W        W38104  11.943   4.168   1.762 -0.0102 -0.1912  0.1172
21844W        W38105  12.492  18.220  12.598  0.0521 -0.0294 -0.5300
21845W        W38106  19.106  12.034  13.436  0.0179 -0.0216  0.1043
21846W        W38107  16.332  19.129  12.784 -0.3331  0.0798 -0.0020
21847W        W38108  11.671  17.852   3.909  0.0575 -0.1859  0.2378
21848W        W38109   0.803   9.192   3.842  0.2276  0.1740  0.1045
21849W        W38110   9.198  13.562  12.536  0.0347  0.2294  0.0555
21850W        W38111   5.432   4.584  10.239 -0.1778 -0.0494 -0.0963
21851W        W38112  15.436  11.696  10.587  0.2769 -0.0573 -0.0439
21852W        W38113  16.364   6.244  10.075 -0.0400  0.0036 -0.1328
21853W        W38114  17.281   9.387   0.313 -0.1039 -0.0172 -0.0238
21854W        W38115   7.493  17.898  13.441 -0.3832 -0.2893 -0.4445
21855W        W38116  18.481  13.990   1.483 -0.1245  0.0127  0.0185
21856W        W38117   3.886   5.110   0.085  0.1610  0.2869  0.4274
21857W        W38118   3.211   8.476  11.095  0.2616  0.1168 -0.1449
21858W        W38119   5.678   0.413  12.694  0.0588 -0.1160  0.2119
21859W        W38120  18.096   9.346   5.419  0.2479 -0.3089 -0.1130
21860W        W38121  10.267   8.593   2.581 -0.1065 -0.1190 -0.1713
21861W        W38122   1.328  17.001  13.613  0.0354 -0.0872 -0.0254
21862W        W38123   6.145  12.098   2.945 -0.1556  0.1583  0.2910
21863W        W38124  11.105   2.609  14.573 -0.0156 -0.4797 -0.1949
21864W        W38125   2.778  10.990   0.020 -0.0588  0.1320  0.0651
21865W        W38126   1.649   4.146   4.645 -0.0027  0.3142  0.1044
21866W        W38127  19.430  10.545   2.531 -0.4373  0.0678 -0.2065
21867W        W38128  15.037   5.043   1.659 -0.2591  0.2426  0.1901
21868W        W38129  12.149   4.522   4.178  0.0449 -0.0257  0.1342
21869W        W38130   5.635   3.713   0.539  0.0614 -0.1456  0.0707
21870W        W38131  11.885   2.933  14.446 -0.1758  0.1320  0.0233
21871W        W38132   8.972   9.830  10.894 -0.0003 -0.0528  0.0410
21872W        W38133  14.557   5.144  14.369  0.0545  0.3546 -0.3198
21873W        W38134   5.604   6.803   9.585  0.0391 -0.0730 -0.1673
21874W        W38135   5.696   7.174   0.449  0.0364  0.2323 -0.0381
21875W        W38136   9.708   3.766  11.974 -0.0683 -0.0014 -0.1835
21876W        W38137   3.057  11.974  13.815 -0.1351  0.2659 -0.1627
21877W        W38138  10.660   9.990  13.949 -0.0570  0.4814 -0.0126
21878W        W38139  12.505  18.656  11.620  0.2361  0.1638 -0.2901
21879W        W38140   7.369   1.075   2.488  0.2257 -0.2904 -0.1457
21880W        W38141   5.432  16.170   2.890  0.3221  0.0387  0.1638
21881W        W38142  10.608  12.597  14.679 -0.1100  0.1216  0.0189
21882W        W38143   7.441   9.588   2.294 -0.2354 -0.1411 -0.1762
21883W        W38144  17.547  11.829   2.796  0.0075 -0.1760 -0.0931
21884W        W38145  16.750   3.306  12.514  0.0097 -0.1996  0.0011
21885W        W38146  14.311   7.795  12.365 -0.0225  0.0217  0.0539
21886W        W38147   4.228  15.919   0.912 -0.3503 -0.0393  0.2116
21887W        W38148  11.892   0.598  10.638  0.0338  0.1253 -0.0271
21888W        W38149   0.818   2.614   1.346 -0.0968 -0.3518  0.0462
21889W        W38150  17.346  13.085   3.479  0.0334 -0.2457  0.2203
21890W        W38151  10.052  10.910  11.996  0.0519  0.0246 -0.0056
21891W        W38152   5.327   3.162  12.564  0.2125  0.5510 -0.1953
21892W        W38153   6.969   6.269   1.675  0.1090 -0.0229 -0.1621
21893W        W38154  13.037   8.682   2.354 -0.0147 -0.3847 -0.0452
21894W        W38155  10.954  13.985  13.934  0.1095 -0.3502 -0.2683
21895W        W38156   0.213  12.131  13.152  0.0143  0.1278 -0.1054
21896W        W38157   6.566   6.044  12.506 -0.1178 -0.2323 -0.3261
21897W        W38158  11.499  15.192   3.671 -0.0003 -0.1740 -0.1196
21898W        W38159  12.802  12.317  14.024  0.0096  0.5150  0.1938
21899W        W38160   1.869   3.652  12.406  0.4107  0.0096  0.0048
21900W        W38161   5.487  14.901   3.737 -0.1118 -0.2744  0.4918
21901W        W38162   1.573  17.731  11.292  0.1231 -0.1609 -0.1708
21902W        W38163   6.338  12.849   3.282  0.0246  0.3490  0.4510
21903W        W38164  14.698   5.887   3.429 -0.0089 -0.3148 -0.0008
21904W        W38165   6.417   9.004  13.189 -0.2469  0.1633 -0.0238
21905W        W38166  13.349   3.097   2.724 -0.3782 -0.1953 -0.0558
21906W        W38167   5.824  19.198  11.735 -0.1886  0.3074 -0.0729
21907W        W38168  13.135   4.682   1.694  0.0052  0.4251  0.0681
21908W        W38169   9.221  12.364   2.281 -0.2864 -0.4361  0.0724
21909W        W38170  15.859  10.966  13.440  0.0226 -0.1878 -0.1468
21910W        W38171  10.107  16.358  10.670 -0.2312  0.1028 -0.0926
21911W        W38172   2.649  16.784   4.439 -0.2069  0.0511  0.0340
21912W        W38173   9.139   9.223  14.085 -0.0184  0.4033 -0.1593
21913W        W38174   8.123  16.897  11.830 -0.1222 -0.1394 -0.1429
21914W        W38175  12.351   5.406  12.585 -0.0806  0.0955  0.3852
21915W        W38176   6.834   9.493  12.394  0.3377  0.1607  0.2987
21916W        W38177  17.885  16.167   0.716 -0.2470  0.2608  0.1863
21917W        W38178  19.157  13.950  13.190 -0.1071 -0.1532 -0.2151
21918W        W38179  11.526  13.228  12.597  0.0124 -0.0985  0.0718
21919W        W38180  11.892   4.814   2.695  0.0333  0.2321 -0.2909
21920W        W38181  18.263   9.307  10.713  0.2476  0.1678  0.1561
21921W        W38182   3.334  19.201  13.632 -0.1411  0.2842  0.0148
21922W        W38183  16.814   0.533   3.798 -0.1303 -0.3205 -0.1244
21923W        W38184  12.023   8.978  13.867 -0.1572 -0.0260  0.2672
21924W        W38185  10.036   0.430   3.174  0.2578  0.2388  0.1623
21925W        W38186  18.840   5.331   0.117 -0.0382  0.3285  0.2352
21926W        W38187  10.461  13.338   9.873  0.0234  0.2684  0.2849
21927W        W38188   8.002   7.920  12.201  0.0359  0.2059  0.0032
21928W        W38189  15.756  14.547   5.259 -0.0410 -0.0188  0.0034
21929W        W38190  11.588  16.439   4.598 -0.0766  0.2239  0.0491
21930W        W38191   2.260  14.705   2.393 -0.2077  0.0577  0.3590
21931W        W38192  12.015   9.925  11.791  0.3193 -0.3657  0.2354
21932W        W38193  18.701   1.249  12.411 -0.1140 -0.1245  0.3678
21933W        W38194   9.241   0.079  11.396 -0.1893 -0.0515 -0.3650
21934W        W38195   9.720   1.461  12.804  0.1887  0.0967  0.0810
21935W        W38196   6.812   4.082  14.742 -0.0884 -0.1770 -0.0128
21936W        W38197   3.036   4.269   1.630  0.0581 -0.3284  0.3879
21937W        W38198   6.197   5.501  14.793 -0.1451 -0.5267 -0.0948
21938W        W38199   0.831  13.491  12.361 -0.2377 -0.3223 -0.0905
21939W        W38200  12.431   7.664   9.017  0.2125  0.2389 -0.3285
21940W        W38201  18.189  17.202   6.018 -0.2170  0.2808 -0.0608
21941W        W38202   3.486   4.507  13.837  0.0861  0.0040 -0.2359
21942W        W38203  16.255   3.979   0.181  0.1871  0.2042  0.2353
21943W        W38204  12.631   2.470  13.506  0.0732 -0.1275  0.3470
21944W        W38205  11.251   1.861   2.118 -0.0801 -0.2293 -0.1722
21945W        W38206   2.406   2.273   9.217 -0.0054  0.0647  0.1845
21946W        W38207  15.423  18.074   2.565  0.0404 -0.1249  0.0951
21947W        W38208   9.114  17.163   2.023 -0.0158 -0.0891 -0.1215
21948W        W38209   0.546  12.950   5.210 -0.0356  0.2467  0.1259
21949W        W38210   2.144   1.558  10.924 -0.0907  0.0533  0.1616
21950W        W38211  18.863  15.261   2.738 -0.0253  0.1670  0.1396
21951W        W38212  17.503   3.233  12.797 -0.1734 -0.3206  0.0878
21952W        W38213  13.302  15.748  12.032  0.4506 -0.2505 -0.0728
21953W        W38214  18.270   2.842   3.213  0.1561  0.0034  0.5339
21954W        W38215   0.004  17.120   3.008 -0.2234  0.1980 -0.1843
21955W        W38216  17.565  12.609   0.114  0.0280  0.0683 -0.0781
21956W        W38217   4.057  11.323   3.794 -0.0504  0.1810 -0.2782
21957W        W38218   9.355  11.112   0.752  0.2967  0.3430  0.1340
21958W        W38219  10.046   8.402  14.218 -0.1084 -0.0128  0.0268
21959W        W38220  14.822  11.240   1.581  0.0786 -0.1258  0.1488
21960W        W38221   3.337   8.954   3.852  0.0375 -0.0254  0.0514
21961W        W38222   6.410  18.065   2.982 -0.0569 -0.0264  0.0201
21962W        W38223  14.277   6.989   1.253  0.0598  0.0772  0.0261
21963W        W38224   0.552   7.041   1.595  0.2239 -0.2391 -0.1910
21964W        W38225  18.244   0.553   1.847 -0.0073 -0.0256  0.0982
21965W        W38226  18.756  14.454  12.392  0.0021 -0.1032  0.0164
21966W        W38227   0.462   5.351  13.933 -0.1328 -0.0452 -0.1488
21967W        W38228  14.027   3.999   3.643  0.5801  0.3085  0.0073
21968W        W38229  10.551   1.947  10.269  0.0639 -0.1973 -0.0060
21969W        W38230   4.155  10.465  13.669 -0.2616 -0.0248  0.2609
21970W        W38231   9.359  11.762  12.737 -0.5177  0.1761 -0.1149
21971W        W38232   0.849  16.609  12.285  0.0461  0.1513  0.3474
21972W        W38233   6.453  11.293   1.899  0.3443  0.0614 -0.0757
21973W        W38234   7.241  18.597  14.662  0.3091  0.4049 -0.2109
21974W        W38235   3.837  14.976   1.124  0.2315  0.2329 -0.0883
21975W        W38236  16.909  19.396  11.918  0.0411 -0.3729  0.2365
21976W        W38237  11.669   9.603  11.004  0.6544  0.1007  0.1633
21977W        W38238  15.707   8.482   0.773  0.0896  0.1343  0.1201
21978W        W38239  15.731  17.736   4.897 -0.1387 -0.2514 -0.4795
21979W        W38240  16.791   8.115   5.570  0.3363  0.3170 -0.0601
21980W        W38241   4.064  17.474   5.312 -0.1368 -0.4516 -0.0832
21981W        W38242  16.700   1.009  12.341 -0.1214 -0.0802 -0.2279
21982W        W38243  15.643   6.947   4.861  0.0212 -0.2069  0.2742
21983W        W38244  15.590  18.377   3.999 -0.0768 -0.0851  0.2156
21984W        W38245   8.860  18.635  12.108  0.0345 -0.1266 -0.0381
21985W        W38246  13.325  16.164   5.471 -0.0403 -0.1458 -0.0103
21986W        W38247   5.305  19.102  10.762 -0.2248  0.1666 -0.1231
21987W        W38248   6.938  13.523  13.463 -0.0208  0.0137 -0.1027
21988W        W38249   8.077   2.533   4.556  0.1184 -0.2557 -0.0045
21989W        W38250  16.780  18.832   2.167  0.0005 -0.1246  0.1019
21990W        W38251   9.106   9.250   9.686 -0.1250  0.0029 -0.0837
21991W        W38252   8.087  10.247  14.216  0.1452 -0.0885  0.0864
21992W        W38253  18.308  19.052   2.491 -0.1667 -0.1782  0.1580
21993W        W38254   6.848   6.598  11.298 -0.2837 -0.0988 -0.1863
21994W        W38255   3.411  16.726  13.402  0.1871 -0.2277 -0.1771
21995W        W38256  13.101  16.129  13.731 -0.1425 -0.2533  0.5805
21996W        W38257   5.411  17.261   4.075  0.3007  0.0370 -0.0604
21997W        W38258  11.162   8.463  14.036  0.2126  0.1150 -0.0396
21998W        W38259   3.284   5.501  11.728 -0.0628 -0.2371 -0.3218
21999W        W38260   4.610  12.248   0.711 -0.2801  0.0976 -0.1469
22000W        W38261  17.519   2.711   2.887  0.1945 -0.3747  0.0826
22001W        W38262   5.971   4.314   2.930 -0.0134 -0.1133  0.0014
22002W        W38263  11.464   5.829   2.754  0.2042  0.1486  0.3113
22003W        W38264  14.316  11.155   3.619  0.0368  0.0583  0.2807
22004W        W38265  16.390   0.417  11.663  0.0008 -0.0917  0.3191
22005W        W38266  10.960   4.459  12.620 -0.0536  0.0290  0.1714
22006W        W38267  15.213  12.903  10.701 -0.1777  0.2768  0.0874
22007W        W38268  14.986   5.491   3.080 -0.0545  0.0565  0.1399
22008W        W38269  15.495   7.388   1.080  0.0608 -0.0285  0.0479
22009W        W38270   4.349   0.333  10.296  0.0058 -0.0327 -0.0340
22010W        W38271   4.646   0.955   2.686 -0.3933  0.3826  0.0537
22011W        W38272  13.616   4.960   4.547 -0.1817 -0.0819  0.0169
22012W        W38273   9.488   9.347   1.630 -0.0961 -0.0917 -0.0208
22013W        W38274  13.231   4.893   2.906  0.0441  0.1088  0.2022
22014W        W38275  17.434  11.521   0.400 -0.2919  0.0547 -0.1456
22015W        W38276   3.507  18.667   1.140  0.2119  0.0132 -0.1609
22016W        W38277   4.157  16.187  11.034 -0.1634  0.1190 -0.0244
22017W        W38278   0.689  14.158   3.218  0.1497 -0.0161  0.3653
22018W        W38279  19.212   1.644   3.643  0.0672  0.2434  0.0946
22019W        W38280  11.239  14.906  12.940  0.0191  0.0615 -0.2193
22020W        W38281  15.467  10.443   4.617 -0.0234  0.3349  0.3065
22021W        W38282  13.886   7.235   1.646  0.3554  0.0609  0.0818
22022W        W38283   7.802  17.134   0.312 -0.1171 -0.1754  0.0575
22023W        W38284  19.375  17.307  11.829 -0.2612 -0.2714 -0.1769
22024W        W38285  18.351   8.393  10.667 -0.3813  0.2987  0.3065
22025W        W38286  16.245  13.196   0.932  0.3485  0.0302  0.0491
22026W        W38287   5.077   7.972   0.420  0.1478 -0.0399  0.0280
22027W        W38288  13.032  11.660   3.335 -0.2604 -0.1933 -0.0426
22028W        W38289  18.370  16.769  14.745  0.2317  0.1611  0.0526
22029W        W38290  17.060  13.475   1.135 -0.0099 -0.0441 -0.1443
22030W        W38291  18.102   4.419  14.464 -0.4235 -0.0305  0.0383
22031W        W38292  14.580  14.300  13.618 -0.1091  0.0789 -0.0688
22032W        W38293  19.429   7.767   4.056 -0.0191 -0.2442  0.2890
22033W        W38294  19.118   7.072  12.219  0.1945  0.4249  0.1822
22034W        W38295  18.129   7.334  13.647  0.1777 -0.0298 -0.0224
22035W        W38296   1.850   9.104   1.433  0.0415  0.1066 -0.2584
22036W        W38297  13.050  13.008   1.517 -0.2781 -0.4144  0.3587
22037W        W38298  10.030   8.239   0.360 -0.3256 -0.2368  0.1091
22038W        W38299   3.762  15.764  11.339 -0.0178 -0.0476 -0.1269
22039W        W38300  19.148  12.922  14.401  0.3229  0.1749 -0.2164
22040W        W38301  11.685   6.488   2.745 -0.0861  0.0648 -0.1230
22041W        W38302  10.282   3.843  10.451  0.0064 -0.0419 -0.0206
22042W        W38303   5.209  14.895  12.776 -0.0384  0.1450  0.1029
22043W        W38304   1.803   5.471  14.513  0.1790  0.2626 -0.2842
22044W        W38305  18.845   2.264   3.444 -0.0671 -0.2146  0.0249
22045W        W38306   3.657   0.881  13.259 -0.2366 -0.0317  0.0211
22046W        W38307  10.816  13.240  11.671  0.1326  0.0120 -0.1787
22047W        W38308  11.076  18.702  13.671 -0.2810 -0.1819 -0.2014
22048W        W38309   7.911  14.358  14.169  0.0137 -0.0459 -0.1129
22049W        W38310  18.500  18.841  11.021  0.0506  0.2143  0.5709
22050W        W38311   8.343   1.400   9.752  0.3398 -0.2932  0.0010
22051W        W38312  14.761  10.047   0.905 -0.1906 -0.2469 -0.2708
22052W        W38313  11.993   7.097   1.612  0.2725  0.4007  0.0985
22053W        W38314   3.927  15.608   3.498 -0.0091 -0.1340 -0.0337
22054W        W38315  17.980  10.742   5.308 -0.1079 -0.0250 -0.1606
22055W        W38316  12.517  10.738  12.878 -0.1684 -0.1148  0.0164
22056W        W38317  17.903  11.766   5.663  0.1324 -0.2850 -0.0256
22057W        W38318   6.152  16.654  13.820 -0.2277 -0.1356  0.1290
22058W        W38319  15.101   3.628   3.522  0.1685 -0.2526 -0.1417
22059W        W38320   1.847  13.504  11.795 -0.4322  0.2846 -0.0603
22060W        W38321   7.895   1.157  11.849 -0.1236 -0.0834 -0.1449
22061W        W38322  16.870   1.900   4.995  0.2068  0.0455  0.0274
22062W        W38323   3.214   6.509   4.201  0.1915  0.2898 -0.0564
22063W        W38324   9.538   3.976  10.521  0.1338  0.0462  0.0785
22064W        W38325  17.765  15.138  12.210  0.3222  0.4901 -0.0017
22065W        W38326  16.804   2.501   5.633  0.2528 -0.0219  0.3091
22066W        W38327  10.342   7.770   1.338  0.1470 -0.4354 -0.2157
22067W        W38328   6.518   4.805   9.009  0.1124 -0.4392  0.0440
22068W        W38329  10.051   3.564   3.353 -0.2193 -0.1023 -0.0988
22069W        W38330   6.560   7.822   0.443  0.0442 -0.0542  0.3141
22070W        W38331  18.367   7.358  11.569  0.1682  0.2171  0.0466
22071W        W38332   7.600   9.598   9.777  0.1595 -0.0405  0.0601
22072W        W38333   2.057   3.511  12.937  0.0360  0.2925 -0.2524
22073W        W38334  17.103   9.913  10.363 -0.0112  0.3714  0.1810
22074W        W38335   7.306   6.752  12.018 -0.0549 -0.3390 -0.0674
22075W        W38336  12.019   1.270   3.132  0.3599 -0.1775  0.3552
22076W        W38337  10.973   5.298   9.868  0.1270  0.0484 -0.2419
22077W        W38338  16.798   1.946   0.149 -0.2361  0.0205  0.0728
22078W        W38339   5.474  10.727   5.122 -0.1419 -0.0553  0.1785
22079W        W38340   0.420  10.050  10.293  0.1469 -0.3007  0.3133
22080W        W38341  14.580  14.871  12.333  0.0604 -0.3694 -0.1738
22081W        W38342   8.769   2.160   4.014 -0.2584 -0.0315  0.1245
22082W        W38343  16.376  12.639  11.448  0.0872  0.0261 -0.2716
22083W        W38344  18.766  11.164  14.692 -0.0867  0.2086 -0.1486
22084W        W38345  11.323   0.565   1.154  0.1166  0.0698 -0.1223
22085W        W38346  12.287   5.651   3.121 -0.1298  0.0423  0.0221
22086W        W38347  12.611  10.741   5.154  0.2146  0.0768  0.0318
22087W        W38348  16.171  18.861   3.181  0.0488 -0.4348 -0.0416
22088W        W38349  18.515  18.003   5.441 -0.3746 -0.2950 -0.0455
22089W        W38350  18.538   1.367   9.251  0.0605  0.3854  0.0291
22090W        W38351   7.678  13.118   3.296 -0.0041  0.1140  0.0541
22091W        W38352  18.538  16.733   2.024  0.1181 -0.0040 -0.1695
22092W        W38353  11.853  18.580  11.468  0.0369 -0.3909  0.2960
22093W        W38354   1.130  16.325  11.046  0.2653 -0.1548  0.0212
22094W        W38355   3.507   9.317   0.249  0.0042  0.0811 -0.2488
22095W        W38356   9.865  13.010  11.608 -0.1186 -0.0120 -0.2301
22096W        W38357   3.712   7.252   3.438 -0.2697  0.1145 -0.1638
22097W        W38358  13.427  11.689   1.384 -0.1509  0.5492 -0.2300
22098W        W38359   3.433   4.732   2.433  0.0343 -0.0960 -0.5130
22099W        W38360  10.079  18.146  10.740 -0.4229 -0.2421  0.3771
22100W        W38361  12.092  12.034   1.399  0.1136 -0.0932 -0.5490
22101W        W38362  14.602   8.390   4.929  0.0537  0.0051 -0.1173
22102W        W38363   4.391   4.852  14.451  0.1103 -0.2086 -0.0021
22103W        W38364   8.414   7.851   3.027  0.0733 -0.2484  0.0637
22104W        W38365  17.011  12.664   2.658 -0.1754  0.2287 -0.2328
22105W        W38366  12.252   2.679  11.107  0.3083  0.1145  0.1035
22106W        W38367  18.163  11.672   2.691 -0.0459  0.0128  0.0406
22107W        W38368   6.945   4.887  14.550 -0.0883  0.1972 -0.2910
22108W        W38369   0.114  17.331  12.913  0.1428  0.2247 -0.0266
22109W        W38370   6.762  13.971   0.272 -0.0874 -0.1469 -0.0539
22110W        W38371  15.676   4.329  12.407  0.3288  0.4132 -0.2417
22111W        W38372  11.847   7.215   9.767  0.0293 -0.2601 -0.0009
22112W        W38373   0.154  11.601   5.054 -0.1374  0.1432 -0.3631
22113W        W38374   4.417   9.148   4.940 -0.1382  0.3049  0.1182
22114W        W38375  12.154   9.193  10.684 -0.0894  0.1530  0.1812
22115W        W38376   4.812  14.774   2.023 -0.3130  0.2774 -0.0140
22116W        W38377  17.193   7.430   1.075  0.1759 -0.1217  0.2920
22117W        W38378   9.680   8.090  12.548  0.1826  0.0022 -0.1330
22118W        W38379  12.541   6.177   4.104  0.2273 -0.1248 -0.3840
22119W        W38380   7.488  15.627   3.424 -0.0965 -0.1316  0.1098
22120W        W38381   0.529   2.672  13.616 -0.2240  0.1091  0.3279
22121W        W38382   4.887   7.271  11.513  0.0676 -0.1422  0.2680
22122W        W38383   1.263  16.032   1.529 -0.1385 -0.2150  0.0135
22123W        W38384  12.926   6.156   1.665  0.3280 -0.0018  0.1709
22124W        W38385   8.756   2.063   9.789  0.1266  0.0365 -0.0562
22125W        W38386  14.924   9.874  12.619  0.1287  0.1281  0.0676
22126W        W38387   8.212  18.446  14.605  0.1906  0.2287  0.0447
22127W        W38388  12.226  15.982   0.532  0.2763 -0.0865 -0.1639
22128W        W38389   2.671  17.903   3.527 -0.0715 -0.0524  0.2713
22129W        W38390   5.973  18.080   4.474  0.1973  0.2361 -0.1169
22130W        W38391   5.210  15.212   2.949 -0.1545  0.3090  0.4198
22131W        W38392  17.555   2.962   0.779 -0.3065  0.2655 -0.1425
22132W        W38393  19.431  12.552   1.571 -0.0684  0.2053  0.0679
22133W        W38394  18.771   2.157   2.821 -0.2748  0.1203 -0.1878
22134W        W38395   1.387   6.338   2.273  0.1764  0.0998  0.0763
22135W        W38396  11.678  15.290  13.438 -0.1943  0.0070 -0.1322
22136W        W38397  10.727  16.036  12.256 -0.3014 -0.2244  0.0369
22137W        W38398   5.726   6.227   9.554  0.1430 -0.0785  0.0302
22138W        W38399  12.960   6.375   5.414  0.2175  0.2497 -0.0686
22139W        W38400   7.914  12.082  13.872 -0.0111 -0.0415  0.2758
22140W        W38401  13.599   3.706  10.978 -0.0768  0.0819 -0.0212
22141W        W38402   4.514   5.285  13.083 -0.4200  0.1723 -0.0285
22142W        W38403   4.757   1.723   3.953 -0.1341  0.1608 -0.1071
22143W        W38404   2.302  10.728  13.666  0.2287 -0.1062 -0.1043
22144W        W38405   0.060  13.665   3.732  0.2334  0.1545 -0.0910
22145W        W38406  10.329   7.784  13.297 -0.0376 -0.3020 -0.1035
22146W        W38407  17.551   1.556  11.317  0.0872 -0.0903 -0.1944
22147W        W38408  18.954  19.016   3.433  0.1413 -0.0027 -0.1735
22148W        W38409  15.804  13.461  13.459 -0.1858  0.1547  0.1386
22149W        W38410  14.364  19.440  12.914 -0.1040 -0.3235 -0.0475
22150W        W38411  11.205   9.105  14.019  0.5230 -0.0501 -0.0277
22151W        W38412  12.846  13.765   4.912 -0.0033  0.0331  0.1961
22152W        W38413  18.061  14.526   0.408  0.0532 -0.1183  0.1680
22153W        W38414   3.559   0.130  11.364 -0.0142 -0.0783  0.1814
22154W        W38415  14.430   7.434  14.321  0.0558  0.1830  0.0378
22155W        W38416   6.818   3.960  14.276 -0.0402 -0.1622 -0.0827
22156W        W38417  16.297  16.730   1.536  0.2231  0.3689  0.0309
22157W        W38418   2.284   4.948  11.787 -0.0432  0.6007  0.1079
22158W        W38419   6.125   4.484  14.460 -0.0515 -0.0926  0.3054
22159W        W38420  15.525   9.397   0.224  0.0957  0.0980 -0.1463
22160W        W38421  12.662  17.560   3.245  0.3435  0.0325 -0.0551
22161W        W38422   5.533   9.775  13.274 -0.2404  0.0720 -0.4876
22162W        W38423  12.968   8.839  10.968 -0.2811  0.1239  0.0808
22163W        W38424  14.448  15.178   5.808  0.1846 -0.1238 -0.1437
22164W        W38425  13.807  16.290   0.776 -0.0657  0.1327  0.1326
22165W        W38426   7.644  11.982   3.729 -0.0863  0.3685 -0.1076
22166W        W38427   4.351   6.771  10.837 -0.2979  0.0403 -0.1514
22167W        W38428   7.377   4.643   3.563 -0.1277  0.1902  0.2319
22168W        W38429   6.602  15.867   3.272 -0.1905 -0.2105  0.0806
22169W        W38430   4.429   8.101   4.888 -0.2553 -0.2718 -0.2591
22170W        W38431  15.885  16.032  12.097 -0.0208  0.1140  0.0015
22171W        W38432   8.547  14.436  12.003 -0.1104 -0.1154  0.2788
22172W        W38433  15.010   6.473   1.788 -0.0201  0.0798 -0.1439
22173W        W38434   3.663   4.157   0.102  0.1348 -0.1431  0.1899
22174W        W38435  17.344  16.588   3.055 -0.0665  0.0442  0.1551
22175W        W38436  16.617   3.532  10.878  0.0508 -0.1329 -0.1686
22176W        W38437   5.285  18.396   9.494 -0.3495  0.1068 -0.3652
22177W        W38438  10.339  14.091  14.032 -0.0759 -0.2738  0.0581
22178W        W38439  11.807  14.864  14.457 -0.4846 -0.0383  0.1191
22179W        W38440   4.131  16.932  10.643  0.2311 -0.2451  0.1472
22180W        W38441   8.389   4.636   2.423  0.1435  0.1014  0.0902
22181W        W38442  17.050  13.900  13.859 -0.1006  0.0555  0.3304
22182W        W38443   1.698   8.622  14.797 -0.0515 -0.1898  0.1779
22183W        W38444  12.541   4.322  14.389  0.0494 -0.1790 -0.0522
22184W        W38445  13.076  14.684   2.257  0.2811 -0.0215  0.0276
22185W        W38446  12.050  16.691  12.454 -0.1999 -0.1646 -0.5764
22186W        W38447  18.901  16.044   4.854  0.2487  0.2016 -0.3955
22187W        W38448   3.724   5.049   2.120 -0.2020  0.2282 -0.0268
22188W        W38449  12.405   0.823   4.359  0.1582 -0.0975  0.1502
22189W        W38450  13.680  13.082  10.765  0.2561  0.0403  0.1688
22190W        W38451  18.060   3.943  10.632  0.3895  0.2020 -0.1266
22191W        W38452   0.425   5.837  10.996 -0.2626 -0.3829 -0.2470
22192W        W38453   6.311  19.185  12.376  0.3940  0.0143 -0.0764
22193W        W38454  12.699  15.882   4.873  0.1634  0.3411  0.1743
22194W        W38455   4.851   8.703  13.888 -0.3395 -0.0750 -0.1454
22195W        W38456   3.432  17.163   0.838  0.2314 -0.1863  0.1009
22196W        W38457   8.539   5.667  12.146 -0.0455  0.1545  0.1962
22197W        W38458  16.575  17.459   2.107 -0.3243 -0.0220 -0.1851
22198W        W38459  14.448   5.675   2.248 -0.0541  0.2944  0.1203
22199W        W38460  15.152   8.411   1.559 -0.1066  0.1045 -0.2196
22200W        W38461  17.225  11.174   2.151 -0.0666 -0.2687  0.4853
22201W        W38462   1.855   2.299  12.246 -0.0685 -0.1718 -0.0642
22202W        W38463  17.979  17.698   1.370 -0.2516 -0.3476  0.0872
22203W        W38464   1.867  16.845   3.462 -0.0840 -0.2228  0.5100
22204W        W38465   2.643  16.658   3.857 -0.1107  0.3333 -0.4610
22205W        W38466  13.764  17.313   0.298  0.1600  0.0625  0.3176
22206W        W38467  16.886   2.812  14.709 -0.0817  0.0333 -0.3394
22207W        W38468   9.326  13.177   1.886  0.0512  0.2220 -0.0897
22208W        W38469   4.113  14.858   0.733  0.1193 -0.1033  0.0451
22209W        W38470   8.592   8.876   0.574 -0.1724  0.0252 -0.0047
22210W        W38471  13.364  18.487  12.620 -0.1270 -0.1745  0.0657
22211W        W38472   7.500  14.009   2.683  0.0470  0.3048  0.0172
22212W        W38473   8.966  17.682   2.040 -0.2056  0.0551  0.1072
22213W        W38474   1.556   6.440   4.053  0.0604  0.1816 -0.4648
22214W        W38475   9.754   8.148  10.950  0.0690 -0.1683 -0.2888
22215W        W38476  16.609   5.641   3.448  0.4273 -0.3356 -0.0025
22216W        W38477   9.363   2.142   9.620 -0.0420  0.4045  0.2097
22217W        W38478  12.544   1.581  12.626 -0.1392 -0.2604  0.0976
22218W        W38479  19.006  14.047  12.197  0.1681  0.1528  0.3500
22219W        W38480   6.972   9.989   4.967 -0.2425  0.2231 -0.1550
22220W        W38481   1.872  13.286  13.326  0.2944  0.0720 -0.2098
22221W        W38482   0.371   5.442   1.949  0.1005  0.0833 -0.1786
22222W        W38483   8.397   2.630   2.487  0.0574 -0.5236 -0.1351
22223W        W38484   4.505  16.183  11.780  0.0798  0.3228 -0.3051
22224W        W38485   7.741   5.731  10.689 -0.2837 -0.2731  0.2119
22225W        W38486  14.947  14.795  14.782  0.2223 -0.2687  0.0037
22226W        W38487  14.460   5.148   2.053 -0.1464  0.1621  0.0825
22227W        W38488  15.371  10.223  12.427 -0.3719  0.1667  0.3406
22228W        W38489  18.773  18.115   2.804  0.1189 -0.0967  0.1323
22229W        W38490   5.012  18.052   9.268 -0.1950 -0.0256 -0.0047
22230W        W38491   4.540   2.284   0.523 -0.1762  0.0213 -0.1046
22231W        W38492  10.348  16.031  10.977  0.1187  0.2070  0.0108
22232W        W38493  16.670  18.715   0.236 -0.0473 -0.0765  0.0989
22233W        W38494  16.377  11.574  11.948 -0.0188 -0.1261  0.0926
22234W        W38495   7.388  10.873  14.483  0.1764  0.2279  0.0774
22235W        W38496   3.722  13.490   2.247 -0.1075 -0.1773 -0.0126
22236W        W38497   4.579  16.636  11.971 -0.0262  0.1910  0.1707
22237W        W38498  13.251  12.669  13.745  0.2364  0.2432  0.1345
22238W        W38499   3.522   3.021   9.479  0.0559  0.1947 -0.2196
22239W        W38500  11.641  16.433  10.794  0.2658 -0.2109  0.2098
22240W        W38501  11.654  12.565   5.823 -0.1255 -0.3970  0.2052
22241W        W38502   4.390  19.158  14.001 -0.0337  0.2428 -0.2096
22242W        W38503   3.835  12.299   4.726  0.0394 -0.5098  0.1190
22243W        W38504  14.032  12.803  12.831  0.1397 -0.0171  0.2407
22244W        W38505  14.934   5.502   3.619  0.0435 -0.1301  0.0506
22245W        W38506  15.654   6.274   5.004  0.0145  0.0309  0.1558
22246W        W38507  12.775   4.933   3.103  0.0305 -0.0548  0.0749
22247W        W38508   3.313   3.400   2.584 -0.1186  0.0032  0.0764
22248W        W38509  10.215  16.854   2.571  0.3280  0.4030  0.0752
22249W        W38510   2.807  13.410   1.425 -0.0600 -0.1099  0.2726
22250W        W38511  11.549   7.046  10.290 -0.3762  0.1407  0.1279
22251W        W38512  11.304   0.590   0.479 -0.1998 -0.3740  0.1535
22252W        W38513  18.938   0.894  12.624  0.2107 -0.3332 -0.0757
22253W        W38514   6.478   7.004  13.118 -0.0150  0.1892 -0.1858
22254W        W38515  17.340  19.280  10.806  0.3530 -0.0483 -0.2418
22255W        W38516  13.142  14.033   4.523  0.4472  0.0285  0.0382
22256W        W38517  13.186  13.735  14.508  0.0117 -0.1253 -0.2782
22257W        W38518  14.936  11.508  10.601 -0.3049  0.0462  0.0826
22258W        W38519   2.750  14.376   5.752  0.0424 -0.0199  0.0670
22259W        W38520   7.418  19.470  12.722  0.0144  0.3623 -0.5359
22260W        W38521   7.750   4.415   9.862  0.1726  0.2083 -0.1227
22261W        W38522   8.379  15.929   3.636  0.1275  0.1564  0.2186
22262W        W38523   3.189   8.224  10.241 -0.1258  0.0829 -0.1971
22263W        W38524   5.572   7.444   2.905  0.2690 -0.1271 -0.0788
22264W        W38525  18.878  16.279   0.639 -0.2347  0.2557  0.5841
22265W        W38526   5.717  14.726  10.298  0.1142  0.0767 -0.3430
22266W        W38527  18.533  13.669  13.470 -0.1146 -0.1428 -0.0421
22267W        W38528  18.620   4.508   0.044  0.0698  0.2708  0.2121
22268W        W38529  14.382  13.856   0.997  0.0144 -0.0287  0.4483
22269W        W38530  19.035   3.360  14.173 -0.2731 -0.1333  0.1554
22270W        W38531   6.966   8.270  13.863  0.3288  0.0147  0.1977
22271W        W38532  12.169   0.440   3.357  0.0138 -0.0634 -0.1755
22272W        W38533  11.618   1.358  14.190 -0.3712  0.2106 -0.0657
22273W        W38534   2.700   7.516  12.977  0.0180  0.2967  0.1354
22274W        W38535  14.580   9.601   1.776  0.3288 -0.0037  0.1450
22275W        W38536   3.963  12.160  11.332  0.4046  0.1504  0.1468
22276W        W38537   7.129   6.347  10.727  0.1199 -0.0371  0.0119
22277W        W38538   3.933  15.260  11.317 -0.2565  0.0238 -0.0510
22278W        W38539  17.481  12.772   2.445  0.3659  0.1597  0.2719
22279W        W38540   4.453   3.948  11.146 -0.0225 -0.1839 -0.2978
22280W        W38541   3.679   8.900   0.088  0.0422  0.1799 -0.0814
22281W        W38542  17.784  10.926  12.263  0.1667 -0.1555 -0.0577
22282W        W38543   0.176  10.858  12.096 -0.2623  0.0232  0.0180
22283W        W38544   5.306   6.763   4.102  0.1476  0.0635  0.1602
22284W        W38545   9.496  18.774   4.457 -0.0281 -0.1499  0.2027
22285W        W38546  17.242   1.884  14.662  0.2752  0.2046 -0.2789
22286W        W38547  14.405   5.452  10.041 -0.0626  0.0790 -0.0822
22287W        W38548   9.165   0.966   2.128  0.2537  0.1049  0.0149
22288W        W38549  13.957   9.881  14.006  0.2156  0.2252  0.4120
22289W        W38550   4.507   3.815   3.181  0.0507  0.3037 -0.3868
22290W        W38551   0.476  16.282   1.308  0.1582 -0.1876  0.1041
22291W        W38552   1.014  12.470   2.990 -0.0685 -0.1898  0.2033
22292W        W38553  13.283  18.879   3.259 -0.1305 -0.0833  0.1321
22293W        W38554  11.376   3.555  12.208  0.0618  0.0681 -0.2993
22294W        W38555   7.240  10.629  14.040 -0.2323  0.0136 -0.1865
22295W        W38556   5.621  16.139  11.505  0.2388  0.0365  0.0259
22296W        W38557   9.301   1.417   0.552  0.2939  0.0652 -0.1624
22297W        W38558   2.859   8.457   0.072 -0.3217  0.0683  0.1378
22298W        W38559   0.849  19.373  10.984 -0.0346 -0.0883  0.2570
22299W        W38560   8.653   2.258   1.220 -0.0464 -0.0659 -0.2560
22300W        W38561  14.215  16.656   5.169  0.1249 -0.1322  0.0955
22301W        W38562   9.016  14.070  11.530 -0.1767  0.0034  0.1428
22302W        W38563   5.798   1.968   1.669  0.1182 -0.0563 -0.1528
22303W        W38564  10.014  15.736  10.761  0.0839 -0.2033  0.0775
22304W        W38565  11.161   4.849  12.897 -0.3531 -0.0438  0.0168
22305W        W38566   7.106   9.208   3.830  0.1951 -0.1425 -0.1033
22306W        W38567   8.319  13.683   2.597 -0.3281 -0.2541 -0.0202
22307W        W38568   1.858  19.009   1.573  0.1624 -0.1793 -0.0377
22308W        W38569  13.349   6.326   2.997  0.2582  0.0966 -0.3091
22309W        W38570   5.330   6.786  13.533  0.0130 -0.0759 -0.1099
22310W        W38571   7.952   6.121   3.081  0.0135 -0.1534 -0.3174
22311W        W38572   6.579   4.629   2.316 -0.2403  0.2129  0.3653
22312W        W38573  12.569   2.080   2.435  0.1079  0.1725 -0.0455
22313W        W38574   4.026   9.330  13.582 -0.0507  0.1469 -0.0141
22314W        W38575  14.996   3.773  11.023 -0.1349  0.0845 -0.0197
22315W        W38576   7.484  15.276   3.896 -0.1476 -0.0523 -0.1408
22316W        W38577  18.060  15.958   1.112 -0.2498  0.2236  0.0344
22317W        W38578  13.916  19.415  13.290  0.2852  0.0658  0.2771
22318W        W38579  13.691  15.445   4.139  0.0435 -0.2989 -0.4047
22319W        W38580  14.853  11.097   2.166  0.0734  0.2073 -0.0535
22320W        W38581  15.762  18.942   4.102  0.1848 -0.0089  0.2398
22321W        W38582   1.052   2.889  11.865  0.2457 -0.0057  0.1563
22322W        W38583   1.775  19.108   5.190  0.2733 -0.0341  0.0915
22323W        W38584  13.770  14.606   4.012 -0.0444  0.0196  0.5682
22324W        W38585   8.568  12.891   3.321 -0.0328  0.1780 -0.1479
22325W        W38586  10.619   4.107   9.606  0.3390  0.0214  0.0854
22326W        W38587  15.757  13.821  11.663 -0.0024 -0.1416 -0.0951
22327W        W38588  12.759   8.373   2.570 -0.1568  0.1544 -0.1417
22328W        W38589   8.335   6.641  10.638 -0.2327 -0.3784 -0.1292
22329W        W38590   3.553   1.959  10.877  0.0146 -0.0254  0.2925
22330W        W38591   6.557   4.507  12.360  0.1451  0.2699 -0.2439
22331W        W38592   4.076  14.224   2.728 -0.2183 -0.0676  0.3228
22332W        W38593  10.773  11.095   3.553  0.1555 -0.1219 -0.1520
22333W        W38594  11.474  16.264  12.966  0.1578 -0.0643 -0.1818
22334W        W38595  17.566  12.328   3.816  0.1368 -0.0811 -0.1348
22335W        W38596  11.969   6.987  14.339  0.2329 -0.0091  0.1837
22336W        W38597   6.350   8.581   3.772 -0.3258 -0.0022  0.0253
22337W        W38598   4.816  13.460  11.767  0.1223 -0.0016 -0.2039
22338W        W38599   3.250   2.634  14.235 -0.0278  0.2045  0.0657
22339W        W38600  15.685   8.893   9.294 -0.0785  0.3162 -0.1058
22340W        W38601   4.808  17.466   3.464 -0.1525  0.3269  0.1748
22341W        W38602   3.458  12.280  13.749 -0.1828 -0.1569  0.1822
22342W        W38603   2.458   0.741   0.399  0.1639 -0.0469 -0.1872
22343W        W38604  13.610  17.897   4.612 -0.2775 -0.1693 -0.3381
22344W        W38605  15.739   5.410  11.244 -0.1149 -0.1132  0.2214
22345W        W38606  15.509  12.622  13.029 -0.1257  0.5100  0.4025
22346W        W38607  14.769  12.011  14.662 -0.1445  0.0492  0.0932
22347W        W38608   8.754   5.225  10.854 -0.0181 -0.1464  0.2945
22348W        W38609   4.263  16.411   2.554 -0.2270  0.2065  0.3332
22349W        W38610   6.783   5.785  10.611 -0.0516  0.0691 -0.2178
22350W        W38611  19.169   9.393  12.546 -0.0114 -0.0100  0.2172
22351W        W38612  17.014   4.168  13.947 -0.2858 -0.0233 -0.2355
22352W        W38613   5.938  15.527  14.158  0.0059  0.3660 -0.2705
22353W        W38614  16.269   7.725   4.880  0.3917  0.1645 -0.0219
22354W        W38615  17.689   8.416   0.307 -0.0821 -0.0022 -0.2001
22355W        W38616  19.396   4.239  14.468 -0.0209 -0.0253  0.0551
22356W        W38617  15.728   9.383   1.340  0.0495  0.2928  0.0288
22357W        W38618  13.290  17.785  10.765  0.2149 -0.0690 -0.0706
22358W        W38619   2.865  10.125   4.516  0.2955 -0.3615 -0.0160
22359W        W38620   2.397  10.410  12.798 -0.2548 -0.1394  0.0179
22360W        W38621   8.816  13.070   4.149 -0.1699 -0.2930 -0.0148
22361W        W38622   5.631  17.324  11.561 -0.2378  0.1349  0.2468
22362W        W38623   7.962   7.706   4.752 -0.4190  0.0362  0.2660
22363W        W38624  11.332   1.841  12.963 -0.1321 -0.1405 -0.1524
22364W        W38625   1.057  17.786   4.390 -0.0741 -0.0574  0.2174
22365W        W38626  17.657   5.810  13.202 -0.1335 -0.0598  0.0396
22366W        W38627  10.197  14.248   5.216 -0.0533 -0.1014  0.0216
22367W        W38628  11.168  15.719   1.995 -0.2428  0.0468  0.0842
22368W        W38629  18.618   0.571   2.331 -0.0023  0.3094 -0.2921
22369W        W38630   7.254   7.834   8.974  0.1255 -0.1774  0.2101
22370W        W38631  17.670  14.851   0.631  0.2448 -0.1135 -0.2279
22371W        W38632  13.033   8.629   1.490 -0.2358 -0.0534 -0.0741
22372W        W38633  15.171  13.506   3.219  0.0389  0.0509 -0.2897
22373W        W38634  15.903   2.563   3.581 -0.2017 -0.1886 -0.1318
22374W        W38635  18.262  14.800  10.253  0.1229 -0.3002 -0.4141
22375W        W38636  19.111   8.021   4.386 -0.3305 -0.0610 -0.1602
22376W        W38637  16.533   7.405   4.645 -0.2247 -0.1826 -0.1096
22377W        W38638   3.640   3.802   1.854 -0.2426  0.0577 -0.0078
22378W        W38639  16.872  12.408  12.714 -0.1696 -0.2082  0.0321
22379W        W38640  14.226  11.484   0.476 -0.1626 -0.0201 -0.2272
22380W        W38641   7.263   4.476  11.886 -0.3533 -0.1489  0.1493
22381W        W38642  16.108   7.154  12.582  0.3368  0.0010 -0.0141
22382W        W38643   6.156  13.818  12.405  0.1413 -0.1399 -0.1231
22383W        W38644  14.161   4.532  10.991 -0.0145 -0.0151 -0.0837
22384W        W38645  17.674  11.317   2.581 -0.1892 -0.0316 -0.4579
22385W        W38646  19.425  11.597  13.454  0.1920  0.0514  0.2064
22386W        W38647   0.985   5.625  13.225 -0.1879 -0.3048  0.2686
22387W        W38648  13.838   5.736   3.827  0.3011  0.2632 -0.1600
22388W        W38649   1.019  15.707  14.569 -0.1207 -0.0341  0.2989
22389W        W38650   9.013   3.323   3.775  0.0219 -0.0701  0.2095
22390W        W38651   9.137  10.610  13.356 -0.2578 -0.0675 -0.2912
22391W        W38652   0.296   3.692  11.381 -0.0097 -0.1631 -0.0673
22392W        W38653   5.152   6.381   3.441 -0.0135  0.1765 -0.4224
22393W        W38654  12.673  13.736  14.439  0.0023  0.1263  0.1631
22394W        W38655  18.592  14.830  12.032 -0.2594  0.2218 -0.1026
22395W        W38656   3.099   8.979  11.548 -0.2227  0.0591 -0.1249
22396W        W38657  16.864   1.411  10.914  0.1716  0.0429 -0.0302
22397W        W38658  12.199   9.549   5.293  0.3831  0.0413  0.1317
22398W        W38659  10.376   6.044  10.609  0.0704  0.0009 -0.2574
22399W        W38660  13.666   5.313   1.072 -0.0688 -0.0802  0.3255
22400W        W38661  14.616   3.122  12.532 -0.1724 -0.0779 -0.2315
22401W        W38662  16.044   7.131   2.555 -0.1714 -0.0724  0.0290
22402W        W38663  16.593  10.029   1.344  0.0127 -0.2369 -0.0576
22403W        W38664  12.783   9.540  14.410 -0.1358 -0.1971 -0.0682
22404W        W38665  10.521  13.605   1.240 -0.2742 -0.2944  0.3285
22405W        W38666  16.030   2.733  10.600  0.0414  0.0498  0.0652
22406W        W38667  15.641  13.672   0.475  0.0707 -0.1449 -0.1042
22407W        W38668   9.288  12.977  12.426  0.2128  0.1285  0.1691
22408W        W38669  10.903   9.493  14.316  0.2014  0.1876 -0.2144
22409W        W38670  12.379   7.089   3.532 -0.2699  0.0672 -0.2673
22410W        W38671  11.597   5.202   2.627 -0.4942 -0.0877 -0.1744
22411W        W38672  17.846   5.209   3.692  0.1712 -0.3451 -0.2274
22412W        W38673  16.699   6.384  10.966 -0.2254 -0.2175 -0.0987
22413W        W38674   9.844   2.232   5.100  0.3326  0.1030  0.0366
22414W        W38675  10.801   0.354  14.486  0.1289  0.0344  0.2287
22415W        W38676   5.609  15.068  10.622 -0.0722  0.1470 -0.2311
22416W        W38677   6.270   0.589   4.147 -0.3094  0.1471  0.1923
22417W        W38678   0.591  13.294  14.441 -0.0441 -0.1594  0.2246
22418W        W38679   0.976   9.607  14.564 -0.3433 -0.0877 -0.3155
22419W        W38680   5.720   0.143   4.452 -0.2929  0.2462  0.2035
22420W        W38681   0.615   6.128  10.029 -0.1909 -0.0375  0.4652
22421W        W38682  19.248   0.931   4.722  0.2193 -0.0776 -0.3209
22422W        W38683   9.404   1.111  12.058  0.0000  0.3728  0.0139
22423W        W38684  16.867  19.070   3.787  0.1013 -0.0020  0.0299
22424W        W38685  18.883   3.820   3.722  0.0072 -0.0928 -0.1700
22425W        W38686   5.285  10.859   1.711  0.2067 -0.6410  0.1868
22426W        W38687   4.495  17.362   0.281 -0.1342  0.1012 -0.0540
22427W        W38688  13.844   0.813   0.730 -0.0751  0.1452 -0.2043
22428W        W38689  15.497  14.786   2.754  0.0351  0.1963 -0.2423
22429W        W38690   5.147   5.694   4.201 -0.5910  0.2536 -0.3949
22430W        W38691   5.831  16.159   4.799  0.1324  0.1267 -0.1875
22431W        W38692  14.767   6.113  13.837 -0.2877 -0.0580 -0.2576
22432W        W38693  18.708  13.693   4.927 -0.1243 -0.1003 -0.0735
22433W        W38694  19.365  14.330   5.804  0.1536 -0.0436  0.0740
22434W        W38695   4.758  17.160  11.155 -0.3243 -0.3331  0.0410
22435W        W38696   5.657   8.131  11.529 -0.0950 -0.1031 -0.0617
22436W        W38697  15.059  12.505   3.349  0.1280  0.1529  0.3110
22437W        W38698   7.286   8.449   4.147  0.0223  0.0455 -0.2095
22438W        W38699  10.961  10.590  11.012  0.0697 -0.1273  0.0579
22439W        W38700   4.350   4.941  13.909  0.2557 -0.3422  0.0234
22440W        W38701   5.559  18.180  13.295 -0.1636 -0.0379  0.0104
22441W        W38702   5.763   3.847  14.649  0.1210  0.2629  0.0194
22442W        W38703  15.097   6.178   0.766 -0.5503 -0.0460  0.0039
22443W        W38704   6.914  15.463   4.579 -0.2340  0.1921  0.2351
22444W        W38705  16.859  14.070   2.786 -0.0869 -0.1350 -0.3323
22445W        W38706   7.253  15.273  14.598 -0.0515  0.1472 -0.4459
22446W        W38707  14.101  14.350   4.870 -0.1021  0.0523 -0.1947
22447W        W38708   1.419   9.690   4.139  0.1723  0.1364 -0.0083
22448W        W38709  18.528  15.752   0.346  0.1623 -0.0267 -0.1182
22449W        W38710   6.854  11.394  13.964 -0.0890  0.1011 -0.1477
22450W        W38711  14.526   6.951  13.982 -0.0017 -0.1686  0.1178
22451W        W38712   3.262   2.866   4.531 -0.1130 -0.0697  0.2790
22452W        W38713   2.711   9.268  14.652 -0.3511 -0.2474  0.1065
22453W        W38714  10.492   7.129  11.693 -0.3627 -0.0333 -0.0502
22454W        W38715  18.140   2.409  12.073  0.1854  0.0980  0.1533
22455W        W38716   7.741   2.046  10.490 -0.0308  0.0782 -0.2833
22456W        W38717   1.588   4.047  14.680 -0.1756  0.0463  0.1114
22457W        W38718  19.455  15.529  14.107 -0.1980 -0.2831  0.0036
22458W        W38719  16.261   7.112  10.923 -0.2700 -0.1153  0.1729
22459W        W38720   8.644  12.185  12.519 -0.1150  0.4962 -0.1613
22460W        W38721  10.186   2.578   2.768 -0.1903 -0.1152 -0.1163
22461W        W38722  14.726   4.042  14.501  0.6177 -0.1528  0.2301
22462W        W38723   0.424   2.060  12.798  0.1384 -0.2088  0.0321
22463W        W38724  16.723  13.414  10.675  0.2667  0.0428 -0.0269
22464W        W38725   9.164  12.050  11.540 -0.3348  0.0399 -0.2478
22465W        W38726   4.282  18.310  13.617  0.1109 -0.0420 -0.1215
22466W        W38727  11.575  13.375   5.832  0.1033  0.1083  0.0756
22467W        W38728  10.806   8.703   0.080  0.0455 -0.3525  0.0113
22468W        W38729   3.101   9.591  13.735 -0.0614 -0.2230 -0.0310
22469W        W38730   0.532   5.079   3.185 -0.0221  0.2202 -0.0135
22470W        W38731   1.119   5.680   1.769 -0.3765  0.1010  0.2267
22471W        W38732  10.333   1.301  12.364 -0.1064  0.2775 -0.2092
22472W        W38733  16.967   2.232  11.133 -0.0378  0.1711  0.2369
22473W        W38734  10.902   6.310   4.547 -0.0854  0.3090 -0.0491
22474W        W38735  13.462  19.183   0.572 -0.2808  0.0420 -0.3944
22475W        W38736  10.288   3.907  12.893 -0.0080  0.0007 -0.1439
22476W        W38737  14.606  17.317   5.206 -0.1806 -0.1090  0.0361
22477W        W38738   6.237  18.000   4.894  0.2124  0.2008 -0.1080
22478W        W38739   0.561  17.643   5.553  0.1770 -0.1194  0.0511
22479W        W38740   6.160   8.127   1.247 -0.2703  0.0662  0.0149
22480W        W38741  11.013  13.862   4.451 -0.0039 -0.2768 -0.3279
22481W        W38742  16.778  13.738   3.303 -0.0517 -0.0452 -0.2405
22482W        W38743   3.327   0.825  10.031  0.0319  0.4703 -0.1960
22483W        W38744  14.485   4.089  10.479  0.1475 -0.2680 -0.1534
22484W        W38745  11.863   4.489  12.138  0.0340 -0.0458  0.0495
22485W        W38746  15.020   6.885  14.067 -0.0016  0.3362  0.1296
22486W        W38747   3.363  16.789  11.918  0.4781  0.0511  0.3302
22487W        W38748  15.710   8.099   2.554 -0.4029  0.2357 -0.0869
22488W        W38749   5.230  17.367  11.273 -0.2337  0.1385  0.1591
22489W        W38750   4.952   7.812  11.680  0.2725 -0.3101 -0.0345
22490W        W38751  14.800  10.931  14.497 -0.1136 -0.1271 -0.1732
22491W        W38752   5.835   1.458   2.463  0.1932 -0.0400  0.2332
22492W        W38753   4.282   2.615   0.809 -0.2032  0.1444 -0.0867
22493W        W38754   9.928   4.295   1.541 -0.1570  0.1363  0.0647
22494W        W38755   2.942   9.171   0.274 -0.1119 -0.2994 -0.1578
22495W        W38756   0.994  12.261  13.385  0.1277  0.1168  0.2034
22496W        W38757   2.625  15.773   3.711 -0.5188  0.0252  0.1995
22497W        W38758   6.685   5.314  14.692 -0.2402 -0.0107  0.0783
22498W        W38759  15.770   7.177  14.494 -0.0405 -0.3570  0.1593
22499W        W38760   5.457   5.443   4.511 -0.1183  0.2389 -0.0782
22500W        W38761   7.278   1.595  13.534 -0.1675  0.1752 -0.1957
22501W        W38762  12.375  17.562   1.508 -0.0387 -0.2872  0.0521
22502W        W38763   6.377   3.891  14.609  0.0707 -0.0862 -0.0122
22503W        W38764  12.037   2.244   2.145  0.2927  0.1591 -0.1579
22504W        W38765   5.709  17.963   1.908 -0.1656 -0.0782  0.2366
22505W        W38766   2.997  13.831   1.576 -0.1005 -0.0169 -0.0378
22506W        W38767  18.188  13.108   4.507  0.2916  0.1070  0.2864
22507W        W38768   7.290   5.261   9.597 -0.0310 -0.0139 -0.1102
22508W        W38769  11.495   2.241   4.980 -0.2008 -0.2393  0.4789
22509W        W38770  11.088  12.819   3.596  0.2785 -0.0710 -0.0755
22510W        W38771  17.686  13.338  13.274 -0.2798  0.1352  0.2039
22511W        W38772  13.808  11.599  10.879 -0.1234  0.1472 -0.0178
22512W        W38773  14.907   4.169  11.399 -0.2178  0.0316  0.0093
22513W        W38774  13.814   3.761   3.218  0.1251  0.0001 -0.4165
22514W        W38775   7.804  18.041   0.546  0.2906 -0.0564  0.3468
22515W        W38776  15.622   7.739  11.849 -0.1211 -0.1396  0.0944
22516W        W38777  16.010   0.706   4.244  0.0161  0.2249 -0.3869
22517W        W38778  11.471   2.443   5.610 -0.0734 -0.0340 -0.1579
22518W        W38779   7.097  13.023   0.382 -0.1912  0.1937  0.0269
22519W        W38780  17.913   0.906  13.835  0.2961  0.3437  0.0054
22520W        W38781   3.092   2.444   3.041 -0.0095  0.2114  0.1143
22521W        W38782  16.747  18.520  12.530  0.2642 -0.1853  0.1644
22522W        W38783   3.716  10.649  11.800 -0.1715  0.2034  0.0228
22523W        W38784   3.966   3.223   9.537 -0.0137  0.0099 -0.0694
22524W        W38785  10.234   3.683  11.072 -0.1455  0.2030 -0.0337
22525W        W38786  16.255  17.254  13.951  0.1188  0.1173  0.0012
22526W        W38787  19.208   9.412  10.040 -0.1871  0.0769  0.1205
22527W        W38788   7.404  12.748   4.509 -0.2002 -0.1062 -0.2640
22528W        W38789  16.406   4.063   4.837  0.1201  0.0428 -0.4711
22529W        W38790   4.964   7.513  12.665  0.0785  0.0921  0.4747
22530W        W38791   5.763   9.684  11.418  0.1851  0.1277  0.3352
22531W        W38792  13.987   4.669   3.279  0.0340  0.3620  0.1965
22532W        W38793  13.733   4.451   5.245 -0.0848 -0.0660 -0.4139
22533W        W38794  16.879  10.718   5.180 -0.5497  0.1819 -0.1493
22534W        W38795   3.402   7.287  11.307 -0.0610 -0.1030 -0.1275
22535W        W38796  14.789   6.452  14.185 -0.1826 -0.0114  0.0345
22536W        W38797  19.384  14.118   1.015 -0.2153 -0.1108  0.1617
22537W        W38798   8.988   3.489  13.175 -0.1123  0.0902  0.3281
22538W        W38799   6.461  18.505  11.223 -0.0977 -0.1306  0.0666
22539W        W38800   1.762   6.570  14.691  0.1439  0.0968  0.0709
22540W        W38801  14.329   3.509   0.529  0.0258  0.1560 -0.0780
22541W        W38802  14.590   9.406  12.924  0.0787 -0.1215  0.0109
22542W        W38803  15.686  11.269   0.402 -0.1113  0.1375 -0.1612
22543W        W38804   2.029   2.728   3.478  0.0185 -0.2207  0.1862
22544W        W38805  10.165   0.431  11.974 -0.1813 -0.1302 -0.1739
22545W        W38806  17.128  14.320  10.649 -0.1752  0.1756 -0.2758
22546W        W38807   1.994   5.598  12.955  0.1426  0.1057  0.2317
22547W        W38808   6.806  11.257   0.545  0.2071 -0.1378  0.2546
22548W        W38809  12.737   1.394   0.346  0.1130 -0.1098 -0.2602
22549W        W38810   9.042   2.349  10.882  0.4046 -0.0011 -0.1194
22550W        W38811   3.932   3.781  11.119  0.0800 -0.1761  0.3065
22551W        W38812  18.570   5.112  10.253 -0.3165 -0.0622 -0.2779
22552W        W38813   0.201  18.902   0.388 -0.1340 -0.1228 -0.1883
22553W        W38814   3.384   2.995   1.833  0.1640  0.0256 -0.2196
22554W        W38815   5.067   1.573   2.034  0.0421 -0.0078 -0.3330
22555W        W38816  13.864  17.099   4.071 -0.2991 -0.1483 -0.1894
22556W        W38817  16.917  10.515   1.707 -0.2762  0.0479  0.1980
22557W        W38818  16.843   4.073  13.055 -0.0801 -0.1345  0.1775
22558W        W38819  13.420  13.396   1.400  0.0502  0.0711 -0.0609
22559W        W38820  16.761  12.345   0.732 -0.3550  0.1647 -0.0175
22560W        W38821   2.033   6.124  12.199  0.0942 -0.0726 -0.1355
22561W        W38822  16.173  18.070   9.984 -0.2970  0.0735 -0.0163
22562W        W38823   5.810   0.861   9.715 -0.1575  0.0138  0.2178
22563W        W38824  17.353  14.552  14.515  0.1346 -0.0399 -0.0999
22564W        W38825   3.007  14.261   4.905 -0.2881 -0.0672  0.0639
22565W        W38826  19.290  13.052   2.849  0.2483  0.1555 -0.0256
22566W        W38827   8.866  18.412  13.101  0.1449 -0.4250 -0.0361
22567W        W38828   9.713  12.218  12.866 -0.3320  0.3142 -0.0322
22568W        W38829  17.737  14.116   2.327  0.0008  0.1978  0.1306
22569W        W38830   4.343  17.453   2.219  0.1564 -0.0084  0.0654
22570W        W38831   5.363  16.745  12.715  0.5376  0.0851 -0.1912
22571W        W38832   6.640  10.044  14.234  0.0034 -0.0225 -0.2014
22572W        W38833   0.717  18.075   0.243  0.0306  0.3089 -0.3206
22573W        W38834  15.497  15.922   4.392  0.2553  0.0262  0.0440
22574W        W38835   1.245   2.648  13.150 -0.0615  0.2352 -0.0683
22575W        W38836  14.221   5.767  10.469 -0.1682  0.0004 -0.1189
22576W        W38837  16.342  11.367   3.175  0.2016 -0.0878 -0.2023
22577W        W38838   9.363  14.768  14.154 -0.3115  0.1081 -0.3768
22578W        W38839  16.848   7.885   1.085 -0.2175  0.1486 -0.3116
22579W        W38840  17.688   4.661   0.476 -0.0829  0.1649 -0.0525
22580W        W38841  14.261  13.621   2.812 -0.1920 -0.3485 -0.0424
22581W        W38842  11.969  10.300  13.495 -0.2372 -0.0888 -0.1478
22582W        W38843  10.570   6.378   1.331  0.0984 -0.0928 -0.0827
22583W        W38844  10.221  12.400  11.656  0.1099 -0.0998  0.2882
22584W        W38845   4.598   5.575  10.923 -0.2568 -0.1021 -0.1088
22585W        W38846   6.626  13.145  14.225 -0.2867  0.4162 -0.2980
22586W        W38847  16.215  18.154  12.206  0.0001  0.1779 -0.1862
22587W        W38848   0.476   8.064  14.805 -0.1535 -0.2562  0.0034
22588W        W38849   6.661   8.516  12.563  0.1837  0.0514 -0.1469
22589W        W38850  14.161   6.564   0.013  0.1901 -0.0543  0.0069
22590W        W38851  11.563   9.780  13.610  0.2868  0.4513 -0.0554
22591W        W38852   5.925  15.827   1.264  0.1768 -0.0821  0.0287
22592W        W38853  14.407   6.643   4.602 -0.1093  0.2823 -0.3328
22593W        W38854   4.601   9.712   9.910 -0.4942 -0.1168  0.0404
22594W        W38855   6.002   9.270   2.829 -0.0115 -0.2210  0.2813
22595W        W38856   0.414   1.684  13.916 -0.0064 -0.1969 -0.2033
22596W        W38857  15.978  16.999   0.997  0.0522 -0.1039  0.3933
22597W        W38858   7.137  13.217  13.922  0.0636 -0.3039 -0.1659
22598W        W38859   9.502   7.988   3.640 -0.3273 -0.1832 -0.2125
22599W        W38860   1.054  19.043   3.666  0.4281  0.3302 -0.0953
22600W        W38861  13.778  12.886   3.906  0.4795  0.3750  0.1115
22601W        W38862  15.763  11.411  11.458 -0.5694  0.0721  0.0518
22602W        W38863   9.429  16.358  11.124 -0.2633  0.0789 -0.0559
22603W        W38864  18.354  17.556  14.566 -0.1130 -0.2029 -0.0762
22604W        W38865   3.273   9.393   1.964  0.0121  0.4455 -0.0758
22605W        W38866   8.355  13.470  13.216  0.0599  0.0358  0.0745
22606W        W38867  14.983  11.290   0.030 -0.0783  0.5008  0.1348
22607W        W38868  16.147  17.532   1.867  0.1101  0.3529 -0.0875
22608W        W38869   3.033  16.560  12.505 -0.0117  0.2169  0.1195
22609W        W38870  14.159   1.233  14.632 -0.0130  0.0042  0.0412
22610W        W38871   0.204  14.505  14.058  0.1219  0.3263  0.1062
22611W        W38872  18.337  14.518  14.262 -0.0131 -0.2085 -0.4002
22612W        W38873   6.768  19.319   2.448  0.0355 -0.0256  0.2534
22613W        W38874   5.083   7.153   1.237 -0.1776 -0.4927 -0.1058
22614W        W38875  18.025   0.423  12.675  0.2745  0.4367 -0.2075
22615W        W38876   4.045   5.255  12.466  0.1431  0.1202  0.1883
22616W        W38877  15.279  14.213   3.370 -0.0088 -0.0877  0.0503
22617W        W38878   3.958  18.406  12.247 -0.0260 -0.1152  0.0748
22618W        W38879   3.431  16.925  13.962 -0.2692 -0.1374 -0.0737
22619W        W38880   5.570   5.600  10.226 -0.4603 -0.3433  0.2689
22620W        W38881   2.367  13.867   3.678 -0.1279 -0.0819 -0.0405
22621W        W38882   0.678   1.968  13.608 -0.1462  0.0411  0.0205
22622W        W38883  16.190  12.514   0.996  0.2718 -0.1054  0.0848
22623W        W38884   4.453  17.942   3.246  0.0319 -0.0947  0.1047
22624W        W38885   5.490   0.081  11.774  0.0083 -0.0897  0.1227
22625W        W38886   8.556  16.283   4.667  0.2979 -0.0069  0.0100
22626W        W38887  15.862  11.406  13.759 -0.0102  0.0857 -0.4039
22627W        W38888  12.141  10.667   3.958 -0.2242  0.1523  0.2358
22628W        W38889   4.293   1.333   2.667 -0.2406 -0.1422  0.0871
22629W        W38890  10.150  16.987   1.485  0.1531  0.1940 -0.2955
22630W        W38891  18.513  16.555   5.036  0.2259 -0.4514  0.1080
22631W        W38892  14.292  10.276   3.935 -0.1710 -0.0589 -0.2176
22632W        W38893   6.056  18.914   2.002  0.2751  0.0871 -0.0907
22633W        W38894   0.056  19.234  14.140 -0.1451  0.0071  0.3401
22634W        W38895  12.042   3.593  12.733 -0.0457 -0.0902  0.2144
22635W        W38896   7.526  14.535  10.341  0.1360 -0.3447 -0.3565
22636W        W38897  12.888  16.792   1.255 -0.0140  0.1560 -0.0304
22637W        W38898   3.778   2.239   9.947  0.1109 -0.0461 -0.2037
22638W        W38899  12.614   9.549   4.280 -0.0454  0.2057 -0.1331
22639W        W38900   9.658   1.518  13.737  0.1584 -0.1425  0.3330
22640W        W38901   3.330   4.042  14.075 -0.0958 -0.1459 -0.1424
22641W        W38902  11.417  10.972  11.287 -0.0615  0.4313  0.0670
22642W        W38903  16.538  17.991  13.168 -0.0175  0.1227  0.1461
22643W        W38904   0.411  13.815  12.604  0.1023 -0.0412  0.3787
22644W        W38905  17.246   8.497   2.547 -0.4559  0.2647  0.1211
22645W        W38906  19.353   9.601   1.692  0.0391  0.1088  0.0178
22646W        W38907   8.952   1.156  14.478 -0.1216 -0.1816  0.0475
22647W        W38908  10.551  18.144   0.919  0.2225 -0.0394  0.1329
22648W        W38909   0.547  14.609   3.569  0.2486  0.1417 -0.1321
22649W        W38910   1.776  15.904   1.213  0.2647 -0.0012 -0.2586
22650W        W38911  13.346  11.660   0.862 -0.0475  0.1594 -0.3171
22651W        W38912   1.834   2.851   3.015  0.0171  0.4912  0.0895
22652W        W38913  16.391  11.851   0.689 -0.0624 -0.0408 -0.0156
22653W        W38914  12.560   9.944   4.605 -0.0070  0.3405  0.3029
22654W        W38915  16.018   9.483   5.330  0.2051 -0.0681  0.1831
22655W        W38916   0.750   6.210   0.614 -0.3476 -0.0253 -0.1526
22656W        W38917   5.704   8.669   5.065  0.1902 -0.1381 -0.1774
22657W        W38918   7.921  15.656   0.083  0.3865 -0.4566  0.2158
22658W        W38919   2.967  14.093   2.012 -0.2302 -0.3125 -0.2430
22659W        W38920  14.955  18.860   3.096 -0.0638 -0.6008 -0.2264
22660W        W38921   8.075  12.966   0.644 -0.1776 -0.1038  0.2385
22661W        W38922   4.350  13.730  11.122 -0.2311 -0.3429  0.2439
22662W        W38923  14.723  18.625   5.102 -0.0354 -0.2340 -0.0396
22663W        W38924  10.979   8.443   2.268  0.2172 -0.1074  0.0404
22664W        W38925   3.629  15.319   1.572 -0.0741  0.1331 -0.2004
22665W        W38926   6.075   8.404  11.687 -0.0218 -0.3805  0.1552
22666W        W38927  11.827  14.367   1.038 -0.1010  0.2297 -0.3389
22667W        W38928  11.473  10.618   4.882  0.1603  0.1453 -0.1168
22668W        W38929   1.714  11.463  11.110  0.1101 -0.1020  0.2092
22669W        W38930  10.535  17.201   3.830 -0.1318 -0.1869 -0.1673
22670W        W38931   8.750  18.638  12.666  0.0024  0.4190 -0.0591
22671W        W38932  17.089   5.240   5.469 -0.1715  0.2445  0.1783
22672W        W38933  18.610  13.233  14.069 -0.0550 -0.0542  0.0089
22673W        W38934  14.457   4.854   4.954  0.0532  0.1780 -0.2278
22674W        W38935   0.236   0.614  13.070 -0.0471 -0.0124  0.0824
22675W        W38936   4.787  18.027   1.683  0.0988  0.2188 -0.3202
22676W        W38937   6.211  10.524   2.244 -0.0911 -0.2383 -0.1804
22677W        W38938  13.387  14.988   2.479 -0.3387 -0.1184 -0.0120
22678W        W38939   7.661   4.442  10.406 -0.3477 -0.0053  0.1269
22679W        W38940  16.747  15.177   4.324 -0.0923  0.1309  0.0410
22680W        W38941   0.217   2.861  13.975  0.0084  0.0324  0.0364
22681W        W38942  19.180   2.383   5.008 -0.0253  0.0319  0.1704
22682W        W38943  15.323   7.351   4.957  0.5800  0.1698  0.2625
22683W        W38944   3.070  11.204   2.045  0.0848  0.0047  0.2929
22684W        W38945   2.306   5.723  12.422  0.1870  0.0392  0.0937
22685W        W38946  17.027  15.503  13.102  0.1204  0.1568  0.0297
22686W        W38947  18.463  16.440   2.468 -0.0654 -0.2091  0.0225
22687W        W38948  16.713   2.926  12.164 -0.0180 -0.3093  0.0709
22688W        W38949  13.295   6.284  10.975  0.0920 -0.4686  0.1054
22689W        W38950  15.858  19.366   4.513 -0.3281 -0.1665  0.0967
22690W        W38951  10.796   6.786   2.919 -0.0748 -0.0606 -0.0444
22691W        W38952  10.630  15.467   0.540  0.0310 -0.3913  0.3447
22692W        W38953  15.503  16.466  13.756  0.0682  0.2396 -0.2043
22693W        W38954   4.830   4.756   3.421  0.0826  0.3553 -0.0547
22694W        W38955   4.890  13.804   5.048 -0.0628 -0.0321 -0.0617
22695W        W38956   4.100   6.733   9.491 -0.0551 -0.1476 -0.0261
22696W        W38957   0.563   2.997  10.414 -0.3393 -0.1371  0.4204
22697W        W38958  18.264   7.970  13.682 -0.1809 -0.3253 -0.0679
22698W        W38959  12.593   4.187   0.094  0.3060 -0.1286  0.0308
22699W        W38960  12.969  18.162  11.852  0.0466  0.3203  0.0205
22700W        W38961   6.469  18.922   3.666 -0.0991  0.1073 -0.0641
22701W        W38962   3.009  18.988  10.527 -0.3185  0.3099  0.1699
22702W        W38963   9.550   2.254  11.636 -0.2749  0.1110 -0.2350
22703W        W38964   8.026  12.471   0.630  0.2266  0.1704  0.0359
22704W        W38965   8.855  16.944   3.050  0.2326  0.1844  0.0411
22705W        W38966   9.720  13.953  14.561 -0.2813  0.1337 -0.0361
22706W        W38967   3.050   5.963  13.138  0.1576  0.2580  0.1672
22707W        W38968   8.813   8.629  11.680  0.0294 -0.1644 -0.1670
22708W        W38969  14.959   6.168  12.219 -0.0701  0.1046 -0.1343
22709W        W38970   9.800  16.308   1.142  0.0122  0.1074 -0.1150
22710W        W38971   9.285   3.382   5.205 -0.1308  0.0880 -0.0057
22711W        W38972  10.406  13.174   3.858  0.0555  0.2906  0.0609
22712W        W38973  13.721  15.871   5.246 -0.0684 -0.0892  0.2378
22713W        W38974  17.007   5.135  12.667 -0.0161 -0.3283  0.1742
22714W        W38975   8.041  17.586   5.150 -0.1347  0.1946 -0.1709
22715W        W38976   2.972   9.131   4.793  0.1125 -0.0305  0.3114
22716W        W38977   1.224  12.245  11.310 -0.0115 -0.2923 -0.1940
22717W        W38978  16.803   6.588   1.346 -0.2863 -0.1387 -0.0691
22718W        W38979  18.049  14.069   5.142 -0.1243 -0.0662 -0.0164
22719W        W38980   1.167   3.976   3.085  0.4855  0.2859  0.1278
22720W        W38981   6.053  14.927   3.507  0.0820 -0.0219 -0.1841
22721W        W38982   7.245  17.954  12.990 -0.2389  0.1714 -0.1647
22722W        W38983  11.943   5.667  12.531  0.0805 -0.0802  0.1425
22723W        W38984   4.127   9.458   3.102 -0.0810  0.3885 -0.2026
22724W        W38985  18.798  16.685  13.191  0.2945 -0.2098 -0.3098
22725W        W38986   4.451  13.442  14.399 -0.0121 -0.0952 -0.4082
22726W        W38987   4.836  17.962  13.858  0.3284  0.0794 -0.1960
22727W        W38988   7.459  14.418  11.631 -0.0738  0.3182  0.2487
22728W        W38989  16.605   0.544   0.242  0.3951  0.2686 -0.1002
22729W        W38990   7.099   9.001   4.322 -0.0824  0.5899  0.0653
22730W        W38991   5.683  10.691  10.797 -0.1544  0.0455  0.0567
22731W        W38992  15.621  13.586   5.211  0.0069  0.1852  0.1492
22732W        W38993   5.793   1.685  12.272  0.2962  0.1164  0.0526
22733W        W38994  17.744  17.104   4.793  0.2588  0.1133 -0.2631
22734W        W38995   3.604  12.657   2.050  0.3846 -0.2805  0.0766
22735W        W38996  17.862  14.274   9.861  0.1638  0.1435 -0.2453
22736W        W38997  16.728   5.569   0.466  0.0076  0.1480  0.2730
22737W        W38998  18.021   5.148  11.803 -0.1655 -0.4658 -0.0002
22738W        W38999  16.581   3.637  12.170 -0.1065 -0.0044  0.1188
22739W        W39000   4.272  16.965  10.177  0.2330 -0.1315 -0.0446
22740W        W39001   4.392   3.832  14.679  0.0868 -0.0954 -0.1197
22741W        W39002  19.202   9.947  11.873 -0.0895  0.2056 -0.3057
22742W        W39003   5.782   0.692   4.315  0.3995 -0.2395  0.3216
22743W        W39004  13.659   6.668  12.688  0.1209 -0.0360 -0.1001
22744W        W39005   1.201  14.435   1.636 -0.2303  0.2052 -0.0696
22745W        W39006   8.085   8.848  12.680  0.0707 -0.0636  0.2742
22746W        W39007  10.812   3.419   0.839 -0.0401 -0.1174  0.1820
22747W        W39008  11.794  16.324   0.637  0.1044  0.1283 -0.2193
22748W        W39009   0.573   0.992   3.687  0.0456  0.1846 -0.3854
22749W        W39010   6.153  13.765   3.672 -0.1258 -0.1087  0.2034
22750W        W39011   7.687  17.954  11.553  0.1476 -0.0021  0.3247
22751W        W39012   2.482   7.297   5.252  0.2106 -0.0260  0.2257
22752W        W39013   6.107  17.019  11.657 -0.2106 -0.2091 -0.0029
22753W        W39014  15.062  15.949   1.720  0.0140 -0.3059  0.0906
22754W        W39015   4.578  13.761  13.915 -0.0672  0.4451 -0.0737
22755W        W39016   9.123   5.399   0.173 -0.0236  0.2832 -0.0699
22756W        W39017   3.780   6.856   3.663 -0.0744 -0.0035 -0.1334
22757W        W39018   3.990  11.518  13.944 -0.0552 -0.1869  0.3501
22758W        W39019  12.389  14.297  12.638  0.0070 -0.0859  0.1042
22759W        W39020  10.010   1.314   0.242  0.0482 -0.3681 -0.5086
22760W        W39021  18.838   4.520   2.591  0.4973  0.3112  0.3479
22761W        W39022  19.070  19.142   1.229  0.0985  0.1869  0.0016
22762W        W39023   3.103  12.545  11.474 -0.0926 -0.2099 -0.3339
22763W        W39024   4.674  16.920  12.411 -0.0979  0.0875  0.0147
22764W        W39025   3.790   1.704  13.955 -0.1033 -0.1694  0.1091
22765W        W39026  10.613   8.747   2.202  0.1324 -0.0795 -0.1811
22766W        W39027   8.818  14.891   1.409  0.3281  0.0517  0.1197
22767W        W39028  15.190   0.868  12.248  0.4232 -0.0129  0.2211
22768W        W39029   7.250  17.074   0.153 -0.1022 -0.0314  0.0658
22769W        W39030   6.656   8.609  14.075  0.2064  0.1139 -0.3332
22770W        W39031  18.449   5.058   3.607  0.0510 -0.0213 -0.1535
22771W        W39032  14.188  12.077   4.561  0.0704 -0.0807 -0.2839
22772W        W39033   3.613   4.581   1.253  0.0774  0.1978 -0.1036
22773W        W39034   3.099   4.343  12.607 -0.0864  0.2884 -0.0941
22774W        W39035  15.435  16.977   1.065 -0.0220  0.2441  0.0527
22775W        W39036   7.094  12.825   1.370  0.2115  0.2491 -0.1235
22776W        W39037   2.564  12.972  13.277 -0.2368  0.1487 -0.0364
22777W        W39038  17.928  12.175   3.512 -0.2147 -0.2343  0.0938
22778W        W39039  12.122   4.385   3.203 -0.2125 -0.1904 -0.0769
22779W        W39040   8.838  10.853   3.294  0.1274  0.2147 -0.1355
22780W        W39041   5.495  17.160  12.426  0.1646 -0.0696 -0.0022
22781W        W39042   7.091   8.944   1.666  0.2111  0.2076  0.0556
22782W        W39043   8.771   3.762   2.261 -0.2699 -0.4800  0.1439
22783W        W39044  11.481   6.655  11.026 -0.3623 -0.3289  0.1615
22784W        W39045  18.142   4.263  11.900  0.0553  0.0677  0.1847
22785W        W39046   3.483  12.618  14.769 -0.0912 -0.0923 -0.0912
22786W        W39047  10.294   2.711  11.496 -0.1250 -0.2822  0.0359
22787W        W39048   3.967   2.904   1.923 -0.1496  0.0563  0.3019
22788W        W39049  14.194  11.769   3.220 -0.2184 -0.0842 -0.2756
22789W        W39050   5.216  16.896  11.118  0.2013  0.1015  0.1844
22790W        W39051   6.859   4.430   3.026 -0.0062  0.2508 -0.1450
22791W        W39052   6.199  11.237   4.706 -0.2766 -0.0621  0.1944
22792W        W39053   5.533   1.157   1.398  0.2525  0.1611  0.2575
22793W        W39054  13.468   6.385   4.240 -0.0678  0.0114 -0.0948
22794W        W39055   7.561   5.081   2.251  0.1499 -0.1310 -0.1228
22795W        W39056  17.715   9.051  13.817  0.1979 -0.1999  0.2816
22796W        W39057  11.620  12.935   5.340  0.1805 -0.1703 -0.0397
22797W        W39058   8.520  14.106   2.408  0.0717 -0.0465 -0.0085
22798W        W39059   8.898  14.521   1.696 -0.2606 -0.1229 -0.0121
22799W        W39060  10.990  15.097   0.425  0.0876 -0.1644 -0.0248
22800W        W39061  12.225  19.105   0.076  0.0620 -0.2187  0.3398
22801W        W39062  14.618   0.788  11.395  0.0637  0.0118  0.1436
22802W        W39063   1.233   0.392   3.600 -0.3915  0.2532  0.0244
22803W        W39064   4.253  18.678  11.319 -0.0459 -0.0260 -0.2553
22804W        W39065   0.429   7.787   9.340  0.1671 -0.1337  0.0379
22805W        W39066   1.854  17.316   0.692  0.1358 -0.2280  0.1238
22806W        W39067  13.108   3.068   1.511  0.0474 -0.0932 -0.1189
22807W        W39068  13.800  14.423  11.573  0.0021 -0.1075 -0.1702
22808W        W39069   7.868   1.574  10.070  0.0631 -0.1380  0.2302
22809W        W39070   9.950  14.574   4.160 -0.0214 -0.3261  0.0900
22810W        W39071   5.915  12.549   1.792  0.1338  0.2474 -0.1937
22811W        W39072   0.492  12.530  10.792 -0.2661 -0.0904  0.2841
22812W        W39073  14.050  16.118   2.479  0.1926  0.2700  0.3074
22813W        W39074   3.663  13.414  14.462  0.0621 -0.0186  0.0766
22814W        W39075   9.977  11.064   2.526 -0.0779  0.0931 -0.4697
22815W        W39076   3.774   2.500   3.955 -0.2008 -0.1621  0.0697
22816W        W39077   9.945   5.815   0.861 -0.1294  0.1336  0.1462
22817W        W39078   3.867  11.568  11.244  0.1559  0.1152  0.0911
22818W        W39079  10.847   3.949   3.912 -0.2159 -0.0758  0.2479
22819W        W39080   3.970  12.750  13.454  0.3214  0.0434 -0.1277
22820W        W39081  14.468  18.447   3.723  0.0058 -0.1941 -0.1568
22821W        W39082   7.020  18.615  14.207 -0.0258 -0.2042 -0.0439
22822W        W39083  16.393   6.555   3.821 -0.3426 -0.1101  0.2065
22823W        W39084   8.141   7.041  12.302 -0.1259 -0.0233  0.0627
22824W        W39085   8.326  15.496  12.642 -0.2275 -0.0418 -0.3616
22825W        W39086   2.443   5.030  10.049 -0.1122 -0.0979  0.0979
22826W        W39087  17.446  16.031   3.762 -0.2252  0.2571 -0.1933
22827W        W39088  18.020   0.178   3.347 -0.0866  0.1565  0.0434
22828W        W39089   5.353  18.813  13.083  0.0704 -0.0636  0.1710
22829W        W39090   0.541  15.448   5.482  0.0618  0.1172  0.0157
22830W        W39091  16.003  14.857   9.771  0.1214 -0.4276 -0.0470
22831W        W39092  11.209  15.957  11.902 -0.0871  0.1986 -0.1350
22832W        W39093  10.489   0.226   3.469 -0.0630 -0.0238 -0.1222
22833W        W39094  14.559   7.830   4.922  0.0895  0.2567 -0.1181
22834W        W39095   4.682   6.921   0.548 -0.0325 -0.0997 -0.0450
22835W        W39096   7.964   8.755  13.543 -0.1306 -0.0920 -0.0136
22836W        W39097  10.263   7.385  12.463 -0.0008 -0.0475  0.2229
22837W        W39098  12.529   8.741   4.280  0.0281 -0.0175  0.1110
22838W        W39099  10.357  18.291  11.204  0.0474  0.1305  0.0345
22839W        W39100   1.816   3.096  12.246 -0.2333  0.1484  0.2093
22840W        W39101   8.967  18.410   0.662  0.1569  0.0897 -0.0523
22841W        W39102  18.114  11.825  14.482 -0.2915 -0.1794  0.2475
22842W        W39103  15.957  11.154   2.841 -0.0607  0.3738 -0.2016
22843W        W39104  13.671  16.621   6.321 -0.0555 -0.1679  0.2146
22844W        W39105  12.154  15.095  11.234 -0.3964  0.2712 -0.0018
22845W        W39106   6.539  12.423   2.944  0.2463 -0.0702 -0.1064
22846W        W39107   0.552  15.407   1.002 -0.1769 -0.0212 -0.0321
22847W        W39108  12.249  17.624   2.483  0.0992 -0.0372  0.2221
22848W        W39109  19.115   6.792   5.085  0.0565  0.1343 -0.0168
22849W        W39110   3.266  14.913  13.171 -0.0606 -0.1253  0.0910
22850W        W39111   6.908  14.225   0.868 -0.3173  0.3050 -0.0221
22851W        W39112  15.734   5.711  13.128  0.0340 -0.0316  0.1891
22852W        W39113  10.300  19.421   3.107 -0.0146  0.1529 -0.0817
22853W        W39114   7.400   6.788   0.375 -0.3016 -0.2730 -0.1386
22854W        W39115  11.449  11.514  14.078 -0.3111  0.4625  0.0182
22855W        W39116  15.671   8.388   2.087  0.1170 -0.0636  0.1347
22856W        W39117   3.949  16.443  12.646 -0.0969 -0.0747  0.0684
22857W        W39118   7.128   2.954   3.203 -0.3383 -0.0400  0.4194
22858W        W39119  16.622   9.940  11.070  0.0786  0.2899  0.1120
22859W        W39120  17.807  13.453  10.604  0.1087  0.1521  0.0794
22860W        W39121  15.410  11.516   0.945  0.2580 -0.0617 -0.0069
22861W        W39122   0.400   5.649   9.219  0.2383 -0.0492  0.1545
22862W        W39123   6.904  19.008  13.551 -0.1895 -0.2653  0.0568
22863W        W39124   3.874   4.730  11.693 -0.1713  0.0418 -0.0559
22864W        W39125  18.726   2.373   0.211  0.1640  0.2628  0.0141
22865W        W39126  10.808   7.917   4.829 -0.1175 -0.1224  0.2129
22866W        W39127  17.896   2.694  10.179 -0.1887 -0.5172  0.1495
22867W        W39128   3.249   1.938  12.068  0.0369  0.1757 -0.3322
22868W        W39129   1.186   6.654  10.992  0.0472 -0.5265 -0.1125
22869W        W39130   6.548  15.080   2.882 -0.1236 -0.4187  0.2799
22870W        W39131  12.616   1.988   2.977 -0.3654  0.0567  0.0586
22871W        W39132   7.938  10.424   2.871  0.3252 -0.0224  0.2730
22872W        W39133  16.449   8.355  13.228 -0.0648  0.0405 -0.2239
22873W        W39134  15.102   8.836  10.401  0.1707  0.1335 -0.0485
22874W        W39135  15.023  16.108   4.166  0.5438 -0.0799  0.1625
22875W        W39136   6.806  17.190   4.083  0.1969  0.0166  0.0652
22876W        W39137   2.636   8.499   5.372  0.2001  0.1036 -0.0455
22877W        W39138   7.062   1.075   3.008  0.0606  0.2501 -0.0928
22878W        W39139  19.049  13.844  12.703 -0.0639 -0.2260 -0.2185
22879W        W39140  19.004   5.671  14.221 -0.0957 -0.1685 -0.0556
22880W        W39141  10.925   3.967   2.242 -0.0284  0.1687  0.2142
22881W        W39142   9.733  12.214   0.191 -0.1249 -0.2996  0.1750
22882W        W39143   9.809  14.072   4.112  0.0643  0.0872  0.0748
22883W        W39144   0.581  18.510  12.774  0.1410 -0.2111 -0.0533
22884W        W39145  19.116   7.934  10.444  0.0169  0.1774 -0.1017
22885W        W39146  10.617   2.433   4.562 -0.2351  0.1900 -0.1452
22886W        W39147  13.683  13.842   1.508  0.1146 -0.1007 -0.0057
22887W        W39148   2.913  15.054   0.831 -0.0897  0.1008  0.2294
22888W        W39149   2.037  12.899  10.997 -0.0285  0.2569  0.1738
22889W        W39150  13.632   8.649   4.903  0.0266 -0.0883 -0.0402
22890W        W39151  13.484   9.508  12.040  0.1148 -0.2866 -0.1319
22891W        W39152   0.870  16.769  12.932 -0.5845  0.1598  0.4454
22892W        W39153  13.383  13.516  13.078  0.0399  0.2482 -0.2921
22893W        W39154   0.881  14.529  14.604 -0.1864  0.0692 -0.0433
22894W        W39155   7.857  17.383  12.474  0.0043 -0.2311 -0.0743
22895W        W39156  11.205  17.021   2.318 -0.0313  0.0947 -0.1491
22896W        W39157  15.395  12.946  12.681 -0.0846  0.2363  0.1422
22897W        W39158   4.143  17.035  11.353 -0.0242  0.0865  0.0697
22898W        W39159   3.764  10.914   3.793  0.0604  0.0116 -0.0499
22899W        W39160  13.846  10.047   3.954  0.0729 -0.2431 -0.0737
22900W        W39161   0.296  13.152   1.032  0.1248 -0.0599 -0.0796
22901W        W39162   2.419   4.404   0.483  0.2015  0.0560  0.2782
22902W        W39163  11.535   4.197  10.096  0.2183 -0.0564 -0.0230
22903W        W39164   1.191  13.437   4.783  0.2158 -0.1415 -0.2204
22904W        W39165   9.018  11.177   1.876  0.3583  0.2336  0.0804
22905W        W39166  17.483  15.519  14.436 -0.1793  0.2453  0.0585
22906W        W39167  10.687   4.050  12.222 -0.1881  0.0358  0.0421
22907W        W39168   0.518   1.359  10.134  0.0891  0.1189  0.0955
22908W        W39169   6.819   0.428   1.216  0.2607 -0.0644 -0.2763
22909W        W39170   8.210   5.485   0.130  0.0468  0.3129 -0.0535
22910W        W39171  14.436   0.681   5.260 -0.1636 -0.0937  0.1441
22911W        W39172  19.129  15.419  12.252 -0.0350  0.0133  0.0294
22912W        W39173   1.214  13.051  14.602  0.1528 -0.1614 -0.2542
22913W        W39174   7.084  12.576   2.700 -0.1165  0.0761  0.2095
22914W        W39175   5.953  18.238  12.618  0.2582  0.3203 -0.3894
22915W        W39176  19.048  16.664   1.462 -0.0568  0.1868  0.1954
22916W        W39177  17.357  13.836   1.228  0.0834 -0.2913  0.2568
22917W        W39178   2.213  15.037  13.178 -0.2067  0.1394 -0.0878
22918W        W39179  13.397   7.282  11.436 -0.0349 -0.0339  0.0911
22919W        W39180   7.264  12.337  14.198 -0.0045 -0.0165  0.0462
22920W        W39181   9.874   4.846  14.468  0.3867 -0.0624  0.2230
22921W        W39182  15.634   9.859  11.192  0.0367 -0.0191  0.3182
22922W        W39183  11.710  16.041   3.057 -0.2827 -0.1023 -0.0935
22923W        W39184   8.624  14.191  11.005  0.1786  0.2556 -0.0750
22924W        W39185  17.248   3.526   2.996 -0.0039 -0.0350  0.0649
22925W        W39186   7.201  12.339   0.361  0.2554 -0.2918 -0.2920
22926W        W39187  17.875  11.640   2.247 -0.1212 -0.0772  0.0086
22927W        W39188   1.942  18.743  13.211  0.1670 -0.4183  0.2806
22928W        W39189  13.730  15.072   5.522  0.0118 -0.0196  0.0721
22929W        W39190   0.092  12.972   5.475 -0.3341  0.2653 -0.2295
22930W        W39191   4.814   9.119   0.268  0.3883 -0.1393 -0.0991
22931W        W39192  18.156   5.456   0.648  0.3325  0.0664 -0.0329
22932W        W39193   2.069   1.402   9.978 -0.0225  0.0702  0.0119
22933W        W39194   3.805  10.017  11.067  0.1896 -0.1902 -0.3090
22934W        W39195  11.128  17.456   1.876  0.0005 -0.0914 -0.2080
22935W        W39196   0.988  11.757  11.285 -0.2844 -0.2077 -0.2725
22936W        W39197   3.421   5.517   3.402 -0.3246 -0.2944  0.1329
22937W        W39198   3.943  18.568  14.478 -0.0178  0.0127 -0.0534
22938W        W39199  10.985  11.434   4.004 -0.1215 -0.2297  0.0859
22939W        W39200  17.379  17.609   3.256 -0.3057 -0.0344 -0.0532
22940W        W39201   8.448   6.614   0.530  0.1204  0.1144  0.3737
22941W        W39202  15.803   6.662   2.847  0.0883 -0.1549 -0.1598
22942W        W39203  18.482   1.283   1.367  0.0178  0.0942  0.1205
22943W        W39204   4.885   7.412  12.056 -0.0549 -0.1523 -0.2152
22944W        W39205  14.455   7.749   4.469  0.0913  0.2710  0.0545
22945W        W39206  14.397  17.054  12.078  0.2051 -0.1183  0.0680
22946W        W39207   0.542   6.536   4.751  0.0691  0.1406 -0.0728
22947W        W39208   6.436   6.919   1.332 -0.0961  0.0957  0.1237
22948W        W39209  17.480   1.270   4.678  0.1396 -0.1034  0.1559
22949W        W39210   9.148  15.188   2.329 -0.0462  0.2143  0.3817
22950W        W39211   9.079   0.855  12.468 -0.1112 -0.0813 -0.0297
22951W        W39212   3.875  18.572   0.234 -0.1984  0.1443  0.1491
22952W        W39213   2.934  10.135   1.320 -0.1364 -0.3274  0.0888
22953W        W39214  11.964   5.143  12.569 -0.0552  0.1047  0.0640
22954W        W39215  11.157   6.426  14.509  0.0816 -0.0802  0.1129
22955W        W39216  17.854   3.084   2.921  0.0968 -0.1793  0.3671
22956W        W39217  14.708   0.415  12.906 -0.1699 -0.1757 -0.1521
22957W        W39218   8.008  16.057  11.951  0.1328  0.3041 -0.0923
22958W        W39219   5.505   1.751  11.891 -0.1168 -0.1787  0.2018
22959W        W39220   9.675  17.033   4.168  0.1147  0.0320 -0.0303
22960W        W39221  10.585   3.579   1.783 -0.2579  0.1286 -0.3540
22961W        W39222   7.910   9.320   1.131  0.0166 -0.3023 -0.1704
22962W        W39223  12.259  13.160   0.375  0.0806 -0.0282 -0.2448
22963W        W39224   0.930  17.737   3.641  0.1494 -0.0992  0.0769
22964W        W39225   8.923   0.262   1.150  0.1220  0.1256 -0.2657
22965W        W39226   0.535   1.830  12.394  0.2855  0.0675 -0.0781
22966W        W39227  16.212  16.635   4.015 -0.0944  0.0280  0.2049
22967W        W39228  10.063  15.286  13.129  0.1646 -0.2241 -0.4056
22968W        W39229   5.315   9.290  13.030  0.0433 -0.2336  0.3617
22969W        W39230  10.755  14.443  13.965 -0.2731  0.1444  0.1073
22970W        W39231  10.661   5.462   3.472  0.0342 -0.2464  0.1574
22971W        W39232   3.670  10.517   4.116  0.0252  0.2333  0.0879
22972W        W39233   7.938  15.395   3.561  0.0755  0.1409  0.0264
22973W        W39234   7.258   5.884  10.857  0.0107 -0.4663  0.1717
22974W        W39235  11.666  16.456  13.438  0.1482  0.1748 -0.0126
22975W        W39236  11.352   9.113   4.067 -0.0407  0.3541  0.2796
22976W        W39237  14.560  13.577  12.388  0.1539  0.3700 -0.2480
22977W        W39238   3.229  15.265   4.886  0.1450  0.0701  0.3075
22978W        W39239   1.937  14.101   3.412  0.2329 -0.0602  0.1764
22979W        W39240  13.110   0.006   0.439 -0.0750  0.0170 -0.2057
22980W        W39241  17.063   9.696  10.876  0.1799 -0.3520  0.2605
22981W        W39242  13.134   9.437   3.451  0.1972 -0.2294 -0.2233
22982W        W39243   7.430  18.116   0.017  0.3352  0.1011 -0.1531
22983W        W39244   5.063   4.645   0.446  0.2466  0.0843 -0.4445
22984W        W39245  16.302  14.801  13.349 -0.0177 -0.0728  0.0634
22985W        W39246   5.386   6.444   8.605  0.1403  0.0058  0.2883
22986W        W39247   7.627   3.955   9.736 -0.0436 -0.0682  0.1545
22987W        W39248  18.084  12.051  13.733  0.0391  0.0160  0.1746
22988W        W39249   8.277  17.444   2.534 -0.1557 -0.1642 -0.0369
22989W        W39250   4.657   6.813   9.561 -0.1059 -0.1445  0.1137
22990W        W39251   8.863   3.277  10.939  0.0314  0.4677 -0.1087
22991W        W39252  10.035   6.346   0.113 -0.3491 -0.0201 -0.0463
22992W        W39253   9.005  16.337  13.884 -0.0165  0.2149 -0.0370
22993W        W39254  13.590  12.057   3.925 -0.0297 -0.1476 -0.0536
22994W        W39255   0.281  10.487  11.715 -0.1199  0.4428 -0.1396
22995W        W39256  14.962   7.761   2.913  0.1159  0.0749 -0.0257
22996W        W39257   4.200   9.180   0.717 -0.1239 -0.1722  0.0637
22997W        W39258   2.146  17.286   2.736  0.0852  0.4265  0.1513
22998W        W39259   4.023   9.243  14.628  0.0545 -0.3200  0.3491
22999W        W39260   9.840  16.900  11.936 -0.1948  0.1042  0.2807
23000W        W39261   2.144   0.184  10.367 -0.1149  0.0721  0.1126
23001W        W39262   4.606   7.349  14.037  0.0500  0.2783 -0.0062
23002W        W39263  18.816   0.429  14.495  0.0302  0.0372 -0.1780
23003W        W39264   1.860  18.559   1.873 -0.1687 -0.0041 -0.3269
23004W        W39265   7.565   7.446   1.072 -0.1274 -0.1107 -0.0984
23005W        W39266  11.424  12.676  14.760  0.0286 -0.1267 -0.0203
23006W        W39267   5.170  11.006   4.626  0.3247 -0.1211 -0.0285
23007W        W39268  18.534  15.303  12.378 -0.0917  0.1087 -0.0418
23008W        W39269   0.771  17.244   2.152  0.3018  0.2450 -0.2662
23009W        W39270  17.289  16.724  10.717  0.2495  0.0388  0.1155
23010W        W39271  15.632  16.907  11.018 -0.0613 -0.2708 -0.1396
23011W        W39272   7.986   2.790  10.074 -0.2157  0.0152 -0.1613
23012W        W39273   6.067   8.896   4.074  0.3070  0.1522 -0.0022
23013W        W39274   0.511   0.023   1.800  0.2123 -0.0168 -0.1958
23014W        W39275  16.465   8.153   1.274  0.0184  0.1093  0.0143
23015W        W39276  11.550   2.447   9.438  0.0532 -0.1943  0.2032
23016W        W39277   8.447  16.923   2.671  0.3507  0.3445 -0.0371
23017W        W39278  13.057  12.625   4.417 -0.2411 -0.0183 -0.0029
23018W        W39279  17.977   4.805  12.671  0.2819  0.1117 -0.0499
23019W        W39280  11.153  18.999   4.679  0.0190 -0.0302  0.1782
23020W        W39281   5.357  16.547  11.701 -0.0063 -0.0946 -0.1188
23021W        W39282  11.709  11.353  11.886  0.2140  0.3907  0.2633
23022W        W39283   0.908   2.109  12.670 -0.1297 -0.1095  0.1989
23023W        W39284   5.572   2.621   3.503  0.0977 -0.1161 -0.1219
23024W        W39285   7.645  16.134  10.495  0.2781  0.0103 -0.2508
23025W        W39286   7.571  18.941   1.733  0.0718  0.0572  0.0511
23026W        W39287  13.980  10.450  10.747  0.3381 -0.0926  0.3113
23027W        W39288   8.824   4.933  12.503  0.0586 -0.2912 -0.0845
23028W        W39289   7.464   9.298   1.869  0.1546  0.0184 -0.1926
23029W        W39290   5.856  18.339   0.984 -0.0568  0.1544 -0.1115
23030W        W39291  18.888   2.833  11.950 -0.1928  0.0477  0.3268
23031W        W39292   8.557  15.362   0.085 -0.3268 -0.0172  0.1266
23032W        W39293   0.607   3.344   5.041  0.0332  0.1564 -0.2131
23033W        W39294  13.821   1.182  11.798 -0.0234 -0.3222 -0.1771
23034W        W39295   8.017   1.876  11.102  0.1939 -0.0517 -0.4695
23035W        W39296   5.499   1.076   0.844 -0.0997 -0.1939 -0.1184
23036W        W39297   6.885   4.669  13.237 -0.0256  0.1890 -0.0863
23037W        W39298   7.000  12.641  13.875  0.1110  0.2870  0.0766
23038W        W39299  14.664  16.333   3.884 -0.0293 -0.1168 -0.1100
23039W        W39300  15.303   9.908  10.825 -0.0948  0.0289 -0.1651
23040W        W39301  18.287  17.291   3.431 -0.2007  0.3039 -0.4239
23041W        W39302   6.384   1.424  10.647  0.1384  0.0077  0.0163
23042W        W39303   4.907   5.137  10.877 -0.1374 -0.0964 -0.3353
23043W        W39304   6.649  17.815  14.084 -0.2603 -0.1443 -0.3328
23044W        W39305  11.485  10.005   4.613 -0.3119 -0.0834 -0.0097
23045W        W39306  14.078   3.767   2.787 -0.0789 -0.2837 -0.1397
23046W        W39307  18.241  15.581  11.158  0.0385  0.0397 -0.0912
23047W        W39308  17.893  18.068  10.539 -0.0087  0.3421 -0.2785
23048W        W39309  18.205  12.112   5.838  0.2244 -0.1684 -0.1276
23049W        W39310  18.245   9.089   3.370  0.3462 -0.2565 -0.2424
23050W        W39311   9.729  11.135   1.999 -0.0982 -0.2218 -0.5224
23051W        W39312   8.817  12.896  13.675 -0.0172  0.0539 -0.2441
23052W        W39313  16.349   2.905   3.821 -0.2766 -0.1161  0.2415
23053W        W39314  17.858  13.803  13.031 -0.1248 -0.1559 -0.1784
23054W        W39315  10.234   1.333  13.873 -0.0988 -0.2594  0.1861
23055W        W39316   0.852  13.798  13.336 -0.1961 -0.5008  0.1263
23056W        W39317   6.379   4.184   4.173  0.0925  0.2328 -0.3898
23057W        W39318   9.950  18.492   3.203 -0.1893  0.2515  0.2126
23058W        W39319  17.071   3.862  14.339  0.2888  0.2735  0.4337
23059W        W39320  14.503   1.483   3.945 -0.2410 -0.2001  0.0912
23060W        W39321  13.413   3.121   0.197 -0.0939 -0.0475 -0.2590
23061W        W39322   5.884  18.211   1.496 -0.1637  0.0801  0.2105
23062W        W39323   8.659   5.768  13.673 -0.0793  0.0748 -0.1280
23063W        W39324   8.521   3.304   4.385  0.4927  0.1539 -0.1528
23064W        W39325   8.470   8.822  13.561 -0.0302  0.1838 -0.3133
23065W        W39326   9.569   7.373   2.730  0.2962 -0.0595  0.1919
23066W        W39327   5.818  12.589  13.416 -0.2377  0.0578 -0.1113
23067W        W39328  10.460   1.127   3.341 -0.0669 -0.0805 -0.0283
23068W        W39329   2.094   9.385  11.419 -0.0215  0.0068 -0.2811
23069W        W39330   1.130  13.939   0.323 -0.1135 -0.4118 -0.0567
23070W        W39331   6.621   1.535   2.981 -0.0512 -0.0055  0.0462
23071W        W39332  13.030   9.728   4.493 -0.0913  0.2285 -0.0322
23072W        W39333   5.408  13.587   4.992 -0.3476  0.0886 -0.0142
23073W        W39334  11.248   6.605  13.052 -0.0353 -0.0075 -0.0200
23074W        W39335   2.077  19.122   0.328 -0.0778  0.1534 -0.0431
23075W        W39336  10.482  17.922  12.669  0.1652 -0.1065 -0.3276
23076W        W39337  15.627  17.069   3.499  0.3334 -0.0489 -0.1405
23077W        W39338  16.748   2.929   1.021 -0.0261  0.1128  0.1219
23078W        W39339   0.688   4.809   0.815 -0.0420  0.1087 -0.0722
23079W        W39340   1.890   3.127   9.632  0.0149  0.2649  0.1901
23080W        W39341  11.445  18.897   5.069 -0.3237 -0.1989 -0.0778
23081W        W39342  18.537  14.211  11.434 -0.1538  0.1042 -0.1424
23082W        W39343   6.748   4.675  11.964  0.0053  0.0014  0.3274
23083W        W39344   9.086  10.656   3.748  0.1744 -0.1222  0.1116
23084W        W39345  13.303   4.548   0.429 -0.0444  0.0526 -0.1434
23085W        W39346  17.446   4.875  11.525 -0.2615 -0.1267 -0.2618
23086W        W39347  15.592   9.945   0.204  0.1504  0.0118 -0.1926
23087W        W39348   9.586   4.484   3.349  0.1570  0.0823 -0.0374
23088W        W39349  19.157  14.862   1.695  0.3302  0.2981  0.0166
23089W        W39350   0.838   3.313  14.611 -0.1691 -0.2266  0.0355
23090W        W39351  11.215   2.986   3.023 -0.1371 -0.0674 -0.2900
23091W        W39352  13.129   2.818  13.543  0.1011 -0.0937 -0.0445
23092W        W39353   1.009   5.793  10.902  0.3899 -0.0510  0.3262
23093W        W39354  12.096  12.362  14.698  0.1034 -0.2507 -0.0618
23094W        W39355  14.085   8.616   1.393 -0.1256  0.2690 -0.0888
23095W        W39356  19.311  14.223   0.100  0.0504 -0.0498 -0.4571
23096W        W39357  13.244   7.317   3.268 -0.1035  0.1701  0.0441
23097W        W39358   2.624  15.373   2.621  0.1253 -0.0747  0.0551
23098W        W39359  11.840   7.868   5.296 -0.1474  0.1381 -0.1208
23099W        W39360   3.118   5.061   3.388  0.1282 -0.0553  0.0986
23100W        W39361  17.240   4.517  10.223  0.0541 -0.0221  0.0631
23101W        W39362  15.274   5.512  13.471 -0.0804 -0.3111 -0.0052
23102W        W39363   2.765   4.954   0.920 -0.0153 -0.4205  0.1563
23103W        W39364   4.017  11.423   9.647  0.3133  0.2950  0.0667
23104W        W39365  15.162  13.843  14.396 -0.1366  0.1522 -0.1318
23105W        W39366  15.968  19.029   9.799 -0.0434 -0.0857  0.0143
23106W        W39367   5.395  17.032  13.171  0.1354  0.0490  0.0091
23107W        W39368  10.091   3.813   1.761  0.2868 -0.0179  0.0247
23108W        W39369  19.038  13.416  12.504 -0.2157 -0.0784 -0.1270
23109W        W39370   0.953  13.612  14.624 -0.4232 -0.0578 -0.0887
23110W        W39371   8.577  18.713   0.805 -0.2765 -0.0124  0.2620
23111W        W39372   5.694  17.418  14.012 -0.1171  0.3261 -0.0181
23112W        W39373  13.828   5.499  10.646 -0.0359  0.1066  0.0233
23113W        W39374   0.170  17.430   3.922  0.2356 -0.1449  0.0046
23114W        W39375  15.309  17.861   5.380 -0.2469  0.4029 -0.0294
23115W        W39376   1.053  19.460   1.496  0.2615 -0.3415 -0.1619
23116W        W39377  18.967  17.761   1.200  0.3218  0.1038  0.1389
23117W        W39378   3.682   2.928  14.345  0.4154  0.1792 -0.0679
23118W        W39379   2.772  12.864  11.368 -0.2538  0.0142  0.1206
23119W        W39380   6.249   9.326   0.727  0.1385 -0.0255 -0.0279
23120W        W39381  15.444   0.875   1.637 -0.0984  0.2440 -0.2374
23121W        W39382  17.106  17.215   0.394 -0.1972  0.1092 -0.1183
23122W        W39383   1.681  18.798  12.519 -0.0878  0.3241  0.1222
23123W        W39384   7.508   6.641   2.795  0.1438  0.4597  0.2417
23124W        W39385   8.569   9.597  11.063  0.0566  0.2682  0.2720
23125W        W39386   2.001  17.796   2.801  0.0608 -0.1417  0.0452
23126W        W39387   6.521   8.523  13.050 -0.1143 -0.1631 -0.2742
23127W        W39388   9.035  14.685   4.554 -0.2822 -0.2405 -0.3723
23128W        W39389  11.067  13.230  11.254 -0.2298 -0.1225  0.3173
23129W        W39390  14.811  12.858  10.989  0.1886 -0.1554  0.2221
23130W        W39391  12.661  12.712   2.778  0.0221 -0.0528 -0.0060
23131W        W39392   7.109  10.979   9.249 -0.2314 -0.1600 -0.1580
23132W        W39393   0.290   6.738  13.134  0.2347 -0.1397  0.0045
23133W        W39394   0.563   2.205   4.616  0.3788 -0.2320 -0.0570
23134W        W39395   3.018  13.764   5.065  0.0110 -0.4133  0.1466
23135W        W39396  14.748   0.214   0.701 -0.0531 -0.0682 -0.3655
23136W        W39397  10.493  10.618   3.791 -0.0206 -0.1663  0.0681
23137W        W39398  14.026   7.793   2.546 -0.1068 -0.2200  0.2215
23138W        W39399   5.526  15.740   5.242 -0.1701 -0.4316  0.1183
23139W        W39400  15.260  15.633  12.637  0.2670 -0.1016  0.1425
23140W        W39401  14.651  14.759  10.591 -0.1196 -0.1888  0.0877
23141W        W39402   9.847   4.036  11.066 -0.0307 -0.0770  0.2028
23142W        W39403  14.502   9.697   3.858  0.0348  0.2482  0.1843
23143W        W39404   3.330  11.731  12.051 -0.1758 -0.2115 -0.0811
23144W        W39405   0.887   1.610  12.712 -0.0277  0.3330  0.0116
23145W        W39406  12.450   7.218  10.190 -0.1709  0.1826 -0.0162
23146W        W39407   2.049  16.576   1.464 -0.1473 -0.1227  0.1355
23147W        W39408   8.196   4.398  10.535  0.2193  0.1616 -0.1306
23148W        W39409  17.423   9.601  14.643  0.0034 -0.2332  0.2499
23149W        W39410   9.385   6.099   3.103  0.0621 -0.0759 -0.0613
23150W        W39411   9.476   2.005  13.405 -0.1353 -0.0397  0.0385
23151W        W39412  11.821  14.735   0.183  0.0924 -0.0023  0.3776
23152W        W39413   1.413  12.115  11.773 -0.4217 -0.2467  0.0476
23153W        W39414   8.293   1.404   0.179 -0.1328 -0.2188  0.0302
23154W        W39415   4.460   4.412   3.632 -0.0829  0.0509  0.2998
23155W        W39416   2.875   5.236   4.844  0.2666  0.2852 -0.1195
23156W        W39417   0.959  18.648  13.711 -0.2513 -0.1818  0.2946
23157W        W39418   9.237  13.642  13.072 -0.1262  0.1995  0.4184
23158W        W39419  12.668   7.259  13.127  0.1705  0.1981 -0.2330
23159W        W39420   5.867  11.391  10.821 -0.1578  0.0229  0.2120
23160W        W39421   1.624   7.816  12.269  0.0280  0.4660  0.2402
23161W        W39422  11.394   7.452   0.937 -0.0096  0.3267  0.0920
23162W        W39423  10.457   6.522   0.233 -0.1948  0.0681 -0.0653
23163W        W39424   8.680   2.472  11.446 -0.2620 -0.3466 -0.0404
23164W        W39425  19.383  10.833   1.689  0.2208 -0.0628  0.0981
23165W        W39426   0.097   0.012  10.581 -0.0905 -0.0812  0.0573
23166W        W39427   7.405  10.465  10.897 -0.3379 -0.1213 -0.1942
23167W        W39428   5.224  10.599   2.639 -0.0524 -0.1275  0.2311
23168W        W39429   6.708   1.085   3.384  0.0008  0.2412 -0.2861
23169W        W39430   9.087   3.899   2.746 -0.1942 -0.1806  0.1214
23170W        W39431  14.609  18.327  13.704  0.1118  0.0202 -0.0240
23171W        W39432  14.394  14.979   4.786  0.1018 -0.0522 -0.1340
23172W        W39433   4.721   6.861  11.996 -0.3353 -0.2173 -0.0958
23173W        W39434  14.065  17.646   1.977 -0.0944  0.0014 -0.0051
23174W        W39435   2.564  10.971   9.816  0.1579 -0.1312  0.1806
23175W        W39436   9.214   8.920  11.520  0.0668  0.2384 -0.2159
23176W        W39437  17.865   8.399   3.853  0.2926 -0.1214  0.2171
23177W        W39438  11.149  11.374  14.465 -0.3388  0.1375 -0.2934
23178W        W39439   5.343   7.514   0.529  0.0559  0.2797  0.3299
23179W        W39440   2.331  13.687  12.057  0.0929 -0.1897 -0.1032
23180W        W39441  11.796  18.524  10.930 -0.1306  0.2199 -0.2266
23181W        W39442   0.449  11.268  11.214  0.1999 -0.2535  0.2780
23182W        W39443  14.126  18.105   4.927  0.0508 -0.0147 -0.0520
23183W        W39444  17.880   6.126  10.757 -0.2444 -0.1758  0.0166
23184W        W39445   6.584  13.027   0.395  0.0283  0.3165  0.4140
23185W        W39446   7.294  14.591   4.305  0.1748 -0.1065  0.0403
23186W        W39447  18.921   2.981  12.476 -0.3449  0.0390 -0.0705
23187W        W39448  16.207   0.823   3.415 -0.0343  0.3722 -0.0846
23188W        W39449   6.921  18.944   3.890 -0.5916  0.0841 -0.1821
23189W        W39450   6.145  17.633   3.170 -0.2153 -0.1268  0.0888
23190W        W39451   4.687  15.023  12.756  0.1159  0.4184 -0.1014
23191W        W39452   3.467   2.522   2.626  0.3324  0.1739 -0.0980
23192W        W39453   9.063   2.054  12.992 -0.3373 -0.1276 -0.1287
23193W        W39454  13.617   4.345  13.537 -0.0163 -0.2564  0.0578
23194W        W39455  15.621   5.161  12.792  0.2729 -0.3632 -0.1138
23195W        W39456   6.977   7.460   3.407 -0.0208 -0.2099  0.1887
23196W        W39457   1.348  15.493   4.513 -0.0097 -0.1461  0.1552
23197W        W39458  19.384  15.414   1.885  0.5711 -0.1344  0.1379
23198W        W39459   0.636   0.854   0.554 -0.1987 -0.0821 -0.2411
23199W        W39460   3.720  11.379  10.733  0.2937  0.0447  0.2851
23200W        W39461   7.593  13.252  11.323  0.1657 -0.0387 -0.0217
23201W        W39462   9.186   2.292  13.719 -0.4873  0.0937 -0.0397
23202W        W39463  14.256  11.048  12.527  0.2681  0.0287  0.0091
23203W        W39464  14.346  11.700  13.349 -0.1496 -0.0849  0.4272
23204W        W39465   0.274  12.567   2.367 -0.0251 -0.0520  0.0726
23205W        W39466  15.604   7.103   3.594 -0.0000 -0.3142  0.4932
23206W        W39467   4.226  13.650   1.367 -0.1509 -0.1011  0.4105
23207W        W39468  14.168  17.513  11.962 -0.1747  0.0791  0.1194
23208W        W39469  15.251  18.723   4.173  0.2047 -0.0618 -0.0706
23209W        W39470   8.792   1.858  10.866  0.0867  0.3331  0.3614
23210W        W39471  14.335  12.671   1.633  0.0248 -0.0496  0.2647
23211W        W39472   2.718   5.461  14.290 -0.1401 -0.2990  0.3051
23212W        W39473   7.272  15.894  13.157  0.0264  0.1854 -0.2586
23213W        W39474  11.823   9.067   3.876 -0.2019  0.0384  0.2337
23214W        W39475  11.328   4.365   0.575 -0.0437 -0.0891  0.3270
23215W        W39476  16.774   0.747  14.679  0.1612  0.0712  0.2185
23216W        W39477   4.814   6.642   2.452  0.1701  0.1946  0.1669
23217W        W39478  16.213   9.307  11.721 -0.1813  0.3209 -0.1796
23218W        W39479  18.854   8.899   0.545 -0.0562  0.2082 -0.1968
23219W        W39480  10.672   4.221  10.494  0.0446 -0.3193 -0.1731
23220W        W39481   9.389   5.418   2.916  0.1315  0.1618  0.1422
23221W        W39482   0.436  13.148  14.000  0.0458  0.2458 -0.1835
23222W        W39483  16.553  18.123   0.853  0.0868 -0.2438 -0.1376
23223W        W39484  10.297  12.724  12.206  0.6365 -0.0994  0.2435
23224W        W39485   1.304   8.247   0.870  0.3369  0.0693  0.1146
23225W        W39486   3.866   2.170  13.666 -0.1257  0.0975  0.1058
23226W        W39487  15.841   4.832  12.474 -0.1204 -0.3024 -0.1438
23227W        W39488  19.266  15.983   1.956 -0.2101  0.3587 -0.0607
23228W        W39489   2.008   5.341   3.272 -0.0653  0.3903  0.2450
23229W        W39490   1.074   5.384  10.577 -0.0333 -0.2082 -0.2092
23230W        W39491  10.884   8.721   0.636 -0.0770  0.0400 -0.0253
23231W        W39492   1.905  12.274   3.685  0.0032  0.2659 -0.1750
23232W        W39493   6.899   9.036  11.011 -0.1597 -0.1878  0.1835
23233W        W39494   3.295   0.482   0.597 -0.0916 -0.2325 -0.1353
23234W        W39495   8.684  11.318  13.182 -0.1506 -0.0517  0.4116
23235W        W39496   8.906   4.997  13.471 -0.2308 -0.0543 -0.0808
23236W        W39497  15.766   7.202  11.796 -0.0881 -0.2294  0.3098
23237W        W39498   0.359   6.304   1.535  0.1896  0.0093 -0.0773
23238W        W39499  10.242  12.412   5.333 -0.1394  0.1996  0.0944
23239W        W39500  11.784  18.120  13.392  0.1548  0.2348 -0.1560
23240W        W39501  18.089   6.089   4.022 -0.0602  0.1255  0.1644
23241W        W39502   4.985   5.179  12.069  0.2405 -0.0221 -0.2967
23242W        W39503   2.779   0.140   4.078 -0.0801  0.2650 -0.2478
23243W        W39504   1.541  17.931  12.334  0.3020  0.0525 -0.0012
23244W        W39505   3.107   6.373   0.659 -0.0665  0.3530  0.2817
23245W        W39506  14.897  16.658   4.566 -0.0046 -0.0080  0.0660
23246W        W39507  12.815   3.203  11.407  0.0636 -0.1676  0.1115
23247W        W39508   2.785  17.056  11.129 -0.2388  0.0753  0.1523
23248W        W39509  10.021  11.704  14.100  0.0446 -0.0175  0.3826
23249W        W39510   3.529  13.802  12.360 -0.1719  0.5150  0.2773
23250W        W39511   7.553   8.726   4.552 -0.0133  0.0513  0.1346
23251W        W39512   5.040  17.977  11.956 -0.2543 -0.0299 -0.1566
23252W        W39513  12.100  15.050   4.247  0.0721  0.0422  0.0924
23253W        W39514   6.243  15.653   2.196  0.2374 -0.2755 -0.2225
23254W        W39515   4.802   0.477  13.785  0.0702  0.1090  0.0340
23255W        W39516   1.460   1.404   4.567  0.1540 -0.2135  0.0754
23256W        W39517   3.137  10.698   0.303 -0.1289  0.2427  0.2302
23257W        W39518   1.894   7.243   0.688  0.2766  0.0392  0.0849
23258W        W39519   5.491   2.515   4.570  0.2600 -0.1747  0.1238
23259W        W39520  17.709   6.442   2.388 -0.2375 -0.1606  0.2437
23260W        W39521   6.709   6.812   3.526  0.0122 -0.0165  0.3125
23261W        W39522  17.019  10.760  12.828 -0.0671  0.0211  0.1637
23262W        W39523  11.197  16.454   1.525  0.1229 -0.1717  0.1862
23263W        W39524   8.164  13.315  12.553 -0.2720 -0.0730  0.0716
23264W        W39525   3.244  14.110  10.452  0.0158  0.1093 -0.3110
23265W        W39526   6.424  14.195   2.911  0.0582 -0.2395 -0.0779
23266W        W39527  19.044  17.181   3.322  0.1572 -0.1372  0.1930
23267W        W39528  11.496  17.343   4.976  0.2176 -0.2603  0.4249
23268W        W39529   8.325  15.120  13.870 -0.0031  0.0044  0.1637
23269W        W39530   7.078   5.500   9.165 -0.4098  0.3678  0.0316
23270W        W39531  10.772  17.790   0.125  0.2289 -0.1877 -0.0799
23271W        W39532   0.528  11.286   4.835 -0.0349  0.0096  0.1939
23272W        W39533  18.400  15.242   5.415  0.2693 -0.1385  0.1014
23273W        W39534  12.310  19.127  13.553  0.3058 -0.2560 -0.0366
23274W        W39535   5.180   5.982   9.508  0.1820 -0.1017  0.1052
23275W        W39536   8.505  13.069  12.089 -0.0577 -0.1260 -0.0658
23276W        W39537   5.685  10.104  12.288  0.2948 -0.1540 -0.0222
23277W        W39538   8.739  14.054  13.156  0.1664  0.5634  0.0299
23278W        W39539  12.812   4.224   4.212 -0.2311  0.4064  0.0050
23279W        W39540  16.202  17.172   0.575  0.0731  0.1023 -0.1707
23280W        W39541  19.152  15.169   0.882  0.2775 -0.3327  0.0663
23281W        W39542  10.859   9.380   4.329  0.2589 -0.0151 -0.3399
23282W        W39543  18.781   0.155   1.272 -0.2737 -0.1269  0.1968
23283W        W39544  12.772  11.813   4.386 -0.2577 -0.2803 -0.2720
23284W        W39545  11.901  12.262   3.236  0.2577  0.0628  0.1011
23285W        W39546   7.520  15.029  10.201  0.1808  0.0589  0.1531
23286W        W39547  14.110  16.111  11.063 -0.2250 -0.0585 -0.1348
23287W        W39548   9.665   4.193   4.513  0.0968 -0.5741  0.2882
23288W        W39549  13.154  17.322   3.493  0.2294 -0.2140 -0.0389
23289W        W39550  12.110  18.598  12.725 -0.1613 -0.0188  0.2508
23290W        W39551  14.611  11.106  13.196  0.0389  0.4363  0.1008
23291W        W39552  17.937   0.830  14.355 -0.0961 -0.1929 -0.1247
23292W        W39553   4.993  10.943  14.027 -0.0097  0.1766  0.1006
23293W        W39554   6.631  14.629  10.511  0.1531  0.1935 -0.1399
23294W        W39555   0.309  17.306   2.012  0.0914 -0.0764  0.0823
23295W        W39556  10.655   1.894   3.962  0.3711  0.0187 -0.0352
23296W        W39557  11.148  19.484  14.379  0.1327  0.1356 -0.0889
23297W        W39558   0.248   8.942  14.763 -0.1868  0.1199  0.2285
23298W        W39559   8.073   0.085  13.400  0.0999  0.0359  0.0924
23299W        W39560   4.102   9.590   1.587  0.1457 -0.1978 -0.1226
23300W        W39561   0.083   8.624   3.135  0.0801 -0.1706  0.0329
23301W        W39562  15.582  17.916  11.167  0.2044 -0.1098 -0.1874
23302W        W39563   1.890   1.278   0.487  0.3353 -0.2427 -0.1249
23303W        W39564  13.118   8.197   2.164  0.1008 -0.0543  0.2849
23304W        W39565  15.610  13.802  14.242 -0.1057  0.3421  0.2061
23305W        W39566   8.424  10.497   2.433 -0.2267  0.2911 -0.0396
23306W        W39567   6.418   7.924   2.112  0.2040 -0.1094 -0.0834
23307W        W39568  16.952   5.994   0.171 -0.1601 -0.0596  0.1892
23308W        W39569  18.908   9.774  11.422  0.0994  0.1229 -0.1646
23309W        W39570   3.470  18.375  12.399  0.3332 -0.0840  0.0422
23310W        W39571   4.210  18.374   4.484 -0.0157 -0.3188 -0.1543
23311W        W39572  14.614  16.017  10.878 -0.4034  0.2655  0.2016
23312W        W39573   9.264   5.080   0.953  0.0134  0.0198  0.0170
23313W        W39574  11.798   2.227  14.638 -0.2293  0.2965 -0.0631
23314W        W39575  12.890   2.366  11.418 -0.0816 -0.0206  0.1873
23315W        W39576  19.240   6.900   1.681 -0.0254 -0.1389 -0.2023
23316W        W39577  14.889  14.966   4.970  0.0224  0.2284  0.2063
23317W        W39578   6.880   0.378   4.765 -0.1299 -0.0192 -0.2556
23318W        W39579   3.047   6.762  12.474  0.0754 -0.1134 -0.0560
23319W        W39580  19.114   5.442  13.777  0.3209 -0.1122 -0.3005
23320W        W39581  15.372  13.262   1.579 -0.1377  0.4351  0.1161
23321W        W39582   1.006   5.401   2.743  0.2810 -0.0695 -0.1598
23322W        W39583  13.175   5.545   0.637 -0.0030 -0.1629 -0.1476
23323W        W39584   5.788  10.165  10.771 -0.1431 -0.2221  0.0250
23324W        W39585   1.855   5.198   2.779 -0.0339 -0.0677 -0.0317
23325W        W39586   5.754  12.453   5.577 -0.5138 -0.1392  0.1424
23326W        W39587   2.208  12.449  11.255  0.2924 -0.0785  0.3523
23327W        W39588   1.747   3.373   5.180 -0.0956  0.1364  0.5541
23328W        W39589  14.383   6.654   3.151  0.0049  0.2517  0.0446
23329W        W39590  10.188   5.418   3.447  0.1655 -0.0302 -0.0551
23330W        W39591  14.777   2.322  14.541  0.1982 -0.1738  0.1558
23331W        W39592   6.519   6.498   1.870 -0.2201  0.3987 -0.0543
23332W        W39593  11.786  18.332   3.883  0.0910  0.1460  0.0591
23333W        W39594  13.024   1.701  13.953  0.0931 -0.1718 -0.2758
23334W        W39595  19.053   8.883   2.825  0.0050 -0.0744  0.3131
23335W        W39596   2.453   2.851  11.636  0.2242 -0.2227 -0.4090
23336W        W39597   1.492   0.969   3.432 -0.0778 -0.0184  0.0459
23337W        W39598  18.276   3.781   2.830 -0.0581 -0.1552  0.1729
23338W        W39599   8.583   0.221  13.356 -0.0845 -0.1458 -0.1603
23339W        W39600   8.957  11.964   2.389 -0.2761 -0.1709 -0.0539
23340W        W39601  18.976   0.037   1.866 -0.7196 -0.0195  0.1281
23341W        W39602  16.896   7.033  12.654  0.1006  0.0347  0.2834
23342W        W39603   3.465   9.876   0.799  0.0819 -0.1380  0.0419
23343W        W39604   3.308   7.543   1.723 -0.1445 -0.0691  0.4008
23344W        W39605  13.194  11.262   2.050 -0.1061  0.1742 -0.0694
23345W        W39606  17.640  11.877  14.458 -0.2702 -0.2094  0.1275
23346W        W39607  10.825   2.417  10.656 -0.1106 -0.0371  0.0861
23347W        W39608  10.287  10.020  11.249  0.3260 -0.2416  0.0841
23348W        W39609  11.802   0.447   1.046  0.0182  0.2486 -0.1697
23349W        W39610   9.626  16.084  11.599 -0.1880  0.1511  0.0876
23350W        W39611   0.046   8.503  10.986 -0.4554  0.1735 -0.4021
23351W        W39612   3.609   6.151  11.450 -0.2603  0.0236  0.3103
23352W        W39613   9.874   2.367   4.275  0.2035  0.4748 -0.1605
23353W        W39614   7.743   1.441  12.930  0.1599  0.1654 -0.0906
23354W        W39615   7.937   3.404   9.664  0.3033 -0.1402  0.0081
23355W        W39616   0.412  13.752  14.204  0.0294  0.1632  0.1745
23356W        W39617   2.679   4.116  11.272  0.1034 -0.0347 -0.1586
23357W        W39618  17.963  17.607   0.107 -0.1805 -0.0608  0.0430
23358W        W39619  19.354  15.203  13.339 -0.0463 -0.1738  0.1502
23359W        W39620   5.106   1.301  13.042  0.0821 -0.2725 -0.0764
23360W        W39621  13.755   2.138  13.319 -0.0481  0.0813  0.3484
23361W        W39622  15.585   4.402   3.915 -0.0317 -0.0710  0.0303
23362W        W39623  14.337  13.183   1.603 -0.0173 -0.2754 -0.0875
23363W        W39624   9.482  13.948  10.704 -0.1986 -0.0611  0.0716
23364W        W39625  18.252  19.041   0.091  0.2821 -0.1658  0.0090
23365W        W39626  13.454  16.036  14.696 -0.3886  0.0129  0.2476
23366W        W39627   4.119  19.150  11.924 -0.0850  0.0810  0.1591
23367W        W39628  12.692   4.897   4.633 -0.0690 -0.2162  0.2255
23368W        W39629   1.425   9.605   4.981 -0.0697 -0.1707 -0.2189
23369W        W39630  12.059  18.979   5.242 -0.2374  0.2747  0.3092
23370W        W39631  16.259   9.059  11.104  0.1694 -0.1638  0.0611
23371W        W39632   5.914  11.641   1.425  0.2171 -0.2392 -0.2478
23372W        W39633   5.598   5.848  11.749 -0.2936  0.4514  0.0651
23373W        W39634   7.304  16.847  11.860  0.2150 -0.2629  0.3597
23374W        W39635  19.278  13.069  10.917  0.0030 -0.0265 -0.3259
23375W        W39636   3.209  18.726  13.704 -0.2449 -0.2002  0.0918
23376W        W39637   3.269   8.076  12.461  0.1438 -0.0085 -0.2800
23377W        W39638  16.132  11.190   1.860 -0.0906 -0.2041  0.2439
23378W        W39639   9.677  18.745  13.566  0.0092  0.1051  0.1696
23379W        W39640   1.712   8.946   4.389  0.0450 -0.4622  0.1483
23380W        W39641  14.801  18.365  12.865 -0.0371  0.0352  0.2351
23381W        W39642   0.152  17.693   2.314 -0.2668 -0.0052  0.0189
23382W        W39643   3.095  14.551   2.637  0.2768  0.0209  0.0391
23383W        W39644  12.089  11.956  12.811  0.0415  0.1807 -0.0976
23384W        W39645   7.981   1.348   3.149  0.0672 -0.1853 -0.2592
23385W        W39646  10.922  17.678  12.106 -0.3214  0.2144 -0.0677
23386W        W39647  10.089   0.874  11.035 -0.2570  0.3204 -0.1720
23387W        W39648  15.009   4.330   2.097  0.2205  0.1970 -0.0080
23388W        W39649   5.875   3.146  10.442 -0.0942 -0.0892  0.0275
23389W        W39650  12.310   4.055  13.177 -0.3635  0.2005  0.0726
23390W        W39651  12.513   2.058  14.587 -0.0269 -0.1311  0.1287
23391W        W39652  10.023   6.319   0.922 -0.1254  0.3636  0.0435
23392W        W39653  15.428   1.358   1.998 -0.1718 -0.5217  0.1260
23393W        W39654   8.781   5.732   1.648 -0.1411  0.2165 -0.1057
23394W        W39655  13.945  16.986  11.247  0.1913  0.2652  0.2165
23395W        W39656   2.146  11.423  10.690 -0.0694 -0.2686  0.0306
23396W        W39657   5.498   7.661  12.918  0.3710 -0.3351 -0.1120
23397W        W39658  13.761   6.986   0.008  0.1294  0.2232 -0.0166
23398W        W39659   0.177   4.270   2.716 -0.0008  0.1591 -0.0997
23399W        W39660   7.944   6.690   0.494 -0.1885  0.0698 -0.0495
23400W        W39661  14.805  18.058  11.545 -0.0129 -0.1933 -0.0137
23401W        W39662  18.832  11.197   2.566  0.2280 -0.2285 -0.0016
23402W        W39663   4.780  10.364   2.754  0.0301  0.0197  0.1819
23403W        W39664  11.888  16.102  13.791 -0.3510  0.0059  0.1501
23404W        W39665   3.660   3.922  12.329  0.0252 -0.1413  0.0830
23405W        W39666  13.580  16.750   3.943 -0.0069 -0.0198 -0.2784
23406W        W39667   2.224   2.451   0.752  0.3782 -0.0799 -0.1282
23407W        W39668   5.937   8.923   2.447  0.0796 -0.2007  0.1081
23408W        W39669  10.820  18.674   3.082  0.3647  0.2251 -0.0802
23409W        W39670   9.013  18.987   1.701  0.1738 -0.0766  0.3827
23410W        W39671   4.870  14.997   3.747  0.0404 -0.3434  0.1180
23411W        W39672  12.731  15.509  13.365  0.1781  0.2680  0.2083
23412W        W39673  16.263   9.508  12.253 -0.2255  0.4205  0.2218
23413W        W39674   9.360  12.810  13.578  0.1197 -0.0331  0.0413
23414W        W39675  16.777  13.647  14.697 -0.0167 -0.1517 -0.1267
23415W        W39676  10.208  12.334  12.611 -0.2295 -0.3724  0.0009
23416W        W39677  17.922   5.877   0.271  0.0293  0.0410 -0.2477
23417W        W39678  11.814  14.880   1.179 -0.0737 -0.0655 -0.0369
23418W        W39679   2.927  17.215  12.768  0.1653 -0.1493 -0.0572
23419W        W39680   4.353  13.694  13.327  0.0876 -0.2022 -0.3547
23420W        W39681  15.675   7.434   4.082  0.0615  0.0487  0.0838
23421W        W39682   3.795   1.916   1.318  0.0090 -0.1507 -0.0048
23422W        W39683  15.627  19.118  10.682 -0.3973  0.1047  0.0046
23423W        W39684   4.536  18.873   3.261  0.2359  0.0517 -0.1053
23424W        W39685   9.315   3.528  10.261 -0.3976 -0.3373 -0.0395
23425W        W39686  17.118   4.065  10.145 -0.2092 -0.0327 -0.0332
23426W        W39687  17.379   3.124   2.691  0.3397  0.1760  0.2768
23427W        W39688  15.993   4.106   3.149  0.1392 -0.0082  0.1624
23428W        W39689  12.019   4.590  13.823  0.0062 -0.3107 -0.1201
23429W        W39690  16.016   8.510  13.573  0.1045 -0.0217 -0.0468
23430W        W39691   4.438  16.045  12.693  0.0536 -0.2311  0.0112
23431W        W39692   5.559   3.874  10.938 -0.0744 -0.1363 -0.2546
23432W        W39693   0.269  15.340   4.584 -0.0466  0.1009 -0.0047
23433W        W39694  15.044  15.462   2.770 -0.2335  0.3008  0.1668
23434W        W39695  14.895   4.016  12.253 -0.4450  0.1339  0.1602
23435W        W39696   9.847  11.770  12.963 -0.1792  0.1525 -0.1581
23436W        W39697  17.776   8.286  11.526 -0.2515 -0.0982 -0.0961
23437W        W39698   2.615  16.258   4.345  0.2358  0.3162  0.1888
23438W        W39699   4.205   1.237   0.829  0.0839  0.0185  0.1419
23439W        W39700   5.827   7.777  12.081 -0.1527 -0.0687 -0.2704
23440W        W39701   3.193  12.920   1.525  0.1552  0.0735  0.3037
23441W        W39702  14.946   9.247  11.411  0.0998 -0.0137  0.0093
23442W        W39703  18.040  10.039  12.886 -0.0202 -0.0663 -0.1915
23443W        W39704   1.346   4.111   0.313  0.1227 -0.0272 -0.0875
23444W        W39705   5.355   8.871   0.867  0.0420  0.0816 -0.0767
23445W        W39706  19.027   2.119  12.481 -0.0322 -0.0276 -0.1511
23446W        W39707   7.918   1.660   1.678  0.0899  0.2195 -0.2045
23447W        W39708  11.648   1.270   0.569 -0.3365  0.0658 -0.1436
23448W        W39709  17.725  17.384   2.744 -0.2709  0.1199 -0.1155
23449W        W39710  15.895  10.322   3.764  0.2169 -0.2243  0.0668
23450W        W39711   5.096  10.791  10.384 -0.3654  0.1283  0.0533
23451W        W39712  14.778   2.643   2.715  0.0171 -0.0121  0.4021
23452W        W39713   4.443   2.872  10.217 -0.1010 -0.0884  0.1015
23453W        W39714   9.803   7.601   4.049  0.0556 -0.0998  0.0999
23454W        W39715   4.994   5.264  13.140 -0.1683  0.0016  0.1263
23455W        W39716  15.845  11.991   1.766  0.1048  0.1638  0.4186
23456W        W39717  17.535   7.752  11.543 -0.1449  0.1902  0.1895
23457W        W39718  11.695   0.691   5.654 -0.1664  0.1258  0.3089
23458W        W39719  13.058  17.661  12.481 -0.0871  0.2194 -0.0332
23459W        W39720   9.858  10.010   3.901  0.1325 -0.1685  0.0116
23460W        W39721  18.727  11.204  12.373 -0.0563 -0.0487  0.2988
23461W        W39722   4.016  11.604   3.322 -0.1522  0.3999 -0.0524
23462W        W39723  10.820   0.949  12.179  0.1009 -0.0512 -0.5181
23463W        W39724   5.582  13.862  13.590  0.0324  0.1951  0.0801
23464W        W39725  17.014   5.743  10.428 -0.1564 -0.2658 -0.3035
23465W        W39726  12.905  17.429  10.568 -0.1008  0.2850  0.0622
23466W        W39727   6.925  15.497   3.648  0.2690 -0.0367  0.2650
23467W        W39728  10.476   1.011   1.668  0.1880 -0.2887  0.1413
23468W        W39729   9.614   7.161   4.036 -0.0557  0.4095  0.4055
23469W        W39730  13.345   7.431  12.193 -0.3245 -0.1553  0.0873
23470W        W39731   3.097  10.035  14.464  0.1992  0.4070  0.1254
23471W        W39732   8.145  15.560   1.857  0.0858 -0.2207 -0.1459
23472W        W39733   4.593  10.338  13.918  0.2702  0.1328  0.1089
23473W        W39734   6.018   5.866  13.444  0.1291 -0.1633  0.1575
23474W        W39735  13.045  14.797  13.100 -0.0495 -0.0958 -0.0225
23475W        W39736   9.238   9.024   2.511  0.1421 -0.1322 -0.4229
23476W        W39737  16.301  14.583  14.577  0.3503 -0.0134 -0.0668
23477W        W39738  13.663   9.102   4.678 -0.0741  0.2401  0.4410
23478W        W39739   5.206   9.270   0.512 -0.2065 -0.2142 -0.2315
23479W        W39740  10.761  16.474  12.510 -0.4509  0.0524 -0.5488
23480W        W39741   5.560  18.046   5.646 -0.0541 -0.1687  0.2054
23481W        W39742   3.110   5.080  12.857  0.0091  0.1948 -0.2400
23482W        W39743  16.165  11.235   3.607  0.1954  0.1149  0.0389
23483W        W39744   4.613  13.224   0.551 -0.2036  0.2699 -0.1942
23484W        W39745  14.645   8.814   5.206 -0.0674 -0.0454  0.0437
23485W        W39746   4.436   0.562  11.209  0.0530  0.2449  0.2038
23486W        W39747  16.147  10.928   0.876 -0.1724  0.1539 -0.1544
23487W        W39748  17.676   1.082   9.450 -0.0682 -0.1751 -0.1976
23488W        W39749  10.353  13.219  12.087 -0.0868 -0.0444 -0.0598
23489W        W39750   1.496   6.077   1.870 -0.0745 -0.0880  0.0108
23490W        W39751  15.582   0.743  13.721 -0.3392  0.1743  0.0495
23491W        W39752   9.673  18.379   4.066 -0.0689  0.2466 -0.3979
23492W        W39753  11.160   3.974  12.472 -0.3537  0.0280 -0.1141
23493W        W39754  19.279   2.355   5.532 -0.0814 -0.2543  0.1847
23494W        W39755   1.786   1.733  14.763 -0.0490  0.0849 -0.1636
23495W        W39756   3.514   9.804  14.712 -0.1916 -0.2126 -0.0923
23496W        W39757  12.199  17.424  12.972  0.1551 -0.1298  0.0052
23497W        W39758   3.319   4.660  14.302 -0.0384  0.0405 -0.1592
23498W        W39759   3.457   4.416  11.664 -0.0332  0.1564  0.2060
23499W        W39760   8.357   4.109   2.144 -0.1308  0.2911 -0.2636
23500W        W39761  11.018  12.788  14.423  0.0554 -0.1211 -0.0443
23501W        W39762   0.754   7.822  12.785  0.0786 -0.0701  0.0703
23502W        W39763  10.773  10.687   2.251 -0.1338  0.0046  0.0977
23503W        W39764  15.066  12.236   5.050 -0.2051  0.0581  0.3682
23504W        W39765  17.082   7.454  12.488 -0.0053 -0.0121 -0.5209
23505W        W39766   0.318  17.604   9.906  0.2493 -0.3305 -0.2692
23506W        W39767   7.777  10.420   4.776 -0.1444 -0.2428 -0.0307
23507W        W39768  10.957   8.805  13.384  0.4545 -0.1064 -0.3416
23508W        W39769   0.916  12.605  11.443  0.2840  0.1021  0.1125
23509W        W39770  10.386  19.209  11.822  0.1097 -0.0466  0.2460
23510W        W39771  17.241   7.449   2.332  0.1024 -0.0571 -0.2817
23511W        W39772  10.586  15.542  12.502 -0.0367 -0.2090 -0.1241
23512W        W39773  14.041   0.325   5.091 -0.1425 -0.0080  0.1342
23513W        W39774  18.797  14.360   1.033 -0.1594  0.1592 -0.2036
23514W        W39775  10.810  16.312  11.820  0.0759  0.2372 -0.0863
23515W        W39776   9.170   6.867   3.965 -0.0151  0.2104 -0.0993
23516W        W39777  12.778   5.383  13.568 -0.0505 -0.1262  0.1158
23517W        W39778   5.885   0.603   2.278  0.2036 -0.4231 -0.0579
23518W        W39779   4.039  17.714  11.711  0.0106  0.0192 -0.2094
23519W        W39780  16.165   0.441   4.703  0.0988 -0.2124 -0.0024
23520W        W39781   6.750   7.900   1.530  0.0267  0.1479 -0.4317
23521W        W39782   3.193  12.381  12.933 -0.0970 -0.0602  0.0392
23522W        W39783  18.792  13.062   2.630 -0.0440 -0.0896 -0.4928
23523W        W39784  16.508   3.940   1.841 -0.2546 -0.1120 -0.1112
23524W        W39785  17.134  11.502  11.706  0.4864  0.2847 -0.2876
23525W        W39786   9.637  12.035   4.300 -0.2369  0.1620 -0.4047
23526W        W39787  16.209   3.839  13.325 -0.2547  0.4454 -0.2713
23527W        W39788  16.317   0.595   3.872  0.0207  0.3149 -0.2216
23528W        W39789  12.593  15.164  11.469  0.0080  0.1586  0.3097
23529W        W39790   7.818   2.081   9.966 -0.1189 -0.0946 -0.0811
23530W        W39791   8.045   6.414   4.069  0.1422 -0.2334  0.0059
23531W        W39792  18.537   8.912   2.580 -0.0650 -0.2175  0.1852
23532W        W39793  14.684  13.934  13.248 -0.0814  0.2942  0.0409
23533W        W39794   5.253  10.511  12.295 -0.3965 -0.0880  0.0259
23534W        W39795   6.930   0.172  14.176 -0.1617 -0.3154 -0.0637
23535W        W39796  13.948   5.528  11.767  0.0669  0.3367 -0.2634
23536W        W39797   3.109   2.712   0.506 -0.0823 -0.1602  0.1201
23537W        W39798   6.419  12.131  14.492  0.0027  0.0691 -0.1150
23538W        W39799   5.195   1.657   4.246  0.1378  0.1068 -0.1777
23539W        W39800   7.546  12.359   0.721  0.2534  0.2959  0.1715
23540W        W39801   1.400   4.240  10.252  0.3391 -0.1063  0.1149
23541W        W39802   3.842   7.839  13.900 -0.1770 -0.1183  0.0736
23542W        W39803   9.205  10.815   0.401 -0.0178 -0.0464  0.0278
23543W        W39804   6.376   4.401   1.907 -0.0665  0.1282 -0.0557
23544W        W39805  13.600  17.824  11.163  0.1647  0.0364  0.0915
23545W        W39806   6.822   3.703   1.379  0.1089  0.0779 -0.0750
23546W        W39807  18.113  18.823   1.147  0.0632 -0.0569  0.1353
23547W        W39808  16.888   1.169   2.117  0.0055 -0.1147 -0.3297
23548W        W39809  15.113   9.258  14.011  0.1739 -0.1894  0.1371
23549W        W39810   3.017   1.496   1.548  0.0416 -0.3816 -0.1031
23550W        W39811   0.522  18.371  14.012  0.2489 -0.0493 -0.1328
23551W        W39812  11.136  12.503  13.323  0.3302 -0.2254 -0.0284
23552W        W39813  11.958   9.762   4.861 -0.0546  0.0873  0.3134
23553W        W39814   5.085  14.590  11.258 -0.0451  0.0796 -0.0387
23554W        W39815  17.942   1.547  12.503  0.2960 -0.1157  0.1634
23555W        W39816   8.551  13.405  11.581 -0.0946  0.1029  0.2028
23556W        W39817  17.541   3.118  12.310  0.1342 -0.0159 -0.2082
23557W        W39818   2.567  12.492   4.118 -0.2344 -0.1676 -0.1970
23558W        W39819  14.012   4.678  13.393  0.0582  0.2551  0.2449
23559W        W39820  17.255   3.826   1.061 -0.1304 -0.0713 -0.0595
23560W        W39821  12.348  10.092   1.362  0.4843 -0.0801  0.1413
23561W        W39822   9.918  10.570   1.299 -0.0021  0.0104  0.1222
23562W        W39823  15.508   7.838   2.039 -0.0722  0.0244  0.1519
23563W        W39824  13.679   0.049  12.292 -0.2403 -0.2160 -0.0467
23564W        W39825   1.155   5.079   5.044 -0.3196 -0.2087 -0.2409
23565W        W39826   7.629   1.937  12.838 -0.1085 -0.0846  0.0428
23566W        W39827   8.372  15.901   2.243  0.0021 -0.1880  0.1835
23567W        W39828  19.222  19.223  10.235 -0.1502 -0.2428 -0.2462
23568W        W39829  10.924  16.951  13.307 -0.1531  0.1328 -0.1480
23569W        W39830   6.396  15.710   4.455  0.2626  0.1791  0.2258
23570W        W39831   1.580   3.497   2.164 -0.1946  0.1465 -0.0020
23571W        W39832   7.169   9.991   1.428  0.0873  0.0598  0.0200
23572W        W39833   3.769  10.307   9.918 -0.1159 -0.3894 -0.1982
23573W        W39834  13.170   2.606   1.886  0.1506  0.1235  0.0298
23574W        W39835  16.419  15.859  10.537 -0.1321 -0.1393  0.0494
23575W        W39836   0.756   4.458   4.737  0.5240 -0.3932 -0.2926
23576W        W39837   8.553   4.629  11.820 -0.1870 -0.1981 -0.0744
23577W        W39838   0.451  14.071   1.711  0.0777 -0.2463  0.2249
23578W        W39839  11.217   7.162  12.881  0.0823 -0.0776  0.0800
23579W        W39840   6.115   6.025   3.623  0.1674 -0.0923  0.2532
23580W        W39841  16.695   1.927   0.894  0.1287  0.0270  0.0832
23581W        W39842   0.449  11.154  11.780 -0.1921 -0.0006 -0.0846
23582W        W39843  19.244   7.845  14.078 -0.0037  0.2064  0.0110
23583W        W39844  18.376  12.183   1.638 -0.1620 -0.0886 -0.0301
23584W        W39845  16.900   5.043   1.588 -0.0974 -0.0261  0.0342
23585W        W39846   6.058   2.726   3.406 -0.2156  0.3280  0.0572
23586W        W39847  16.965   2.354   5.194 -0.0716  0.0166  0.0772
23587W        W39848  13.479   9.199  11.169  0.2556 -0.0010 -0.1335
23588W        W39849  16.062   6.120  10.759  0.0183 -0.1117  0.0260
23589W        W39850  15.468   4.346  11.670 -0.1403 -0.0781 -0.2485
23590W        W39851  12.441  11.714  14.748  0.1826  0.3080  0.3345
23591W        W39852   6.948   1.098  10.979  0.0608  0.4883 -0.2413
23592W        W39853   9.010  17.803   9.762  0.1698  0.2386  0.0249
23593W        W39854  16.071   7.443   4.383 -0.0722 -0.2989  0.1126
23594W        W39855   2.997   3.443  10.670 -0.1509  0.2361 -0.1449
23595W        W39856   8.639   4.555  14.388  0.0641  0.2865 -0.1217
23596W        W39857  14.073   4.042  11.702  0.0181  0.1724  0.3321
23597W        W39858  18.473   0.337  12.383 -0.2863 -0.0731  0.1520
23598W        W39859   3.843   9.619  14.369 -0.2651  0.5330 -0.1074
23599W        W39860   3.509  10.232   1.339  0.1156  0.2362  0.0795
23600W        W39861  10.050   7.371  13.403 -0.1675  0.1290 -0.2321
23601W        W39862  15.405   6.093   1.158  0.1049  0.3569 -0.1177
23602W        W39863   8.349   7.027  13.298 -0.0868  0.1601  0.1141
23603W        W39864   5.248  14.160   1.121  0.0671 -0.1230 -0.2209
23604W        W39865   3.221  18.091  13.325  0.0896  0.1876  0.1356
23605W        W39866   3.268   7.031  10.876 -0.2779 -0.0147  0.0764
23606W        W39867  12.033  15.167   0.363  0.0813 -0.3327 -0.0875
23607W        W39868   9.506   9.634  14.531 -0.1156 -0.1114 -0.3479
23608W        W39869   8.602  19.257   0.193 -0.2653 -0.0325  0.1373
23609W        W39870  10.524   5.072   1.247 -0.5766  0.0965  0.0505
23610W        W39871  12.462   7.392  11.881  0.0176  0.0157  0.2290
23611W        W39872  11.086  10.204  13.666  0.2725 -0.3664 -0.0438
23612W        W39873   7.371   5.111   8.955 -0.1909  0.2500  0.1498
23613W        W39874   6.785  18.803  10.975  0.2280 -0.0165 -0.0335
23614W        W39875   5.879   5.572   3.639 -0.2282 -0.0774  0.1062
23615W        W39876   0.900  16.204   4.307 -0.0584  0.1238 -0.0183
23616W        W39877   8.508   1.984  13.933  0.1880 -0.3144 -0.1472
23617W        W39878  16.535   8.318   9.335  0.1127 -0.1045  0.2779
23618W        W39879  13.971   7.836   4.533 -0.0966  0.0127  0.0628
23619W        W39880   7.520   3.340   2.875 -0.3054 -0.1354  0.2823
23620W        W39881  10.053  11.404   4.809 -0.0023 -0.1832  0.3165
23621W        W39882  15.892  15.360  14.367 -0.0736  0.2357 -0.1044
23622W        W39883  17.611  15.088  13.680 -0.0639 -0.2186  0.0280
23623W        W39884  15.570  13.047  11.082 -0.2059 -0.1988 -0.0340
23624W        W39885   5.889   6.220  13.963 -0.2682 -0.1633  0.1202
23625W        W39886   2.740   6.884  10.776  0.3519  0.3179 -0.1583
23626W        W39887  12.912   8.569  14.509 -0.1224  0.1973  0.1195
23627W        W39888  17.851  19.323  14.575 -0.1374 -0.1365 -0.0906
23628W        W39889   0.878  11.001  12.008 -0.1200 -0.1729  0.0787
23629W        W39890  18.847   4.278   4.827  0.4128  0.0025  0.1306
23630W        W39891   6.882   7.244  13.794  0.3108 -0.1740 -0.0651
23631W        W39892  14.776  14.078  12.708 -0.0400  0.1483  0.0283
23632W        W39893  12.428  11.506   3.674  0.0467  0.1232 -0.1444
23633W        W39894   9.187   0.728   3.549 -0.1603 -0.1626  0.1378
23634W        W39895   2.441  18.843  13.219  0.0896  0.1511  0.3275
23635W        W39896   1.942  12.327  13.701  0.3407  0.0581  0.2476
23636W        W39897  16.052  15.427   3.766 -0.1163 -0.0972  0.4143
23637W        W39898  17.170   2.323  12.792 -0.1805 -0.0796  0.2502
23638W        W39899  11.563  12.739   1.614 -0.1901 -0.0807  0.0159
23639W        W39900  17.888  16.770   5.149 -0.1517 -0.0884  0.1370
23640W        W39901   8.279  18.119   4.037 -0.2235  0.0983  0.1033
23641W        W39902   2.906   8.391  12.389  0.2664 -0.2270  0.1599
23642W        W39903  11.785  15.316  14.749  0.3251 -0.0022 -0.0326
23643W        W39904   7.382  16.440  13.176  0.4505 -0.4534 -0.2693
23644W        W39905   9.718  18.346  12.554 -0.2693 -0.0957  0.0707
23645W        W39906   8.619  19.134  12.831 -0.0291  0.1685  0.2858
23646W        W39907  15.962  12.557  14.243 -0.1608  0.0102  0.2230
23647W        W39908   6.162   2.345   1.516  0.2469 -0.0160 -0.0104
23648W        W39909  18.849   6.993   1.987 -0.0670 -0.2351  0.0156
23649W        W39910  19.232  18.020   0.351 -0.1350  0.0207 -0.2825
23650W        W39911  17.844  10.739   3.714 -0.1289  0.2048  0.2726
23651W        W39912   4.563  14.494  14.584  0.1219  0.0434  0.1925
23652W        W39913   8.231   7.423  11.919  0.3290  0.0170 -0.0380
23653W        W39914  14.641  12.493   5.161  0.3894  0.2206 -0.1941
23654W        W39915   3.332  16.892   0.039  0.0010 -0.0927  0.0686
23655W        W39916   4.467   4.248   1.138  0.0815  0.0007  0.0133
23656W        W39917  11.697   4.663   1.962 -0.0725  0.3027 -0.0226
23657W        W39918   0.007  11.890   3.069  0.0803  0.2038  0.2967
23658W        W39919   7.419  12.109   3.238 -0.0520  0.1108 -0.0982
23659W        W39920  19.286  13.195  10.326 -0.0602 -0.1845  0.0064
23660W        W39921  11.086  16.472  11.366 -0.0675 -0.0350 -0.6814
23661W        W39922   0.284   3.473  13.950 -0.0477  0.0098 -0.1634
23662W        W39923   9.291  10.493  14.162  0.0888  0.3175  0.5279
23663W        W39924  18.073  11.421  11.364 -0.1783 -0.1050 -0.1257
23664W        W39925   2.385  10.672  14.626 -0.0948 -0.1096 -0.1556
23665W        W39926   9.867   1.756   4.383 -0.1002 -0.0787 -0.1203
23666W        W39927  15.399  16.976   4.365  0.2689 -0.0686 -0.2482
23667W        W39928  15.251  18.464   0.025 -0.1137 -0.2075  0.2358
23668W        W39929   2.585  16.909   2.578 -0.0649 -0.1539  0.4877
23669W        W39930   6.740  11.154  10.312  0.2011  0.0298 -0.3693
23670W        W39931  15.615   4.326   1.670 -0.1626 -0.2471 -0.0766
23671W        W39932   3.220  17.850   0.487  0.1854  0.0400  0.0573
23672W        W39933   0.203   6.746   1.874 -0.3460  0.2075 -0.2011
23673W        W39934   6.327  12.760   0.920 -0.2447  0.3558  0.0252
23674W        W39935  12.691  13.454  12.764  0.0049  0.1006 -0.0864
23675W        W39936   8.994  12.800   0.737 -0.0922 -0.1919 -0.2008
23676W        W39937   7.336   6.269   0.226  0.0783 -0.0822  0.0664
23677W        W39938  12.733   4.125  11.058  0.4953  0.1996 -0.2230
23678W        W39939   0.332  17.116   0.958  0.1636  0.0854 -0.0885
23679W        W39940   3.347   2.328  11.228 -0.2556  0.0024  0.0888
23680W        W39941   4.923   2.885  13.379  0.1444  0.1228 -0.1174
23681W        W39942   2.926   4.044  13.231 -0.2317 -0.3579 -0.2179
23682W        W39943  19.404   9.630   2.252  0.0189  0.0412 -0.0703
23683W        W39944   0.232   0.224  14.046 -0.1219 -0.2229 -0.1056
23684W        W39945   8.186  14.497  12.538  0.2538  0.2515  0.0306
23685W        W39946   4.244   7.105   3.703  0.0193 -0.0888 -0.0249
23686W        W39947   5.763  13.118  13.241  0.0366  0.3348  0.0010
23687W        W39948   9.354  12.316  10.059 -0.1866  0.1331 -0.0596
23688W        W39949  10.623   5.123  14.752 -0.0240  0.1600  0.3542
23689W        W39950   3.936   1.635   0.118 -0.1813  0.0603 -0.1182
23690W        W39951  15.690   3.621   2.051  0.3706  0.2525 -0.0304
23691W        W39952  17.405   7.254   1.538 -0.1282  0.2448  0.3426
23692W        W39953  14.008  18.378   3.394 -0.1654 -0.0459  0.1667
23693W        W39954   3.171   8.913  14.735  0.1028  0.0882 -0.1155
23694W        W39955  11.441  10.474  11.233 -0.0728 -0.1408  0.0089
23695W        W39956   5.918   0.299   3.981 -0.3048 -0.3037  0.1218
23696W        W39957   3.164   9.324  12.968 -0.0295  0.0445 -0.0344
23697W        W39958   7.369  17.659  10.118 -0.1353  0.2650  0.0267
23698W        W39959  17.760   3.156  11.849 -0.2450  0.0075  0.4068
23699W        W39960  18.835   5.997   1.585  0.1358  0.4061 -0.1627
23700W        W39961   8.184   3.479  14.514  0.1962  0.2626 -0.4641
23701W        W39962  15.470  10.841   0.576  0.3338  0.4882 -0.0435
23702W        W39963   4.580  15.478  11.438 -0.0364 -0.1863  0.0699
23703W        W39964  17.733  10.168  10.838  0.0343 -0.1165  0.0833
23704W        W39965   2.584   6.718   4.301  0.0136  0.1270 -0.1427
23705W        W39966  10.629   0.553  11.857  0.2345  0.1408  0.1734
23706W        W39967  12.137   1.551   0.495  0.3322  0.4583  0.1893
23707W        W39968  11.832  15.319  10.724  0.0634  0.1284  0.3265
23708W        W39969   6.853   9.253   9.956  0.0766  0.1229  0.1378
23709W        W39970  14.991   8.150  13.018 -0.0106 -0.0938 -0.3026
23710W        W39971   1.799   1.142   3.853 -0.0889 -0.0823 -0.1052
23711W        W39972   2.576   6.607  12.762 -0.0083 -0.0680  0.1991
23712W        W39973   3.242   0.019   0.155 -0.2556  0.0383 -0.0704
23713W        W39974   4.868   2.557  12.272  0.1967 -0.0857  0.0123
23714W        W39975  17.429   3.386  13.712 -0.2727 -0.1216 -0.0106
23715W        W39976  15.968   2.734   4.444 -0.0786  0.1015  0.2877
23716W        W39977  12.096   0.805  14.589  0.0106  0.0130  0.3034
23717W        W39978   4.745   7.189   1.777  0.2714 -0.3194  0.3063
23718W        W39979   4.266   1.888   2.355 -0.1114  0.0715  0.2778
23719W        W39980   5.697   2.463  13.892  0.0807 -0.1072 -0.3105
23720W        W39981   2.087  12.157   0.605 -0.1393  0.2494 -0.0022
23721W        W39982   5.086   7.396   3.159  0.0008 -0.2355  0.0123
23722W        W39983   3.492  12.839  12.766 -0.1357 -0.3715  0.0327
23723W        W39984   7.594  17.620  12.957 -0.1316  0.0447  0.0566
23724W        W39985  18.728   1.316  10.345  0.4021  0.0292 -0.1838
23725W        W39986  18.083  16.436   3.843  0.2161 -0.3130 -0.1513
23726W        W39987   0.224  10.298   4.992  0.0436 -0.0442  0.2380
23727W        W39988  13.347   1.087   4.144 -0.0187 -0.0640 -0.4436
23728W        W39989   3.390   4.651  12.884 -0.0450  0.2630 -0.1995
23729W        W39990   9.603   1.237   1.392  0.0806 -0.1672 -0.0014
23730W        W39991   0.611  13.611   0.995  0.0362  0.0197  0.3186
23731W        W39992   7.910   4.479   2.477 -0.5612 -0.1860  0.2474
23732W        W39993  19.306   4.021   0.878 -0.1747  0.1629  0.1357
23733W        W39994  15.501   6.533   0.823 -0.1367 -0.0701 -0.1218
23734W        W39995   7.250   2.063  13.200 -0.0628 -0.0294 -0.3812
23735W        W39996  18.687   6.099  11.261  0.2557  0.0229 -0.0950
23736W        W39997  10.562  12.332  10.752 -0.1121  0.2172 -0.0993
23737W        W39998  12.373   3.763  13.555 -0.0838  0.1344  0.2017
23738W        W39999   6.640  12.457   4.785  0.1978  0.3482  0.1981
23739W        W40000  12.538  10.454  13.774  0.0922 -0.0042 -0.2744
23740W        W40001   0.657  10.301   3.263  0.0026  0.2321  0.2092
23741W        W40002  11.222   5.303  11.822  0.1797  0.0305 -0.1813
23742W        W40003   6.144  14.894   9.698  0.2489 -0.0122  0.2669
23743W        W40004   7.225   1.706   1.496  0.1683  0.0640  0.1373
23744W        W40005   0.199  14.575  12.557 -0.1705 -0.0095 -0.1174
23745W        W40006   3.347   9.798  10.679 -0.2042 -0.0246 -0.0708
23746W        W40007   9.617  15.171  14.349 -0.2868 -0.2365 -0.0245
23747W        W40008   6.622  16.788  11.586  0.1412 -0.2320 -0.2590
23748W        W40009  12.335  14.757  14.791 -0.0348  0.3025 -0.0426
23749W        W40010   5.650  19.241   0.700 -0.0679  0.3007 -0.1126
23750W        W40011   5.959   5.970   1.633 -0.1856  0.0699  0.0738
23751W        W40012   6.300  18.277   2.463 -0.1878  0.1711  0.4589
23752W        W40013  11.277   8.249   1.485  0.2056  0.0350  0.1076
23753W        W40014   3.693  11.839   2.138 -0.0910  0.1759  0.0101
23754W        W40015  11.776   1.643  11.478 -0.0301  0.3108  0.0951
23755W        W40016   7.111  16.192   4.122 -0.1839  0.2701 -0.0449
23756W        W40017  13.985  18.519   0.530  0.2089  0.3433  0.0805
23757W        W40018   4.300  13.324   3.700  0.0017 -0.1838  0.1448
23758W        W40019   9.825   3.629   5.297  0.1021 -0.0740 -0.3270
23759W        W40020   7.083   1.728  14.739 -0.0217  0.1565  0.2265
23760W        W40021   5.617   2.416   1.473  0.0317 -0.4360 -0.3537
23761W        W40022   3.682   4.248  10.055  0.2177 -0.1017  0.3250
23762W        W40023   6.057   0.333   2.705  0.0599  0.0786  0.2199
23763W        W40024  10.388  19.306  10.275  0.1439 -0.3413 -0.3488
23764W        W40025  15.088  15.089   3.864  0.0123  0.1477 -0.0500
23765W        W40026   3.198  16.793  11.069 -0.0608  0.5545 -0.1554
23766W        W40027  10.206  13.588  12.845  0.0312 -0.2176  0.1045
23767W        W40028  13.959  15.118   2.098 -0.1023  0.1504 -0.0173
23768W        W40029  11.525   5.102   3.625 -0.0171  0.1212 -0.1576
23769W        W40030  15.184  11.476  11.380  0.0811 -0.1834 -0.1178
23770W        W40031   7.549  14.325   4.935 -0.1582  0.1747 -0.0258
23771W        W40032  13.331  15.900   4.932  0.0453 -0.0106  0.1448
23772W        W40033  13.286  12.627   1.962 -0.0941  0.0118 -0.1518
23773W        W40034   0.063   5.113  10.418  0.0518 -0.2366 -0.0532
23774W        W40035  10.169   0.289  11.221  0.0695 -0.1438  0.0741
23775W        W40036   3.939  18.481  13.944 -0.0575 -0.0295  0.2164
23776W        W40037   4.065  13.814   1.861 -0.2227  0.1385 -0.1423
23777W        W40038  19.145   6.013  13.243 -0.1705 -0.0966  0.2840
23778W        W40039   2.668  13.968   5.459  0.1799 -0.2144  0.0773
23779W        W40040  15.099  15.256   5.362 -0.0920 -0.2279 -0.2013
23780W        W40041   2.554  13.354  11.706 -0.0567 -0.2351 -0.2913
23781W        W40042   3.912   0.816   2.170  0.0746 -0.0590  0.0598
23782W        W40043  18.138  15.971   3.024 -0.1453 -0.0451  0.4008
23783W        W40044  16.053  15.796   1.813 -0.5178  0.3715  0.0034
23784W        W40045  15.911  19.021   1.055 -0.1170  0.3929 -0.6183
23785W        W40046  10.254   0.539   5.263 -0.2047 -0.0184  0.3550
23786W        W40047  13.487  17.529  12.358 -0.0814  0.1823  0.1376
23787W        W40048   0.312   3.198   1.499 -0.3126  0.5036  0.0784
23788W        W40049  15.245   4.243  12.642  0.2532  0.0028  0.1418
23789W        W40050   1.359   0.965   0.571  0.2334 -0.0155 -0.0152
23790W        W40051  18.757  12.132   2.051  0.2082  0.0336 -0.0776
23791W        W40052  14.585   6.286  11.847  0.0803 -0.0221 -0.3294
23792W        W40053   1.303   4.264   0.801  0.0104  0.1082  0.0747
23793W        W40054  19.436  18.797  11.600 -0.1311  0.2854  0.0688
23794W        W40055  13.301   4.056  10.331 -0.1972  0.1840  0.0051
23795W        W40056   7.625  14.239   4.463 -0.2630  0.0595  0.0338
23796W        W40057  10.744   7.895   9.865  0.0191 -0.0391  0.0058
23797W        W40058   4.746   1.406   4.351 -0.0137  0.1115 -0.0154
23798W        W40059  10.059   9.642  14.539 -0.0830 -0.3766 -0.2275
23799W        W40060   5.402   0.036   4.100 -0.3426  0.0029 -0.1563
23800W        W40061   7.804   2.478   0.542 -0.0016  0.1963 -0.0524
23801W        W40062  19.319  10.766  10.719 -0.1610  0.1718  0.0681
23802W        W40063   2.714  14.431  11.061  0.0101 -0.2376 -0.1326
23803W        W40064   3.501   9.652  13.439 -0.0676 -0.3357  0.0344
23804W        W40065   2.506  13.457   3.915  0.0340  0.0504  0.2927
23805W        W40066  17.556   9.478  14.113 -0.0041  0.3679 -0.0073
23806W        W40067   9.625  16.132  13.209  0.3817  0.0668 -0.0269
23807W        W40068   8.913   7.607   9.825  0.1462  0.3640  0.0948
23808W        W40069   9.506  14.650   3.386 -0.1683 -0.1243 -0.1670
23809W        W40070  12.136  10.469   1.045 -0.0168 -0.1755 -0.1154
23810W        W40071  16.650   3.294   0.621  0.0238 -0.3568  0.0093
23811W        W40072  16.496   4.713   1.597 -0.1133 -0.1242 -0.1267
23812W        W40073  14.338   1.422   1.595 -0.5615  0.1991 -0.1648
23813W        W40074   4.563  16.856  13.946 -0.3819 -0.0018  0.4094
23814W        W40075   5.537   3.844   2.167  0.1356  0.1247  0.2392
23815W        W40076  10.906   7.797   1.570 -0.2139 -0.0576  0.0003
23816W        W40077  18.783   7.002   1.401  0.3330  0.1355 -0.0766
23817W        W40078  11.630   4.362   2.766  0.3972 -0.0864  0.0995
23818W        W40079   0.891  16.303  12.696 -0.4306 -0.3000  0.0876
23819W        W40080   4.914  12.640   3.957  0.0141 -0.0874  0.2081
23820W        W40081   0.792   4.287   2.661 -0.1197  0.0586 -0.0325
23821W        W40082   4.129  13.917  13.811  0.0111 -0.1308 -0.0714
23822W        W40083  10.191  10.039   0.022 -0.2173 -0.1836  0.1263
23823W        W40084  14.297  14.207  11.632 -0.0921 -0.1954 -0.2414
23824W        W40085  11.262  13.836  14.349 -0.1094 -0.0667  0.2318
23825W        W40086   1.958  10.564  13.263  0.2565 -0.5154 -0.0230
23826W        W40087  10.647  15.259   0.092 -0.2127  0.1783  0.1647
23827W        W40088   9.222   2.519  13.227  0.0507 -0.1955  0.0448
23828W        W40089   5.694  15.375   2.908  0.1592 -0.2380 -0.1210
23829W        W40090   3.908  16.880  11.772  0.0112  0.1961  0.2829
23830W        W40091   3.311   7.042   3.605  0.0919 -0.1073 -0.1262
23831W        W40092  19.156  15.518   4.939 -0.0906 -0.1366  0.3902
23832W        W40093   6.052   5.738   9.433  0.1331  0.0421 -0.0090
23833W        W40094  16.161   7.014   9.836  0.1713  0.1871 -0.2343
23834W        W40095   5.956  17.090  14.289 -0.0069 -0.3684  0.2461
23835W        W40096  17.820   4.438  12.321  0.2433  0.3002 -0.2204
23836W        W40097  11.622   0.667  14.286 -0.1330 -0.6994  0.1048
23837W        W40098   7.443  10.489   2.465 -0.0423  0.1197 -0.0344
23838W        W40099  14.669  13.674   3.736  0.0077  0.1433  0.1120
23839W        W40100   1.160   6.490   0.615 -0.0840 -0.0707 -0.2890
23840W        W40101  10.370  17.114   0.991 -0.5378 -0.1628  0.4223
23841W        W40102   4.756  17.313  13.822  0.1060  0.3958  0.5045
23842W        W40103   1.987   9.625   2.375 -0.3420  0.0167  0.1668
23843W        W40104   0.466  16.094   4.514  0.2663 -0.0286 -0.1184
23844W        W40105   2.872   7.717   1.891 -0.0364  0.3749  0.1436
23845W        W40106  18.974  10.266  10.775 -0.0570  0.1581 -0.2504
23846W        W40107   3.149  15.250   2.563 -0.2427  0.4004  0.2009
23847W        W40108  18.336   7.754   3.118 -0.0678  0.2033  0.0245
23848W        W40109  14.147   5.169  10.511  0.0204 -0.0886 -0.3816
23849W        W40110   9.535   3.240   3.825  0.1401  0.2796 -0.2162
23850W        W40111  14.645   0.383   5.714 -0.1135  0.2947 -0.0271
23851W        W40112   2.856   0.741  11.285 -0.3302  0.0224 -0.0281
23852W        W40113   7.355  10.407   4.004  0.7343  0.1453 -0.0803
23853W        W40114  11.597  19.378  10.732  0.1916  0.1056  0.0699
23854W        W40115   7.949  11.264  12.209  0.3767 -0.2566  0.0438
23855W        W40116   0.334  17.375  11.502 -0.0860  0.0579  0.2473
23856W        W40117   5.887   6.742   4.753  0.1026 -0.0145 -0.3534
23857W        W40118   3.767  12.321   2.332 -0.1301  0.2400  0.1033
23858W        W40119   8.453   6.283   2.463 -0.2998  0.0566 -0.0053
23859W        W40120   9.373   2.967  10.383 -0.3792  0.2681  0.1202
23860W        W40121  16.601   3.028   2.859 -0.3345  0.0318 -0.1567
23861W        W40122   7.223   9.409   4.493 -0.1522  0.2050 -0.1760
23862W        W40123  15.688   1.993  14.544 -0.1871 -0.0341 -0.1289
23863W        W40124   9.141   5.964   4.282  0.2024  0.1142 -0.0670
23864W        W40125  10.386   9.642   0.343 -0.0424  0.3659  0.2259
23865W        W40126   7.427  11.013  11.792  0.0707  0.0733  0.0468
23866W        W40127  13.341  14.401   3.668  0.3443  0.0093  0.1523
23867W        W40128   2.035   9.403   1.948  0.0766 -0.1025  0.0739
23868W        W40129   2.568  15.061   4.263  0.0241 -0.3139  0.2758
23869W        W40130  15.102   3.522  13.199  0.2211 -0.0909  0.1147
23870W        W40131  12.194  18.901  13.973 -0.2158 -0.0454 -0.0496
23871W        W40132   1.873   3.888  11.321 -0.3319  0.0542  0.0488
23872W        W40133   1.819  14.488   5.550  0.0392  0.1945  0.2734
23873W        W40134   6.746  17.492  14.732  0.0417  0.0002 -0.0475
23874W        W40135  16.205   8.287   3.494  0.3565  0.1872 -0.2472
23875W        W40136  14.189  12.284  12.027 -0.2350  0.1516  0.1754
23876W        W40137  18.006  11.369   5.364  0.3828 -0.7743  0.0678
23877W        W40138   1.541   2.468  13.538 -0.0393  0.0895  0.1455
23878W        W40139  12.383   7.524  12.401  0.0270 -0.0525  0.0296
23879W        W40140  13.546   8.303   3.002 -0.1734 -0.2949 -0.0924
23880W        W40141   9.912   3.590   9.593  0.0988 -0.1080 -0.1257
23881W        W40142  12.289   1.050  13.765  0.3883 -0.1473 -0.1334
23882W        W40143  12.852   4.149   3.419 -0.0628  0.0502 -0.0542
23883W        W40144  13.043  16.751  14.603 -0.1290 -0.2643 -0.0303
23884W        W40145   6.088   3.832  11.474 -0.2152 -0.2616  0.1530
23885W        W40146   1.372   2.396  11.428  0.0265  0.2182  0.1078
23886W        W40147   1.741  15.701  11.710  0.1575 -0.1605  0.3064
23887W        W40148   3.498  16.530  12.376 -0.0437  0.0897 -0.0969
23888W        W40149  12.240  16.534  13.960 -0.4252  0.1549  0.0086
23889W        W40150  10.045   2.848   1.345 -0.0854 -0.2508 -0.0168
23890W        W40151   7.879   9.913   9.232 -0.1514 -0.2060 -0.1858
23891W        W40152  10.321   1.078   0.677  0.0142 -0.2380  0.0097
23892W        W40153  13.927   5.616   1.402 -0.2542  0.1775  0.0600
23893W        W40154   7.301  11.426  12.152 -0.0121 -0.2101  0.2177
23894W        W40155  19.331   4.775  13.994  0.2691  0.2736  0.1133
23895W        W40156  17.292  15.252   0.461  0.0081 -0.3528 -0.0504
23896W        W40157   9.564   7.271  11.422 -0.2106 -0.0096 -0.0451
23897W        W40158  11.715  11.371   1.891  0.1285 -0.3165 -0.1434
23898W        W40159  15.541  11.593   5.920 -0.2037 -0.0125 -0.0480
23899W        W40160   9.219  15.681  10.311 -0.4410  0.4529 -0.0380
23900W        W40161  10.403   3.111   3.031 -0.0668 -0.2405  0.0567
23901W        W40162  16.446  11.793  10.975  0.2376 -0.1580 -0.1169
23902W        W40163  11.361  14.168  11.762 -0.0955  0.0431  0.1062
23903W        W40164   8.371  14.614  14.124 -0.1658  0.1210  0.2101
23904W        W40165  10.829  17.840   5.424  0.0233  0.3027  0.0075
23905W        W40166  11.566   5.981   1.003  0.0937 -0.1589  0.2014
23906W        W40167   0.800  15.042   2.686  0.1348 -0.2616 -0.0069
23907W        W40168  17.625  18.175  11.781  0.3409 -0.1911  0.3417
23908W        W40169   4.696  16.734   0.957 -0.0982 -0.2361  0.1204
23909W        W40170   2.279  12.247  12.444  0.3407 -0.2427 -0.0133
23910W        W40171  10.836   0.399  13.090 -0.2869  0.1255  0.3004
23911W        W40172  17.219  10.821  11.155 -0.1846 -0.0591 -0.1567
23912W        W40173  13.522  13.015  12.576 -0.2674  0.2312 -0.1005
23913W        W40174  19.132  15.732  13.209  0.0290 -0.2312  0.1230
23914W        W40175   7.682   8.394  10.511 -0.1697 -0.0245  0.2411
23915W        W40176   7.276   8.570  11.629 -0.1085 -0.3599 -0.2678
23916W        W40177  18.322   3.353   3.020 -0.0657  0.5092 -0.1596
23917W        W40178   2.860  10.652   2.032 -0.0539  0.2169  0.2995
23918W        W40179  18.203   9.264  13.720  0.2655  0.1384 -0.2192
23919W        W40180  10.845   1.049   4.565  0.1918 -0.3071  0.0575
23920W        W40181   7.404  10.614   4.440 -0.3440 -0.0688 -0.1259
23921W        W40182   6.292   1.469  10.156  0.0110 -0.3437 -0.1000
23922W        W40183   8.923  13.530   5.290 -0.3158 -0.0863 -0.2242
23923W        W40184  17.463   0.572   4.226 -0.1352  0.0931  0.0153
23924W        W40185  18.011  10.949   4.876  0.0598  0.5741 -0.0375
23925W        W40186  14.097  17.058   0.637  0.0559 -0.0591  0.0020
23926W        W40187  15.759   2.799   2.658 -0.0137 -0.0394  0.0384
23927W        W40188  13.274   8.221   3.513  0.0119  0.1562  0.0794
23928W        W40189   0.639   2.950   1.044  0.3252  0.0158  0.2904
23929W        W40190   6.856  12.171  13.988  0.0730  0.3685 -0.1019
23930W        W40191   2.134  18.747   4.474  0.1023  0.1160 -0.0528
23931W        W40192  17.558   1.173  12.586 -0.0272 -0.1342  0.2589
23932W        W40193  13.268   6.435  11.439 -0.1081 -0.0688 -0.1286
23933W        W40194   1.701  16.601   4.357 -0.0987 -0.2676 -0.1676
23934W        W40195  10.500   1.421   4.740 -0.0438 -0.2465  0.1240
23935W        W40196  14.518   8.424  14.428 -0.0279 -0.2874 -0.2613
23936W        W40197   5.917  11.789   3.937 -0.1330 -0.0150  0.0323
23937W        W40198   3.611   5.782  14.375 -0.2142  0.0417  0.0895
23938W        W40199   9.372  16.556  13.144 -0.0143 -0.0765  0.0564
23939W        W40200   1.782   7.685  11.170  0.0356 -0.0750  0.2626
23940W        W40201   0.106  11.329  12.588 -0.2558  0.0723  0.0656
23941W        W40202  12.522   0.752   0.529 -0.1242 -0.2412 -0.1371
23942W        W40203  16.124  14.839   1.686  0.1231 -0.0402  0.2758
23943W        W40204   4.690  10.964  13.173 -0.1197  0.1965 -0.3754
23944W        W40205  12.534   9.968   0.435  0.1209 -0.0440  0.5441
23945W        W40206  12.689   6.146  13.117  0.0989  0.2136 -0.0382
23946W        W40207  12.343  17.457  11.015 -0.2961  0.1908 -0.0065
23947W        W40208   7.507  16.677   0.296 -0.2045 -0.0236  0.0713
23948W        W40209   3.171  15.787   3.898 -0.0859 -0.1026  0.1774
23949W        W40210  17.170  16.600   3.753  0.0775 -0.2261 -0.1982
23950W        W40211  11.504  17.701   2.123  0.1798  0.2618 -0.0562
23951W        W40212  13.716   9.973   0.216  0.3497 -0.0627  0.1475
23952W        W40213  14.820  13.160   0.768 -0.0480 -0.0347  0.0304
23953W        W40214  15.614  19.403   4.949 -0.1949 -0.0490  0.1707
23954W        W40215  14.431  11.932  14.332 -0.2879 -0.1372  0.1191
23955W        W40216   1.988   0.155   2.712  0.2390  0.1270 -0.0343
23956W        W40217  15.794   4.029   3.632 -0.2260  0.0875 -0.2859
23957W        W40218  10.751  10.413  11.925  0.0466  0.2081 -0.1394
23958W        W40219   2.482   0.105   5.007 -0.1673 -0.0075 -0.0413
23959W        W40220   2.118   0.631   1.799 -0.0870  0.1479 -0.3268
23960W        W40221   2.215   1.039  10.244  0.2025 -0.2966  0.1749
23961W        W40222   2.819  12.658   4.752 -0.1353 -0.1110 -0.0079
23962W        W40223  12.486   1.296   4.583  0.1039  0.0282  0.0766
23963W        W40224   7.516   9.562  12.097 -0.0593  0.1688  0.3386
23964W        W40225  12.878   3.572   2.375 -0.0903  0.2582 -0.0448
23965W        W40226   6.063   5.484  10.241  0.2964 -0.0276  0.1419
23966W        W40227  10.034   9.922   4.492 -0.1883 -0.0206  0.4254
23967W        W40228   5.234  18.198   1.560  0.2831 -0.2230  0.1000
23968W        W40229   4.021  16.478  10.687 -0.0337  0.1871  0.0292
23969W        W40230  16.318   8.732   3.611 -0.1700  0.0803  0.3527
23970W        W40231  10.950   9.450   1.222 -0.1427  0.0635  0.3357
23971W        W40232  14.543   0.191  12.042  0.1879 -0.0418  0.0916
23972W        W40233  16.355   5.162  13.799  0.1953  0.0903 -0.1805
23973W        W40234  10.041  10.705  10.294  0.0008 -0.1550 -0.4724
23974W        W40235   9.313   5.691   1.042  0.1751 -0.2762 -0.1198
23975W        W40236  10.214   6.129   0.532 -0.0144  0.5261  0.2259
23976W        W40237  16.937  12.411   3.149 -0.0530 -0.0826 -0.2023
23977W        W40238   7.979   1.084   0.723 -0.1125  0.0829 -0.1313
23978W        W40239  14.468  17.967   2.760  0.2393 -0.1091 -0.1616
23979W        W40240  10.668  13.136   1.377  0.2711 -0.1759  0.0670
23980W        W40241  14.934   7.279   0.886  0.1142  0.1354  0.2722
23981W        W40242  10.953   6.625   2.254  0.0563  0.2782  0.0575
23982W        W40243   8.415   0.040  10.970  0.0594  0.0195 -0.4748
23983W        W40244   9.918  19.149  11.618 -0.1854 -0.5235  0.1314
23984W        W40245   2.142   3.157  11.273  0.0859  0.3420  0.4454
23985W        W40246   7.817   6.374   4.841 -0.3663  0.0532  0.0382
23986W        W40247  17.309  18.660  11.488 -0.1854 -0.4335  0.4024
23987W        W40248   6.195   7.383  14.514 -0.1712 -0.2203  0.1702
23988W        W40249  17.663   6.708   0.845  0.0498 -0.2803 -0.1669
23989W        W40250   5.336  13.865  11.350 -0.1868  0.1429  0.0734
23990W        W40251   7.125  11.926  10.697  0.0413 -0.1648  0.2643
23991W        W40252   5.847   7.829  13.317 -0.2245  0.2068  0.4646
23992W        W40253  13.324   0.766   3.757  0.3643  0.1731 -0.2899
23993W        W40254  12.547   8.800   1.577  0.2017 -0.1807 -0.0579
23994W        W40255   5.765   5.994  13.052 -0.2310 -0.0110  0.1784
23995W        W40256   1.821  16.312   3.465  0.3079 -0.0356 -0.0250
23996W        W40257  17.630  19.424   4.943  0.0775 -0.1002  0.1901
23997W        W40258  14.663   1.758   1.450 -0.0034  0.0952  0.1277
23998W        W40259  18.305   9.571  12.616 -0.0709 -0.0781  0.1844
23999W        W40260   9.087  17.956   1.656  0.3363  0.0465  0.0087
24000W        W40261   8.786  15.675  12.502  0.1906  0.2556 -0.0612
24001W        W40262  19.170  18.319  14.238 -0.1516 -0.0082 -0.3298
24002W        W40263   0.082  14.884  11.173 -0.1082 -0.2025  0.0869
24003W        W40264   7.852   1.075   1.702 -0.1173  0.0693 -0.1418
24004W        W40265  10.105   9.664   0.729  0.0919  0.0821  0.2147
24005W        W40266  14.326  15.043   3.541  0.0988 -0.1860 -0.0999
24006W        W40267   0.156   3.725   4.353  0.1093 -0.4644  0.4330
24007W        W40268   1.882  17.332  11.118 -0.1627 -0.3549 -0.0043
24008W        W40269  15.222   7.985   3.850  0.0810 -0.0033  0.0129
24009W        W40270  11.614  11.156  13.153 -0.2719 -0.1471 -0.0552
24010W        W40271  15.594  11.615  11.050 -0.1254  0.2257 -0.1006
24011W        W40272   1.079   2.264   3.899 -0.0214 -0.2979 -0.0698
24012W        W40273   9.152   7.704   2.217  0.3705 -0.4346  0.0112
24013W        W40274  12.116  19.472  11.662  0.0467  0.0653 -0.1188
24014W        W40275  12.934   0.783  12.579 -0.4419  0.2908 -0.0539
24015W        W40276  16.309  12.787   5.693  0.2405 -0.0494 -0.0294
24016W        W40277   1.115  12.153   0.253 -0.0609  0.3562 -0.0086
24017W        W40278  16.409   0.828  12.022  0.0620  0.0749  0.1925
24018W        W40279  13.005  11.355   4.467 -0.5465  0.0218  0.0509
24019W        W40280  10.443  15.242   2.346 -0.0724 -0.1245  0.0641
24020W        W40281   8.592   2.741  14.168 -0.2602  0.1411 -0.0970
24021W        W40282  12.255  13.759   1.615  0.1547  0.1934 -0.0437
24022W        W40283  13.404   3.296   4.744 -0.2087  0.0755 -0.0840
24023W        W40284   2.769  18.465   4.539 -0.2135 -0.1521  0.1050
24024W        W40285   2.713   9.439   1.913  0.1513 -0.0378 -0.1774
24025W        W40286   4.181  10.723   1.474 -0.0533 -0.1246  0.0895
24026W        W40287  11.169   9.534   2.289 -0.1960 -0.1583 -0.3333
24027W        W40288   4.362   2.059  11.646 -0.0214 -0.3750  0.0774
24028W        W40289   4.596   7.384   3.021  0.1422 -0.0098 -0.3430
24029W        W40290  12.701   8.078  13.153  0.0336 -0.0595 -0.2378
24030W        W40291  18.652   9.172  10.470 -0.1433 -0.2251  0.1710
24031W        W40292  15.367   6.924  11.895 -0.0464  0.2741  0.2604
24032W        W40293   2.185  13.521   3.341 -0.0969  0.0428 -0.1927
24033W        W40294   8.295   6.703   3.718  0.0060  0.0865  0.1978
24034W        W40295  18.152  19.439  12.256 -0.2931  0.0983  0.2070
24035W        W40296   2.008   6.801   3.363  0.1362 -0.4815 -0.2641
24036W        W40297  19.196   5.922   1.250 -0.3283  0.0464  0.1139
24037W        W40298   0.052   8.178  14.493 -0.0079  0.5377 -0.1987
24038W        W40299  17.927   8.268   2.270  0.1305 -0.1153  0.0716
24039W        W40300  11.120   4.854  10.031 -0.2686 -0.0090 -0.2395
24040W        W40301   6.372  11.221  13.930 -0.2050  0.1998 -0.0903
24041W        W40302   8.419  15.430  10.099 -0.0160 -0.2113  0.0921
24042W        W40303  12.260  10.677   1.521  0.1734 -0.0517 -0.0633
24043W        W40304  19.272   2.163   3.752  0.0160  0.1630 -0.0181
24044W        W40305   3.322  17.993   2.758 -0.0549  0.0624  0.1278
24045W        W40306  13.519   0.562   1.214  0.2470  0.1485  0.1096
24046W        W40307   7.795  19.215  14.131 -0.0399  0.1475 -0.1873
24047W        W40308  14.421  15.599   4.513 -0.4452 -0.3904 -0.3058
24048W        W40309  13.789  16.169  14.321 -0.0114  0.1245  0.0276
24049W        W40310   9.654   8.996   1.966  0.1547  0.1571  0.0071
24050W        W40311   0.880   6.830   3.007  0.2164  0.2943  0.0804
24051W        W40312  13.677   5.416   4.687  0.2268  0.0831  0.0370
24052W        W40313   9.450  10.236   0.574  0.2824  0.1642  0.0330
24053W        W40314  10.653  15.585  10.190 -0.0111 -0.3479  0.0992
24054W        W40315   7.232  12.363   4.802  0.1563  0.0227 -0.1921
24055W        W40316  17.055   5.510   3.329  0.1047  0.3350 -0.3654
24056W        W40317  18.458  13.606   4.398 -0.1013 -0.0736  0.0824
24057W        W40318   8.049  11.947  10.629 -0.0641 -0.1185 -0.2420
24058W        W40319  12.712  12.300   1.091  0.1166  0.3360 -0.1694
24059W        W40320  13.048   3.829  12.389 -0.0739 -0.0493  0.2487
24060W        W40321  16.872  15.063   1.823 -0.1729 -0.2103  0.1748
24061W        W40322   3.252  14.192   3.011 -0.0369 -0.0970 -0.2633
24062W        W40323  10.656   2.247   2.912 -0.2827  0.0023  0.1603
24063W        W40324  18.972   4.788  11.776 -0.3429 -0.0797 -0.4165
24064W        W40325  11.101  13.662   3.947  0.0534  0.3676  0.1617
24065W        W40326   9.025  17.352  13.359 -0.2189 -0.1298  0.0799
24066W        W40327  10.135   6.562   1.841 -0.2693 -0.1348 -0.0481
24067W        W40328  12.515  17.916  10.656  0.2314  0.1283  0.0066
24068W        W40329   7.873  16.868  13.672  0.0953  0.0136 -0.2976
24069W        W40330  19.389  12.549  10.845  0.2724 -0.0661 -0.1810
24070W        W40331   2.715  16.561  11.107  0.1968  0.1754 -0.0125
24071W        W40332   5.822   4.963  12.005 -0.1086 -0.1165  0.1067
24072W        W40333  11.781  11.768  12.380 -0.0868  0.4914  0.0855
24073W        W40334   3.322   4.163   0.869 -0.0452  0.1639  0.1682
24074W        W40335   6.776  13.615   1.756  0.1990 -0.3898  0.1208
24075W        W40336  15.070  18.674  13.822  0.2512 -0.0582  0.0523
24076W        W40337  11.044  15.614   1.275 -0.1225 -0.2550  0.3945
24077W        W40338   9.624   9.992   4.855  0.1487 -0.0664  0.1953
24078W        W40339   0.444  11.643   3.047  0.1452 -0.0847 -0.0373
24079W        W40340  15.622   4.475   3.315  0.0335  0.3313 -0.1031
24080W        W40341  12.826  11.479   5.970 -0.1740  0.0940 -0.2077
24081W        W40342  17.387  10.390   2.511 -0.2566  0.4147 -0.4071
24082W        W40343   3.195  18.183  12.876 -0.0258 -0.2405  0.0221
24083W        W40344   5.147  15.427   4.568 -0.3529  0.0950 -0.1591
24084W        W40345  19.065  19.461  14.096  0.1405  0.1227  0.2501
24085W        W40346  14.495   7.928  11.915 -0.1626 -0.0441  0.0923
24086W        W40347   6.490   2.555   0.950 -0.0032 -0.0540  0.0285
24087W        W40348   9.069   8.723  14.381  0.2355 -0.0359  0.1626
24088W        W40349   0.531  11.653   0.820 -0.3423 -0.0176 -0.1970
24089W        W40350  19.205   6.398   0.345 -0.1553  0.0428  0.0176
24090W        W40351  13.906   5.116  14.695 -0.2319  0.0722  0.1207
24091W        W40352   7.626   0.417   1.299  0.0093  0.0588 -0.0678
24092W        W40353   2.924  17.543  10.947  0.1173 -0.0786 -0.3195
24093W        W40354  13.404  18.505   1.751  0.0994 -0.1186 -0.1266
24094W        W40355  13.045   7.528   4.063 -0.2296 -0.0255  0.1883
24095W        W40356  10.744   4.546  13.055  0.1254 -0.0383 -0.0015
24096W        W40357   3.590   4.373  12.519 -0.0036 -0.1034 -0.1273
24097W        W40358   0.490   7.632   4.671 -0.3354  0.2147 -0.1999
24098W        W40359  18.866   0.571  10.241 -0.1969  0.2232  0.0250
24099W        W40360   8.722   7.324  13.987 -0.1240 -0.0511 -0.1504
24100W        W40361  15.878  11.367  14.252 -0.1032  0.0349 -0.2413
24101W        W40362  14.823   2.098  11.709 -0.1189 -0.0457  0.2903
24102W        W40363  17.197  16.338  13.437  0.1800  0.3241 -0.0340
24103W        W40364   0.682   8.944   4.753  0.2598 -0.8509  0.2118
24104W        W40365  12.445  17.878   2.934 -0.4028 -0.0281 -0.0480
24105W        W40366   9.262  19.264   2.880 -0.1666 -0.1832 -0.1933
24106W        W40367  14.611   8.984   4.661  0.2054  0.0783 -0.3519
24107W        W40368   3.815   5.401  14.073  0.2177 -0.0670  0.0999
24108W        W40369  15.771  10.918  12.447  0.0205 -0.1768 -0.0338
24109W        W40370  11.289   6.353  10.505  0.2319 -0.2416 -0.1022
24110W        W40371  17.494   7.579  12.192 -0.0182 -0.0579 -0.0352
24111W        W40372   2.941   5.899   0.824 -0.2509  0.1090 -0.1827
24112W        W40373  18.896  14.967  12.431 -0.0722  0.3718 -0.1048
24113W        W40374  16.576   5.945  14.678  0.1000  0.1479 -0.2033
24114W        W40375   7.203   7.113   1.217  0.1034 -0.1765 -0.3968
24115W        W40376  15.579  14.322   3.006 -0.3050 -0.2046  0.1704
24116W        W40377   6.182   6.648  13.914 -0.4832  0.3607 -0.1352
24117W        W40378  17.925  18.417   0.799  0.0175 -0.3183 -0.2678
24118W        W40379  12.742   0.454   0.863 -0.0945  0.1004 -0.0847
24119W        W40380   8.660  14.740  10.786 -0.2914  0.0735  0.3955
24120W        W40381   5.436   4.101   0.184 -0.0734 -0.1679 -0.0442
24121W        W40382   3.422   3.888   5.585 -0.3421 -0.1123 -0.0523
24122W        W40383   8.705  11.843  13.342  0.0335 -0.0050  0.1758
24123W        W40384   0.197   4.013   3.871  0.0586  0.0652  0.4344
24124W        W40385   5.077   2.089  12.351  0.0241 -0.1382  0.3222
24125W        W40386  15.164  10.886  13.062 -0.1704 -0.1376 -0.1388
24126W        W40387   3.325   9.593  14.183  0.0003 -0.1305  0.0455
24127W        W40388  15.431  14.418   2.070  0.0614  0.4132  0.0688
24128W        W40389  16.272  17.840   1.319  0.0712 -0.0726 -0.1038
24129W        W40390   9.538  19.041  12.720 -0.0366 -0.2696 -0.1171
24130W        W40391   8.376  14.293   4.305  0.0680 -0.2389  0.3120
24131W        W40392   5.969  16.394   1.091  0.1672  0.1387  0.1756
24132W        W40393  13.974   4.049   1.785 -0.1030 -0.5691  0.0494
24133W        W40394   1.896   3.613   0.303  0.3556  0.0987 -0.0517
24134W        W40395  16.687   2.491  12.501  0.1381  0.1815  0.1988
24135W        W40396   5.367   0.400  14.001 -0.1549 -0.1827 -0.1594
24136W        W40397   2.939   4.861   0.477 -0.1421 -0.1848  0.0775
24137W        W40398  19.413   5.018   2.473  0.1126  0.1559  0.1533
24138W        W40399  10.969  19.458  12.414 -0.1185  0.1562 -0.3160
24139W        W40400   4.163  11.825   3.858  0.2286  0.2682  0.0035
24140W        W40401   7.117   9.274  13.898  0.0242  0.0334 -0.1835
24141W        W40402  15.551  10.440  12.806  0.1930 -0.4524  0.2585
24142W        W40403   5.060   0.259  12.057 -0.3865  0.0661  0.1568
24143W        W40404  16.808  18.453  12.990 -0.0457 -0.2650 -0.0168
24144W        W40405   8.690   6.967  10.256 -0.0370  0.1481  0.0884
24145W        W40406  17.931   9.133   1.627  0.1394  0.0488 -0.1235
24146W        W40407   8.621  17.140  12.553 -0.0649 -0.2375 -0.0580
24147W        W40408  16.064   6.965   3.629 -0.0112  0.0744 -0.0014
24148W        W40409  18.237   5.216  13.555 -0.0614 -0.1900 -0.0795
24149W        W40410  13.335   2.913  14.513  0.1974 -0.0365  0.0020
24150W        W40411  10.947   9.944  14.608  0.1418  0.3124  0.3091
24151W        W40412  16.761   2.432   4.669 -0.0844  0.0289  0.0892
24152W        W40413  19.254   8.210  13.725  0.0955  0.0597  0.0512
24153W        W40414  18.209   9.588   2.547  0.0548  0.2907 -0.2993
24154W        W40415   6.498  13.869   0.748 -0.1849  0.3758  0.1161
24155W        W40416   7.087   8.502   9.483  0.1704  0.0631 -0.1150
24156W        W40417   5.169  16.768   4.039  0.0880  0.0125  0.0295
24157W        W40418  14.875  18.878  11.811 -0.2820 -0.0060  0.1494
24158W        W40419   2.279   0.417   3.670 -0.0793 -0.1435 -0.0163
24159W        W40420   0.972  11.583   3.143 -0.0081  0.3025 -0.3680
24160W        W40421  16.931  10.135  13.369  0.2408 -0.1957 -0.0036
24161W        W40422  18.249   0.282   1.409  0.2742  0.3287 -0.0100
24162W        W40423  18.218   6.413  11.767 -0.1009  0.0081 -0.1511
24163W        W40424   5.577  16.788   2.087  0.0882  0.0103  0.2001
24164W        W40425  16.288  17.539   3.160  0.3159 -0.1624  0.1758
24165W        W40426   5.921   7.708   4.994 -0.1099  0.1695 -0.1756
24166W        W40427   0.778   2.832   3.732  0.0463  0.1251 -0.0802
24167W        W40428  10.994   5.612  10.886 -0.4310  0.3702 -0.0667
24168W        W40429  16.306   0.043   0.826  0.1704 -0.2210 -0.1538
24169W        W40430   3.745   5.718  11.733 -0.0447  0.1934  0.0127
24170W        W40431   8.909   2.651   4.114 -0.2664  0.2691 -0.0078
24171W        W40432   6.031   9.229  14.478 -0.0232 -0.0479 -0.4563
24172W        W40433   5.479  11.229   4.275  0.2863 -0.0913  0.1794
24173W        W40434  17.927  12.626  12.954  0.3108  0.1042 -0.0724
24174W        W40435   3.568   3.950   3.806 -0.0945 -0.1405 -0.0640
24175W        W40436  15.447  14.795  11.787 -0.5041 -0.1500 -0.2046
24176W        W40437   2.605  16.240  12.868 -0.3708  0.1515  0.0072
24177W        W40438   2.094  11.947  11.423 -0.0257  0.0610  0.0250
24178W        W40439  16.447   0.297   2.908 -0.1638  0.0878  0.0038
24179W        W40440   1.061  10.659   1.623 -0.1106  0.0143  0.2171
24180W        W40441   6.490  16.245  11.060 -0.0980  0.3204 -0.2366
24181W        W40442  14.340   1.514  12.329  0.0784  0.0141  0.0396
24182W        W40443  11.124  14.625  12.421 -0.0145  0.4726 -0.0685
24183W        W40444   1.751   0.754   4.161 -0.2717 -0.2775 -0.3867
24184W        W40445   5.970  16.896   2.799 -0.3063 -0.2359  0.2364
24185W        W40446  10.670   1.669  12.195 -0.1339  0.3021 -0.4181
24186W        W40447   0.523  10.531  12.873 -0.0025 -0.1010  0.0940
24187W        W40448   7.334  12.351   5.360 -0.0471  0.0461 -0.1136
24188W        W40449   5.484  13.905   2.108  0.1586  0.2434  0.0612
24189W        W40450  18.504   9.708   5.417 -0.1473  0.0510  0.1170
24190W        W40451  16.306   3.162  12.273  0.1908 -0.1625 -0.0894
24191W        W40452  14.116   4.392   0.936 -0.0757  0.2409  0.3054
24192W        W40453   5.332  14.402   3.464  0.2555  0.1668  0.3289
24193W        W40454  17.283  10.747  12.261 -0.0395 -0.0496  0.1782
24194W        W40455   3.637  16.833   1.196 -0.0624  0.0746 -0.0586
24195W        W40456  10.563  14.803  10.780  0.2626  0.3528 -0.3516
24196W        W40457  12.958   7.976   0.957 -0.0289 -0.1262 -0.2775
24197W        W40458  10.695  11.697   1.908  0.2154 -0.1201  0.0900
24198W        W40459  12.370   0.387  12.593 -0.2856 -0.0768 -0.0220
24199W        W40460   2.384  14.602   4.193  0.2071 -0.0501  0.0130
24200W        W40461  16.125   4.537  12.229 -0.0567 -0.0669 -0.3322
24201W        W40462   3.994   7.003   0.915 -0.3403 -0.1563 -0.4965
24202W        W40463  12.364   2.044  13.388  0.1581  0.0939  0.0042
24203W        W40464  15.572   1.885   2.113  0.1432 -0.0368 -0.3023
24204W        W40465   6.051   8.987  10.476 -0.0661 -0.0773  0.1249
24205W        W40466  13.826  19.108  10.900 -0.0599  0.0585  0.3773
24206W        W40467   9.120  14.228   2.551 -0.0381 -0.2738 -0.1946
24207W        W40468  12.219   5.255   0.908 -0.1352  0.1699 -0.2757
24208W        W40469  15.687   3.360  11.402  0.0242 -0.0268 -0.2744
24209W        W40470   7.511  12.484  10.144  0.0079  0.1256 -0.1957
24210W        W40471  11.715  16.514   4.034  0.2218 -0.1529  0.1934
24211W        W40472  10.259  15.642   5.588 -0.2516 -0.0229  0.0629
24212W        W40473   0.445   7.902   3.907  0.0738 -0.0074  0.2622
24213W        W40474  15.624   8.247   1.559  0.0913  0.0040  0.0734
24214W        W40475  16.966   8.378   0.214  0.0393  0.0578 -0.4917
24215W        W40476   2.999  17.362   0.734 -0.1248 -0.0537  0.0323
24216W        W40477  18.454   9.675  14.736  0.2127 -0.0398  0.4209
24217W        W40478  10.618   1.265   1.229  0.3946  0.3090 -0.2118
24218W        W40479  18.657   7.366   2.193  0.1334 -0.2149 -0.1446
24219W        W40480  10.800  17.078  11.781  0.1848  0.0560 -0.0629
24220W        W40481  11.555  19.474   0.380 -0.0996 -0.5424 -0.0207
24221W        W40482   9.984  17.697  12.927 -0.3196 -0.0851 -0.1218
24222W        W40483  11.378   0.983   3.239 -0.1284 -0.0088 -0.4111
24223W        W40484  17.388  17.958  14.163  0.1801  0.4947  0.0279
24224W        W40485  16.421   5.000  14.726  0.2707  0.0941  0.1855
24225W        W40486   0.531  11.105  13.750 -0.1371 -0.1476  0.4299
24226W        W40487   1.597  12.121   0.514  0.0124 -0.1201 -0.1103
24227W        W40488  11.570   1.153   5.570 -0.1590  0.0170  0.0304
24228W        W40489   7.945   5.644   1.288 -0.0743  0.2287 -0.0978
24229W        W40490  10.153   5.048   0.633  0.0413  0.2088 -0.1274
24230W        W40491   3.144  16.865   0.559  0.4169  0.0142 -0.1066
24231W        W40492  13.381   1.507  12.021 -0.0726  0.1665  0.1983
24232W        W40493  10.213   9.342   1.070 -0.2068  0.0260  0.0324
24233W        W40494  10.399  14.895  11.232  0.3328 -0.0019 -0.0802
24234W        W40495  14.336  18.629   1.924  0.0024  0.0325  0.1682
24235W        W40496   9.994  14.656  11.896 -0.0285 -0.1790 -0.0929
24236W        W40497   0.085  10.137  13.097  0.1447  0.1958 -0.1511
24237W        W40498  15.709   0.878   2.060  0.3099  0.5169  0.0831
24238W        W40499   7.020  17.357   0.914 -0.1221  0.3116 -0.0554
24239W        W40500   6.865  17.241  11.087  0.3803 -0.1430 -0.2774
24240W        W40501   3.640   4.156  10.973  0.1602  0.0377 -0.3579
24241W        W40502   2.468  17.288   4.334 -0.1668 -0.0258  0.3751
24242W        W40503   7.452   0.755  10.436  0.0172  0.0126  0.1715
24243W        W40504  15.568  12.595   3.581  0.1584  0.2526 -0.0394
24244W        W40505   2.607   9.155  14.102  0.0870 -0.2096 -0.3208
24245W        W40506   0.119   8.163  10.528  0.3007 -0.1449  0.0103
24246W        W40507  10.269  15.749  11.403  0.1136  0.0510  0.1191
24247W        W40508  14.511  19.287   5.694 -0.0061 -0.3326  0.1251
24248W        W40509   7.486  10.246  12.662  0.1928 -0.0835 -0.2088
24249W        W40510  11.321   1.347  12.748  0.0561  0.1524 -0.3475
24250W        W40511  13.408  10.577   3.394 -0.1042 -0.0777  0.0345
24251W        W40512   5.078   1.035   3.159  0.4313  0.1310 -0.2342
24252W        W40513  17.612   5.330  11.481 -0.0544 -0.1495 -0.0552
24253W        W40514  17.766   9.022   5.233  0.0512  0.1452  0.1204
24254W        W40515  16.323  10.421   3.997  0.0310 -0.1314 -0.0624
24255W        W40516   2.027  18.578  13.692 -0.2078  0.1364  0.0418
24256W        W40517   3.254  15.038   4.386  0.0875  0.1990 -0.2279
24257W        W40518  10.914  10.619   3.356 -0.0826 -0.4626 -0.0977
24258W        W40519  12.970   3.445   0.331 -0.1893 -0.2767 -0.2688
24259W        W40520  16.075   9.454   4.874 -0.0709  0.2849 -0.1306
24260W        W40521   9.529   0.124   3.733  0.2108 -0.0629 -0.0877
24261W        W40522  11.549   2.383  10.802  0.1848  0.1905  0.1604
24262W        W40523   9.806  18.213  11.154  0.4958  0.1563 -0.3457
24263W        W40524   4.259   9.835   4.281 -0.0872  0.2215  0.1093
24264W        W40525  18.505   1.934   0.119 -0.3730  0.0164 -0.1290
24265W        W40526   0.036   2.013  10.381  0.3002 -0.0954 -0.0292
24266W        W40527   5.119   5.967   1.130 -0.2574  0.2675  0.1469
24267W        W40528   2.522   0.655  13.932  0.0008  0.1672 -0.6059
24268W        W40529   7.347   7.475  10.860  0.0886  0.1080  0.3791
24269W        W40530  11.207  13.993   0.530  0.1679 -0.1156  0.0309
24270W        W40531   8.917   7.348   2.554  0.0264 -0.4659  0.0067
24271W        W40532   2.725  16.680   3.052  0.1693 -0.1014  0.0949
24272W        W40533  14.172   4.136   0.430  0.0213 -0.0663 -0.3103
24273W        W40534  11.447   5.307   3.154 -0.0902  0.4521  0.0929
24274W        W40535  15.517   8.635  10.141  0.2282 -0.1184 -0.2073
24275W        W40536   2.950  16.039   0.194  0.0421  0.0207  0.0074
24276W        W40537   2.730  14.722  12.844 -0.0307  0.2441 -0.1465
24277W        W40538   5.450  14.962  12.252 -0.2709 -0.1693 -0.0447
24278W        W40539  18.652   4.374   1.591 -0.2835  0.1861  0.2993
24279W        W40540  13.431   5.260  11.326  0.3655  0.1615 -0.0470
24280W        W40541  16.814   7.758  11.362 -0.2119  0.2817  0.1824
24281W        W40542   4.492   2.289   3.287  0.0541 -0.1506 -0.1464
24282W        W40543   9.535   3.360   9.834 -0.2044  0.1792 -0.1044
24283W        W40544   1.606  16.516  13.400  0.0427  0.0402  0.0502
24284W        W40545  12.171   9.343  13.509 -0.1675 -0.2703  0.0910
24285W        W40546  12.184  11.237   4.039 -0.3244  0.0442 -0.2674
24286W        W40547  12.234   9.705   0.022 -0.1446  0.0341  0.2339
24287W        W40548   6.869  12.088  14.736 -0.1234  0.3023  0.0371
24288W        W40549  14.693   2.537  12.298  0.0517 -0.1515 -0.1950
24289W        W40550  17.331  15.762   4.692 -0.1921  0.1633 -0.1948
24290W        W40551  14.537   7.440   0.184 -0.0592  0.1328  0.1703
24291W        W40552   0.614  17.557   2.563 -0.0419 -0.2028 -0.2006
24292W        W40553   0.146  18.159   2.715 -0.2821 -0.0262 -0.1655
24293W        W40554   4.859   7.010  13.384 -0.2136 -0.0433 -0.1493
24294W        W40555  12.068   8.049   2.104 -0.2217  0.1783  0.1014
24295W        W40556   2.077   1.003  14.712 -0.6081  0.1483 -0.1312
24296W        W40557   9.439  15.217   4.047  0.1932 -0.1884  0.1832
24297W        W40558   1.814  16.863   0.368 -0.1029 -0.0914 -0.0508
24298W        W40559   4.567  12.109   2.597 -0.1005 -0.2222  0.1753
24299W        W40560  10.477   6.708  12.572  0.0830  0.1272 -0.1606
24300W        W40561   5.807   1.415  14.266 -0.0394  0.3131 -0.3967
24301W        W40562  11.308  19.122   2.690  0.1279  0.0438 -0.0136
24302W        W40563   0.124  17.132   4.362 -0.1910 -0.1402  0.3737
24303W        W40564   3.188   2.444  10.278 -0.4122  0.0914 -0.0060
24304W        W40565  17.947  12.568   2.327  0.2788 -0.0396  0.1026
24305W        W40566   7.841  16.694  13.178 -0.3268 -0.0790  0.0303
24306W        W40567  16.004  10.705   3.283 -0.1239  0.0301  0.3686
24307W        W40568   4.733  13.017  10.227  0.3025 -0.0900 -0.1287
24308W        W40569  11.433  16.858   4.807 -0.1886 -0.0833 -0.4463
24309W        W40570   8.864   8.225   2.562  0.0751 -0.0597 -0.1433
24310W        W40571   0.018  16.353   4.754 -0.1246 -0.4150  0.0785
24311W        W40572  18.238   0.624  13.342 -0.1433 -0.0393  0.1899
24312W        W40573  13.046  15.060  10.930  0.3379  0.0940 -0.2169
24313W        W40574   8.063  18.838   5.546 -0.2087  0.0778 -0.0995
24314W        W40575   2.249  16.544  10.579 -0.1000 -0.0597 -0.1512
24315W        W40576   9.853   7.889   4.590 -0.0893  0.0485  0.1733
24316W        W40577  13.224  12.736   0.101  0.0565  0.0737  0.0363
24317W        W40578  14.255  18.832  12.475 -0.1023 -0.0836 -0.0641
24318W        W40579  10.950   0.145   1.214  0.0533  0.0267 -0.4002
24319W        W40580   9.171  10.208   0.167  0.1094  0.1966 -0.2485
24320W        W40581  16.043   8.613   3.021  0.0295 -0.0673  0.1336
24321W        W40582  16.791  11.296  14.492  0.1689 -0.1460 -0.0921
24322W        W40583   4.140   5.401  10.947 -0.2270  0.3453 -0.4308
24323W        W40584   4.347  14.140  11.577  0.0386  0.1161  0.0888
24324W        W40585  16.778   1.940   1.384 -0.3552  0.1339 -0.1143
24325W        W40586  18.134   5.520  14.271  0.2240 -0.0581 -0.3165
24326W        W40587  14.420  19.204   3.993 -0.1232  0.2141  0.0165
24327W        W40588  11.007  12.219  10.618 -0.0681  0.0936  0.1275
24328W        W40589   4.634   8.406   9.940 -0.0771 -0.0501 -0.0495
24329W        W40590   1.744   5.474   2.380  0.2600  0.0006 -0.0136
24330W        W40591  15.605  19.366   0.944 -0.0970  0.1422 -0.0724
24331W        W40592   3.945  13.672  10.847  0.2300 -0.1029 -0.1843
24332W        W40593   3.167   6.962   1.804 -0.1646  0.0968 -0.2871
24333W        W40594   3.654   2.477   4.465 -0.0409 -0.1742  0.1744
24334W        W40595   2.650   9.416  12.936 -0.0604  0.2284 -0.0685
24335W        W40596   4.133   8.382   0.659 -0.3164 -0.0881  0.1172
24336W        W40597  16.929  11.095   4.239 -0.3061  0.0161  0.0145
24337W        W40598   0.611  12.456   4.826  0.3094 -0.0323 -0.0632
24338W        W40599   7.910  18.688   9.252 -0.0641 -0.1266  0.0411
24339W        W40600  14.975   5.377  14.586  0.0867 -0.1361  0.0722
24340W        W40601   8.645  12.104  13.882  0.1063  0.1552  0.3453
24341W        W40602  18.762  12.541   1.504  0.2309  0.2685  0.0975
24342W        W40603   5.878   9.494   3.226 -0.3622 -0.1614  0.0234
24343W        W40604   1.202  19.427   3.309 -0.0567 -0.1755 -0.3644
24344W        W40605   0.971   0.428  11.818 -0.1083 -0.0077 -0.1776
24345W        W40606   3.079  13.266  11.145 -0.2129  0.1271 -0.1558
24346W        W40607  17.285  18.914   1.263 -0.0705 -0.1389 -0.1210
24347W        W40608  11.763   3.695  10.142 -0.0593  0.1080  0.3726
24348W        W40609  13.037   0.432  14.137 -0.2605  0.0122  0.0252
24349W        W40610   3.955   9.133  12.288 -0.0318  0.5370  0.1819
24350W        W40611   7.694   9.714  11.312  0.0018  0.1619  0.0259
24351W        W40612  12.368   6.947  11.087  0.3205  0.1113 -0.2813
24352W        W40613  12.805   6.405   0.040  0.2961  0.1050 -0.0212
24353W        W40614  16.154  10.539   2.764 -0.1849  0.4459 -0.0265
24354W        W40615   9.012   7.674  12.317  0.1539 -0.6307  0.1119
24355W        W40616  19.240  15.304   4.458  0.2607  0.2120  0.1157
24356W        W40617  13.931   4.952   3.678  0.1538 -0.1408  0.0936
24357W        W40618  17.485  16.447   5.061 -0.2477  0.0788 -0.0335
24358W        W40619  15.817  10.197  11.459  0.2374 -0.3439  0.2579
24359W        W40620   6.209   5.893  11.964 -0.2438 -0.2100  0.1181
24360W        W40621   4.985  19.422  11.649  0.0858  0.0491 -0.1448
24361W        W40622  14.545   6.005   0.353  0.3438 -0.1817 -0.1789
24362W        W40623   5.140   7.577  14.687 -0.1417  0.1021  0.2520
24363W        W40624  14.509   3.989  10.968 -0.0246 -0.0840  0.1594
24364W        W40625   3.766   9.583   3.439  0.2972 -0.0865  0.1833
24365W        W40626   1.198  11.933   0.798  0.1491 -0.3594  0.0824
24366W        W40627   7.809  19.243  14.685  0.3864 -0.0948  0.0602
24367W        W40628   2.082  14.563   0.384 -0.0595  0.2515  0.0893
24368W        W40629  15.790   7.260   0.289  0.1194 -0.1087  0.1755
24369W        W40630  12.215   4.818  11.211 -0.0404  0.0752 -0.0827
24370W        W40631  14.821  11.529   4.392 -0.2777  0.1587 -0.1919
24371W        W40632  15.148   3.835   1.256 -0.0136  0.3187 -0.1636
24372W        W40633  14.550   5.585   0.714 -0.3733  0.0080  0.0371
24373W        W40634   3.771  11.632  14.409  0.1113 -0.4517 -0.0259
24374W        W40635  16.511   8.829   3.092 -0.1183  0.2104 -0.2776
24375W        W40636   7.694  12.776  10.500  0.1389  0.1608 -0.0678
24376W        W40637  16.027   7.222  13.968  0.2401 -0.1987  0.1146
24377W        W40638   6.988   9.751  13.885  0.2703 -0.4115  0.1459
24378W        W40639   7.814  17.406   3.925 -0.0344  0.2207 -0.0608
24379W        W40640   5.533  18.240  10.817 -0.1366  0.1838 -0.0369
24380W        W40641  12.611   2.175   1.435 -0.1336 -0.2696  0.2853
24381W        W40642  12.185  11.408   3.207 -0.2090  0.1828 -0.2118
24382W        W40643  18.138  15.532  12.498 -0.1144  0.1261 -0.1939
24383W        W40644   3.770   0.912   5.120  0.0219 -0.2434 -0.1612
24384W        W40645   0.494  11.731   5.399 -0.3420  0.0046  0.2317
24385W        W40646   5.517   3.327   1.327  0.1530 -0.0166  0.3312
24386W        W40647  10.621   5.915  11.032 -0.2460  0.1582 -0.0752
24387W        W40648  11.467  18.875  11.586 -0.0586  0.2587 -0.0256
24388W        W40649  18.435  13.108   4.974 -0.0008 -0.0630  0.1367
24389W        W40650  17.812  11.656   3.964  0.1344  0.1172  0.0676
24390W        W40651   6.743  14.698   2.328 -0.2846  0.0092  0.0699
24391W        W40652   3.818   0.251   4.383 -0.0454 -0.1230  0.1360
24392W        W40653  19.099   0.045   0.467  0.0793  0.1538 -0.0400
24393W        W40654   4.869  12.178   2.212  0.0193 -0.1213 -0.5561
24394W        W40655   3.881   6.783   2.086  0.0657  0.2819 -0.0689
24395W        W40656   0.894  10.047   3.623  0.1597 -0.1767 -0.1167
24396W        W40657  12.032  10.542   0.040  0.0696 -0.0302  0.1361
24397W        W40658  13.138  10.225   4.429 -0.1528  0.1892 -0.0494
24398W        W40659  14.499   4.358   0.006  0.2065  0.2590  0.1583
24399W        W40660  14.192  18.855   3.632 -0.0010 -0.1231  0.1866
24400W        W40661   3.488   8.555  13.846 -0.0249 -0.2478 -0.0479
24401W        W40662  15.036  15.299  13.608  0.1877 -0.0564 -0.2523
24402W        W40663  11.412  18.689  13.262 -0.1665 -0.1775 -0.0524
24403W        W40664  11.427   9.232  11.770  0.0999  0.0300  0.2126
24404W        W40665  13.151   4.613   2.499  0.1109 -0.2571  0.1802
24405W        W40666  15.402   2.541  10.100  0.0023 -0.2378 -0.1001
24406W        W40667  17.855   0.126  13.511 -0.2237  0.1164 -0.1301
24407W        W40668   4.960  17.932   4.269 -0.0356 -0.0541 -0.3623
24408W        W40669   5.067  17.187  12.676 -0.2006  0.0971 -0.0701
24409W        W40670  14.666   6.862  14.463  0.5010  0.2956 -0.3593
24410W        W40671   1.794  19.229  12.111  0.0426  0.0850 -0.1825
24411W        W40672  15.116  19.374   0.722 -0.1955  0.2194 -0.0554
24412W        W40673  12.920   7.414  10.591  0.4725 -0.1141  0.0153
24413W        W40674   7.227  12.900  10.335 -0.0626  0.3168  0.0415
24414W        W40675  14.691   0.634   2.052 -0.1597 -0.2082 -0.0849
24415W        W40676   9.944   9.619  13.331  0.0286  0.1000 -0.2523
24416W        W40677   5.502  10.755  13.889  0.0367  0.0611 -0.0335
24417W        W40678  15.828  14.772  13.668  0.1706  0.0517 -0.0998
24418W        W40679   9.458   1.569  10.831 -0.0897 -0.3052  0.0438
24419W        W40680   3.251   1.265   0.331  0.0448  0.1782  0.1774
24420W        W40681  19.120  15.673   3.209  0.1896  0.0364  0.1060
24421W        W40682  18.913  17.186   2.848  0.0141 -0.3332 -0.1213
24422W        W40683  10.864   0.427   0.163 -0.1417  0.0697  0.0803
24423W        W40684   4.879  13.812  13.071  0.2189 -0.0949 -0.0183
24424W        W40685   0.488  10.732   4.950  0.2005 -0.1536  0.3793
24425W        W40686  16.467  19.091  13.806  0.3142 -0.0868  0.0076
24426W        W40687   2.292  18.031   0.204  0.1650 -0.2111  0.2059
24427W        W40688   8.942   0.238   3.644  0.1493 -0.0387  0.0356
24428W        W40689   3.659   9.899   3.845 -0.0688 -0.2002  0.2663
24429W        W40690  19.084   7.832   0.790 -0.2342  0.2498  0.0165
24430W        W40691   8.458  16.220   0.628 -0.1185  0.1781 -0.0478
24431W        W40692   9.213  13.073   1.120  0.1559  0.0374 -0.1472
24432W        W40693  12.199  13.022   2.853  0.0881  0.0743 -0.1950
24433W        W40694   6.915   7.836   2.467  0.0622 -0.0043  0.1493
24434W        W40695   7.531  18.518  10.405 -0.0154 -0.3300  0.4607
24435W        W40696   8.281  11.080   0.770 -0.0384  0.2023 -0.0095
24436W        W40697   6.381  15.965   4.002  0.1482 -0.1101 -0.0328
24437W        W40698   7.607   4.902  11.109  0.0480 -0.1883  0.0031
24438W        W40699  10.381  15.971  11.878 -0.1807  0.1108 -0.0073
24439W        W40700  17.597  17.968   1.735 -0.0110  0.0792  0.2488
24440W        W40701   2.920  10.466  14.702  0.0078 -0.2773 -0.0923
24441W        W40702  19.002   7.762   0.302  0.2592 -0.0774  0.1627
24442W        W40703  14.462   9.094  11.071  0.2106 -0.0435 -0.0779
24443W        W40704  18.391   3.987   3.892  0.0512 -0.0132 -0.1126
24444W        W40705  15.270   8.581  13.178  0.2594 -0.0768 -0.2852
24445W        W40706  10.555  18.065  13.288 -0.1138 -0.0790 -0.0983
24446W        W40707  16.066   3.779   2.761  0.1951 -0.3665 -0.2265
24447W        W40708   2.510  13.631   4.658 -0.1065 -0.1322  0.1525
24448W        W40709  15.056  19.467  14.044  0.1198  0.2928  0.0756
24449W        W40710   5.927   8.047  10.461  0.1972 -0.0918  0.0587
24450W        W40711   2.916   9.282  11.970  0.0089 -0.1782 -0.1725
24451W        W40712  19.053  14.525   3.460 -0.2999 -0.0684  0.1110
24452W        W40713  11.314  16.021   4.948  0.0436  0.0083  0.1250
24453W        W40714  13.381  11.436  13.981 -0.3344  0.2948 -0.0898
24454W        W40715   0.050   3.649   1.413 -0.1147  0.0447 -0.2314
24455W        W40716   8.437   3.857  13.703  0.1434 -0.1225 -0.0345
24456W        W40717  17.445   5.406  12.522  0.2140  0.0182  0.1564
24457W        W40718   8.517   1.991  11.297  0.1508 -0.0442  0.3014
24458W        W40719   1.002   4.305  10.573 -0.0691 -0.2055 -0.2957
24459W        W40720  13.183   8.120  12.865  0.1316 -0.0157 -0.1123
24460W        W40721  18.076  18.053  14.669  0.2659 -0.3216  0.1304
24461W        W40722   8.070   2.683   9.392  0.4464  0.2333  0.0062
24462W        W40723  16.826   9.513   2.324 -0.0207  0.3191 -0.1622
24463W        W40724   1.487   4.373  13.669 -0.2031  0.0752  0.0369
24464W        W40725   4.195   9.608  12.232  0.0634 -0.0286  0.1130
24465W        W40726  15.374  10.245   1.577 -0.1180  0.0123  0.0965
24466W        W40727  18.186  13.584   4.843 -0.2303 -0.0240 -0.3279
24467W        W40728   2.857  16.392  10.658 -0.1292 -0.0317 -0.3994
24468W        W40729   4.631   2.598  13.006 -0.0483  0.0866  0.3692
24469W        W40730   4.642   1.220  10.034 -0.3422  0.0832  0.0384
24470W        W40731   0.995  11.688   4.588  0.5955  0.0621 -0.2680
24471W        W40732  14.340   7.341   2.080 -0.1336 -0.1495 -0.0788
24472W        W40733   6.761  16.729   1.072  0.1965  0.3303  0.1993
24473W        W40734   6.048   2.803   9.822 -0.1038  0.0094  0.2987
24474W        W40735  15.790  10.205  10.587 -0.5163 -0.1382  0.1184
24475W        W40736   9.611   6.658   1.013  0.0722  0.2475  0.0867
24476W        W40737   4.161  15.027  14.287  0.1686 -0.0635  0.0918
24477W        W40738   6.670   2.378   1.426  0.0048 -0.0293 -0.0282
24478W        W40739   1.916  13.166   9.758  0.1699  0.1351 -0.0527
24479W        W40740  14.520   3.698   2.518 -0.2481 -0.0580  0.4051
24480W        W40741   4.233  14.424  11.119  0.3818 -0.1423  0.0855
24481W        W40742  19.229   1.480   0.657  0.2043  0.3621 -0.0549
24482W        W40743   9.254   5.930   1.928 -0.0893  0.0024  0.0689
24483W        W40744  11.169   4.139  14.326 -0.1553  0.0306 -0.1693
24484W        W40745   4.425  18.315   2.408 -0.0059 -0.0884 -0.2013
24485W        W40746   9.595  14.245   2.285 -0.0748  0.0473 -0.1068
24486W        W40747  15.951  15.375   5.957  0.2711  0.1480 -0.0357
24487W        W40748  10.830   5.417   3.991 -0.2630  0.1726 -0.0944
24488W        W40749  16.526   2.438   0.793 -0.0704 -0.1452  0.2069
24489W        W40750   8.865   1.179   2.501  0.3600  0.1646 -0.0388
24490W        W40751  13.946  12.949  11.216 -0.0171  0.1787 -0.0487
24491W        W40752  16.981   9.572   4.470  0.3239 -0.1941  0.2183
24492W        W40753  14.010  10.563   1.685  0.1841 -0.3983  0.2426
24493W        W40754  18.569  16.933   1.556  0.2877 -0.1384  0.2113
24494W        W40755   2.878  19.367   1.875 -0.1787  0.4475 -0.0849
24495W        W40756  15.423   3.086   0.775 -0.1969 -0.1049  0.0489
24496W        W40757  15.740  14.281  12.292 -0.0222 -0.1522  0.0024
24497W        W40758  14.741   8.690   2.724  0.2738 -0.1459  0.1380
24498W        W40759  13.150   0.656   4.310  0.1218 -0.0442  0.1520
24499W        W40760   0.364  17.593   3.484 -0.0106 -0.0867  0.0327
24500W        W40761  17.434  16.238   4.631 -0.1936  0.3684 -0.2347
24501W        W40762   9.833   3.860   2.978 -0.1460  0.0175 -0.0400
24502W        W40763  15.801   9.047   9.827  0.1260 -0.0889 -0.1616
24503W        W40764   2.449   0.657  14.677 -0.1439  0.0165 -0.0922
24504W        W40765   5.238  10.585  12.955 -0.0062  0.0887 -0.0368
24505W        W40766   0.873   6.615   3.527  0.3092 -0.0074  0.0231
24506W        W40767  17.939  10.033   3.260  0.0042 -0.0071  0.1662
24507W        W40768   8.831  15.202   1.795  0.1178 -0.0223 -0.3934
24508W        W40769   4.327   7.509  11.395  0.0573 -0.1508 -0.1942
24509W        W40770   2.180   3.511   2.318 -0.1268  0.3348  0.0983
24510W        W40771  12.912   2.561   3.586 -0.0892 -0.1300  0.3139
24511W        W40772   2.286  10.067  12.207 -0.3636  0.1078 -0.0657
24512W        W40773  13.363  16.983   4.351  0.0077  0.1063  0.2452
24513W        W40774   6.992  10.111  12.583 -0.3647 -0.0926  0.1171
24514W        W40775   6.784   7.312  12.283  0.2642  0.1203 -0.0087
24515W        W40776   2.436   4.482  10.185  0.1935  0.0924  0.0553
24516W        W40777  13.418  14.371   2.009  0.3208  0.2901 -0.1750
24517W        W40778   0.464  13.668  12.090 -0.2713  0.3284  0.2089
24518W        W40779   2.624   3.867   3.294 -0.1794 -0.1681  0.0549
24519W        W40780   9.771  13.678   3.146  0.1060 -0.0132  0.1083
24520W        W40781   8.073  13.998  12.464  0.3336  0.2502 -0.0496
24521W        W40782  15.795   0.764   2.926 -0.0165  0.1741 -0.4800
24522W        W40783   3.082   3.642   3.944 -0.3577 -0.0890  0.1457
24523W        W40784  19.465   8.553   5.163 -0.2210  0.1347  0.1532
24524W        W40785  10.181  12.572  10.471 -0.0811  0.0418  0.2930
24525W        W40786   7.574  11.715  13.659 -0.0469 -0.1152 -0.1012
24526W        W40787   0.939   9.584   1.142 -0.0361  0.3684 -0.1315
24527W        W40788   9.421   4.058   3.171 -0.1134 -0.2447 -0.5741
24528W        W40789  18.043  14.447  11.213  0.0172 -0.0512 -0.2548
24529W        W40790   9.149   8.877   3.957 -0.2638 -0.1713 -0.2686
24530W        W40791   0.710  13.620  13.808  0.0705  0.1608  0.1288
24531W        W40792   7.721  10.762  13.935  0.6582 -0.1779 -0.0961
24532W        W40793  10.983   1.558   4.892  0.0679 -0.0158  0.0117
24533W        W40794  12.379  13.400  12.360 -0.0605  0.0702  0.3075
24534W        W40795  18.261  13.869   3.351  0.0278  0.0504 -0.1876
24535W        W40796  18.405   3.855  13.699 -0.2074 -0.0925  0.0327
24536W        W40797   0.130  11.355   3.764 -0.0211  0.0708 -0.2412
24537W        W40798  19.443   0.690   0.429  0.0306  0.1375 -0.0126
24538W        W40799  19.449  18.739   1.433 -0.0179 -0.1110 -0.2600
24539W        W40800   5.777   8.415  10.073  0.2262 -0.0868 -0.2062
24540W        W40801  17.692   0.480  13.956  0.0220 -0.0861 -0.0690
24541W        W40802   1.673  18.505   4.422  0.1172  0.0633  0.0824
24542W        W40803  15.679   8.835   0.373  0.1901  0.0902 -0.0361
24543W        W40804   2.655  17.123   2.116  0.0747 -0.1525  0.1250
24544W        W40805   5.824  14.518   2.827  0.1391 -0.2046 -0.0803
24545W        W40806  12.334   6.335   2.844 -0.0517  0.0071  0.0939
24546W        W40807  12.668   0.149  11.404  0.1017 -0.0967 -0.0891
24547W        W40808  14.448  18.452   0.149 -0.2152 -0.2218 -0.0054
24548W        W40809   8.698   2.827  11.930 -0.0441 -0.2924 -0.1419
24549W        W40810   6.848  19.387  10.269  0.1013 -0.0540 -0.2818
24550W        W40811   6.465   4.342  13.260  0.1453  0.2359  0.0509
24551W        W40812   7.524   2.871   3.553  0.3043  0.2538 -0.3354
24552W        W40813   9.261  17.439   5.767 -0.2436  0.1049 -0.2918
24553W        W40814  17.477   6.717   2.871  0.3684  0.1127  0.0146
24554W        W40815   5.066   9.129   3.956  0.1646 -0.1475 -0.1831
24555W        W40816   6.638   3.935  11.746  0.1880  0.3374 -0.1935
24556W        W40817   0.930   2.193  10.666 -0.2864 -0.1555  0.2670
24557W        W40818  14.630   7.419   3.268 -0.1593  0.1172  0.0669
24558W        W40819  18.612   4.929  14.648  0.1927 -0.0736 -0.3197
24559W        W40820  15.351  18.688  12.351  0.3049  0.0256  0.3379
24560W        W40821   1.442   4.550  12.259  0.0717  0.1459 -0.0698
24561W        W40822  12.430   5.870  12.712 -0.1647 -0.1089 -0.0503
24562W        W40823   7.113  11.217   2.733 -0.0424  0.3067 -0.3879
24563W        W40824   6.907   6.613  13.727 -0.1208 -0.0304 -0.1179
24564W        W40825   6.290  18.368  12.942 -0.0114  0.1518  0.2861
24565W        W40826   7.800   5.824   3.584 -0.2420 -0.2568 -0.1619
24566W        W40827   1.102   8.891  13.430  0.0067 -0.1088 -0.1618
24567W        W40828   5.870  17.991   2.873 -0.1075  0.2849  0.1036
24568W        W40829   0.860  13.526  12.922  0.1153 -0.0921 -0.0940
24569W        W40830  11.459   7.421  11.153 -0.3495 -0.2324  0.1326
24570W        W40831  11.196   8.021   3.745  0.2331 -0.0261 -0.1008
24571W        W40832   6.863   7.404   4.881  0.1575  0.2069  0.1180
24572W        W40833   2.753   4.026   3.955  0.0031  0.0971 -0.3024
24573W        W40834  13.756   6.327   2.628 -0.0845  0.1523 -0.3923
24574W        W40835   5.725  18.937  13.586 -0.0449 -0.0500  0.2348
24575W        W40836  15.297   7.006  14.445 -0.2255  0.1088  0.0201
24576W        W40837  15.699   7.209   5.278 -0.0332  0.1915  0.1879
24577W        W40838   6.748  11.603   2.740  0.0857  0.0576  0.3312
24578W        W40839  14.793  16.545  12.580  0.0805 -0.3040  0.0507
24579W        W40840  11.521   7.723   1.896  0.2688 -0.0135  0.1100
24580W        W40841   7.060   5.905  11.456 -0.0918  0.2092 -0.0709
24581W        W40842  10.453   3.573   3.898  0.0377  0.1100 -0.0082
24582W        W40843  14.431  18.640   3.181  0.2919 -0.0225  0.1162
24583W        W40844  14.472  13.752   2.252  0.3128 -0.1850 -0.0205
24584W        W40845   9.489  13.330  11.514 -0.0870  0.0511  0.0786
24585W        W40846   4.358   7.576   2.229  0.1847  0.0879 -0.1260
24586W        W40847  17.002   0.759  13.866  0.2534 -0.6049 -0.1431
24587W        W40848  19.003   4.557   3.375  0.2727  0.1372  0.3638
24588W        W40849  11.741  19.473  14.233 -0.0593  0.1506 -0.0904
24589W        W40850  13.129   4.121   2.620 -0.0670  0.1380  0.1739
24590W        W40851  14.304  14.567   2.793  0.0087 -0.0366 -0.1650
24591W        W40852   3.660  11.496   0.197  0.0312 -0.0104 -0.0073
24592W        W40853  18.517   4.314  12.959 -0.0550  0.0599 -0.0564
24593W        W40854   1.420  15.669   2.277  0.0135  0.5133  0.2499
24594W        W40855  13.946  10.454  12.152 -0.0531  0.0634 -0.0415
24595W        W40856   6.237   6.802  11.802  0.0393  0.0847 -0.0547
24596W        W40857   3.597   3.699   3.289  0.2347 -0.0982 -0.0217
24597W        W40858  13.186  16.662   5.279 -0.0256 -0.3204  0.1857
24598W        W40859   8.377   8.764  13.054  0.0044  0.0390  0.1944
24599W        W40860  13.127  11.275   3.920 -0.1959 -0.1968 -0.1827
24600W        W40861  16.143  17.615   4.477 -0.0938  0.0945 -0.2894
24601W        W40862   5.735   9.735   0.686  0.1295  0.3462 -0.3125
24602W        W40863   2.089   8.271   1.852  0.3723 -0.0658 -0.0548
24603W        W40864  17.915  10.048   2.392 -0.0926  0.1187 -0.0090
24604W        W40865   8.378  12.227   0.259 -0.1432 -0.1606 -0.0393
24605W        W40866   6.167   8.042   0.705  0.0628  0.1019 -0.0278
24606W        W40867  13.508   9.030   1.175  0.1551 -0.2638 -0.0775
24607W        W40868  11.246  16.898   5.392 -0.0771  0.1444 -0.0715
24608W        W40869   1.721   8.075   1.041  0.1258 -0.0432 -0.0933
24609W        W40870   6.120   6.775  10.176  0.0522  0.2877 -0.3848
24610W        W40871  11.619  15.455   1.320 -0.2821 -0.0244  0.4990
24611W        W40872   8.330   1.619   3.362 -0.0715 -0.0483 -0.1923
24612W        W40873  10.147   3.523  14.339  0.1706 -0.3178 -0.3072
24613W        W40874  11.316   0.826  13.794  0.1130 -0.0687  0.1114
24614W        W40875  11.778   6.792  13.885  0.2209  0.1938 -0.0136
24615W        W40876  10.357  12.089  14.272 -0.1485  0.1610 -0.2438
24616W        W40877   1.380   0.376   4.122  0.1684 -0.0916  0.3391
24617W        W40878  16.692   9.416  11.931 -0.0314  0.2460 -0.1100
24618W        W40879   0.509  12.034  10.680 -0.3309  0.2238 -0.3804
24619W        W40880   0.965  10.315  11.457 -0.0687  0.3819 -0.0287
24620W        W40881   0.153  18.059   3.210  0.1571  0.1950  0.0017
24621W        W40882  12.923   5.932  14.773  0.2042 -0.1794 -0.1085
24622W        W40883  13.740  10.693  11.092  0.0973  0.0900 -0.0442
24623W        W40884  10.013  11.723   2.446  0.1908  0.1665 -0.3085
24624W        W40885   9.504   1.730  12.466 -0.2887 -0.0591 -0.3533
24625W        W40886  12.023   6.647   3.199 -0.2632 -0.2298 -0.2570
24626W        W40887  10.894   5.625   4.942  0.0358 -0.0086 -0.0810
24627W        W40888   8.553   7.827  10.358 -0.1166 -0.3657 -0.0460
24628W        W40889   7.192   1.256  13.925 -0.0273  0.1139 -0.1505
24629W        W40890   5.761  17.757  12.518  0.3665  0.1766  0.2266
24630W        W40891  13.936  18.503  11.573 -0.0586 -0.0912 -0.1943
24631W        W40892   8.320  13.867   1.688 -0.0950  0.0641  0.0050
24632W        W40893   1.251   9.300   1.434 -0.3092 -0.1361  0.2465
24633W        W40894  16.111   4.443   3.717 -0.0407 -0.1364  0.2466
24634W        W40895  19.292  13.401   0.362  0.0574 -0.2907  0.1339
24635W        W40896  10.941   7.207   2.294 -0.0601 -0.1846  0.4203
24636W        W40897  13.620   4.123  11.561  0.2163 -0.0438 -0.0521
24637W        W40898  12.435  11.819  11.699 -0.0584 -0.3168 -0.3890
24638W        W40899  10.339  14.917   3.157  0.0372 -0.1899  0.2226
24639W        W40900  18.907   6.324   2.708  0.0327 -0.2100  0.1381
24640W        W40901   9.892  18.876   5.255 -0.3717  0.0772  0.0337
24641W        W40902   5.181  15.195   1.982  0.1567 -0.1031  0.2723
24642W        W40903  14.087  10.690   0.983 -0.1298 -0.2523  0.0788
24643W        W40904   8.717  16.640  13.610  0.1486 -0.0922  0.0744
24644W        W40905   1.980   3.967  13.009  0.0538 -0.3407 -0.1669
24645W        W40906  15.467   1.210  11.287  0.0894 -0.2270 -0.0668
24646W        W40907   1.361  16.859  13.053  0.4473  0.0431 -0.3661
24647W        W40908   9.268   6.987  13.300  0.0288 -0.1353  0.1762
24648W        W40909   3.438   2.910  12.283 -0.2312 -0.0614 -0.3261
24649W        W40910   2.344   1.263  11.390  0.1032  0.0317 -0.1446
24650W        W40911   2.764   0.922  12.651  0.0508 -0.1741 -0.3247
24651W        W40912  10.010   9.983  12.088 -0.3630  0.0907 -0.0136
24652W        W40913   5.594   0.260  12.261  0.0593  0.4782 -0.0776
24653W        W40914   8.576  14.406   0.617 -0.1873  0.0078  0.2035
24654W        W40915   3.492   5.819  13.509 -0.4928  0.0734 -0.2363
24655W        W40916  17.948   3.535  14.057  0.2783  0.2395 -0.1163
24656W        W40917  15.440   3.611   0.643 -0.2728  0.0293 -0.0589
24657W        W40918  17.132  15.367   3.660 -0.2942 -0.0218 -0.0422
24658W        W40919  14.536  16.146   2.598 -0.1118 -0.0769 -0.0783
24659W        W40920   8.968   0.480   2.077 -0.1823  0.0351  0.2870
24660W        W40921  11.546  17.282   2.612 -0.0361  0.3479  0.1045
24661W        W40922   2.224   5.282  14.340 -0.0105 -0.0541  0.2067
24662W        W40923  14.970   9.244   3.773 -0.0908 -0.2715 -0.0954
24663W        W40924  15.095   3.130   5.440  0.0906  0.1685  0.2250
24664W        W40925  18.321   4.762  10.500  0.1132 -0.3066 -0.0799
24665W        W40926   6.241  14.792  14.451  0.2312 -0.3393  0.0734
24666W        W40927  10.573  10.846  11.133 -0.5459 -0.3879  0.1482
24667W        W40928   3.076   7.568  13.910 -0.1418 -0.1533  0.4097
24668W        W40929   9.542  10.808  11.425  0.1210  0.0559 -0.1822
24669W        W40930   0.243  13.119   3.619 -0.1420 -0.0454  0.0461
24670W        W40931  18.405  16.436   4.586  0.3968 -0.0212  0.1612
24671W        W40932  16.739  18.594   3.851 -0.0900  0.0420  0.0193
24672W        W40933   0.173   7.870  12.200 -0.0075 -0.3342  0.2271
24673W        W40934   3.607  11.211   9.910 -0.2606  0.0803  0.0309
24674W        W40935  12.468   6.497  13.468  0.1479 -0.1409 -0.0742
24675W        W40936   2.519   0.431  12.646  0.2568 -0.0570 -0.0793
24676W        W40937   4.577  17.607  13.457  0.0899 -0.0793  0.1357
24677W        W40938  18.339   5.109   1.041  0.0367 -0.1227 -0.2612
24678W        W40939   5.203   0.536  12.569  0.0230  0.2333 -0.1544
24679W        W40940  10.441   9.665   5.739  0.0868  0.0453 -0.0597
24680W        W40941  17.521  16.451  13.905 -0.1575  0.0353 -0.3588
24681W        W40942   8.820  19.159   2.668 -0.0849 -0.1391 -0.2883
24682W        W40943  17.373   9.765   0.650  0.0582 -0.4816  0.0910
24683W        W40944   8.387  14.813   0.251  0.1515 -0.1050  0.1034
24684W        W40945  19.487  10.884   3.823  0.2491  0.2575 -0.0269
24685W        W40946   8.089  15.465   2.356 -0.2663 -0.1071 -0.1457
24686W        W40947  13.435   5.940  14.108  0.1854 -0.1990  0.1759
24687W        W40948   1.948  14.665  13.011  0.2855 -0.0036 -0.0524
24688W        W40949  15.569   1.367   1.502  0.0869 -0.1530  0.1950
24689W        W40950  12.612  18.449  12.008 -0.3681 -0.1173 -0.2869
24690W        W40951   6.219   0.167  14.308 -0.0068 -0.0182 -0.0830
24691W        W40952  17.139   9.710  13.634 -0.1423  0.1375  0.0609
24692W        W40953   0.898  19.374  11.862 -0.0059  0.0220  0.3214
24693W        W40954  12.501  18.126  13.583  0.1455 -0.1535  0.1543
24694W        W40955   7.092   8.836  12.999  0.1170  0.3167 -0.3670
24695W        W40956   3.067   3.671  13.776 -0.1322  0.0523 -0.3125
24696W        W40957   6.963   8.737   2.701 -0.0894  0.1223 -0.3360
24697W        W40958  11.290  14.321   4.540 -0.2024 -0.1768 -0.1897
24698W        W40959  15.542   2.866  12.645 -0.4095 -0.2795 -0.0122
24699W        W40960  18.795  16.760   2.614 -0.1040 -0.1620 -0.0154
24700W        W40961   5.171  15.917  12.142 -0.2470  0.2821  0.0098
24701W        W40962  10.806  13.134   4.790  0.0847  0.2868 -0.3621
24702W        W40963  14.160  18.325   4.453 -0.2484  0.0909  0.1031
24703W        W40964   1.973  17.747   3.333  0.3069 -0.2748 -0.2402
24704W        W40965  16.407   8.268   4.142 -0.0234  0.1069  0.3546
24705W        W40966  16.415   2.278  12.939 -0.3039  0.2681 -0.3021
24706W        W40967   7.517  14.399  13.617 -0.3707  0.1736  0.0248
24707W        W40968  18.692  18.930   0.831  0.1474 -0.0290 -0.2344
24708W        W40969  19.132  19.413  14.657 -0.0054  0.0491 -0.0842
24709W        W40970   1.593   3.677  13.208  0.0433  0.0853  0.0053
24710W        W40971  14.855  15.497   1.845 -0.3104 -0.0168 -0.2568
24711W        W40972   4.835   0.430   3.539 -0.1531 -0.0228  0.1525
24712W        W40973   4.548   7.253  12.411  0.2310 -0.0693  0.2699
24713W        W40974  17.759  13.216  14.301  0.0730 -0.0619 -0.0313
24714W        W40975   5.209  14.527  14.376  0.1255  0.0824 -0.1833
24715W        W40976  11.195  12.618   2.015 -0.2532  0.4175  0.0444
24716W        W40977   9.371  16.699  13.955  0.2323 -0.0069 -0.0476
24717W        W40978   5.166  12.836   9.087 -0.0436 -0.1974 -0.4814
24718W        W40979  11.931  16.909  13.326  0.2553  0.1748  0.0790
24719W        W40980   1.833   0.764   9.192 -0.1372 -0.1902 -0.2243
24720W        W40981   1.040   7.465   2.777 -0.2377 -0.0349  0.0321
24721W        W40982  14.314  13.077  13.636 -0.2630 -0.2988 -0.0831
24722W        W40983   0.178  11.796   0.501  0.1016  0.1049 -0.0458
24723W        W40984  19.401   2.926   1.262 -0.1228 -0.2164  0.0803
24724W        W40985   2.817   2.094  10.017 -0.0579 -0.3341  0.3962
24725W        W40986   3.277   3.584   0.661  0.0177 -0.2699  0.1526
24726W        W40987  13.757   2.217   0.663  0.0269  0.2692 -0.1784
24727W        W40988  16.491   2.940   1.958 -0.1770 -0.3184 -0.1657
24728W        W40989   0.052   2.804   3.860 -0.0816 -0.0839 -0.1576
24729W        W40990  14.137   6.327   0.456  0.1331 -0.1473 -0.2637
24730W        W40991   6.568   5.513  13.647 -0.0126 -0.0801 -0.2951
24731W        W40992   8.214   2.855   0.617  0.1967  0.4144  0.0280
24732W        W40993   3.972  17.370  14.053  0.0085 -0.2128  0.1242
24733W        W40994   0.549  15.697   4.899  0.3466 -0.2437  0.3913
24734W        W40995   0.113   0.659   4.345  0.0980 -0.0677 -0.0048
24735W        W40996  17.563  16.933   0.373 -0.0059 -0.2791 -0.1334
24736W        W40997   4.989  12.995  14.449  0.0615 -0.0347  0.2622
24737W        W40998  18.975   2.029  14.770  0.0398 -0.1204 -0.1059
24738W        W40999  13.994   5.759   4.782 -0.1445 -0.1241 -0.1259
24739W        W41000   4.079   9.967   3.359  0.0662  0.1245 -0.1148
24740W        W41001  14.930  19.166  13.637  0.0281  0.0530  0.4348
24741W        W41002   7.443   2.583  12.638  0.0574 -0.0481  0.1984
24742W        W41003   5.677  16.363  13.849 -0.2197  0.1211 -0.1198
24743W        W41004  14.477  13.701  11.756 -0.3198 -0.1006 -0.0194
24744W        W41005  14.373   8.178   3.887  0.1682  0.1282  0.6000
24745W        W41006   3.210  10.678   2.882  0.1950 -0.0680  0.0923
24746W        W41007  18.040   8.234   4.404  0.0862 -0.0375 -0.1934
24747W        W41008  16.688   1.833  13.022  0.1672  0.2815  0.1587
24748W        W41009   2.585   3.290   1.086 -0.0168  0.1114 -0.1901
24749W        W41010   0.595   6.395  12.893  0.3618 -0.0342  0.0385
24750W        W41011   9.635   1.073   3.678 -0.1149 -0.1528 -0.2514
24751W        W41012   5.637   8.354   4.667  0.1095 -0.0669 -0.2300
24752W        W41013   7.094   7.850   3.808  0.0229 -0.2642 -0.1543
24753W        W41014   6.353   2.048  14.391  0.2315  0.1967 -0.1567
24754W        W41015   5.216   7.612  10.137 -0.0013 -0.0222 -0.2300
24755W        W41016   9.609   3.705   0.128 -0.0269 -0.4327  0.1379
24756W        W41017   8.547  16.145  13.638  0.2312 -0.1637 -0.3379
24757W        W41018  14.707   0.309  13.940  0.1500 -0.2306  0.2896
24758W        W41019  11.983   7.232   3.297  0.1623 -0.3288 -0.1677
24759W        W41020  13.619  13.839   2.862 -0.2242 -0.0134 -0.2624
24760W        W41021  12.930   5.732   2.709  0.1200 -0.3705  0.0379
24761W        W41022   9.655   9.255  12.362 -0.0052 -0.0242  0.0128
24762W        W41023   3.191  12.371  10.610  0.0383 -0.0447  0.0834
24763W        W41024   1.817   5.615  14.016  0.2649 -0.2195 -0.0899
24764W        W41025   9.879   9.374  10.816  0.0830  0.0498  0.0819
24765W        W41026   7.218   1.872  10.807  0.3440 -0.1510  0.0048
24766W        W41027   9.278   2.315   2.445 -0.2314  0.0649 -0.0551
24767W        W41028  14.091   7.567   3.498  0.1718 -0.1894 -0.0426
24768W        W41029  10.478   2.521  12.336  0.0419  0.0166  0.0131
24769W        W41030  15.938   1.045  14.028  0.5033 -0.0054 -0.1558
24770W        W41031   4.610  14.695   4.078  0.1861  0.2988 -0.1487
24771W        W41032   0.107   2.219   4.774 -0.2319 -0.3001  0.1476
24772W        W41033   8.523   8.577  14.435  0.1920  0.0920 -0.1274
24773W        W41034   2.476  16.657   2.107 -0.1774  0.0281 -0.1330
24774W        W41035   3.097  15.414   1.659 -0.0795  0.1967  0.0579
24775W        W41036   8.744  16.698  11.650  0.1967  0.2104  0.1382
24776W        W41037  14.736  13.622   4.694 -0.1829 -0.2417 -0.0238
24777W        W41038  13.071   4.947  11.257 -0.1504 -0.1056 -0.1751
24778W        W41039   2.066  17.655   4.187 -0.2727 -0.3014 -0.2882
24779W        W41040   6.551   9.699   1.247 -0.1781  0.2630 -0.1101
24780W        W41041   5.070  19.156   4.064  0.0072 -0.1997  0.1461
24781W        W41042   3.581  14.028   4.397 -0.3170 -0.1929  0.2145
24782W        W41043  13.705   3.453  12.362 -0.0416  0.0181  0.0307
24783W        W41044   5.074   1.059   2.256  0.0069  0.0821 -0.0055
24784W        W41045   8.030  15.586  11.759 -0.4702  0.3140 -0.0109
24785W        W41046  17.865  10.754   2.683 -0.0331  0.1485  0.1074
24786W        W41047  16.662   9.101  13.892  0.2090 -0.2206 -0.1831
24787W        W41048   6.892  10.622   1.709 -0.0883  0.2291  0.1393
24788W        W41049   5.654  17.066   2.436  0.2007  0.5350  0.0087
24789W        W41050   5.220  11.003  12.641  0.0274 -0.0472  0.3234
24790W        W41051  10.746   3.989  12.759 -0.2242 -0.0664  0.0514
24791W        W41052  15.438   4.745   2.624  0.0199 -0.0484  0.1332
24792W        W41053   2.939  14.398  12.514 -0.2464 -0.0557 -0.1276
24793W        W41054  17.032  12.651  12.249 -0.0790 -0.4301  0.2753
24794W        W41055  11.061  10.492  14.627  0.1342  0.1552  0.3010
24795W        W41056  14.488   8.588  11.890  0.5903  0.1787 -0.0320
24796W        W41057   7.167  13.633   2.512 -0.1786 -0.0177  0.1940
24797W        W41058  11.241   1.435  11.650  0.1328 -0.0021  0.0521
24798W        W41059  10.435  19.373  12.715 -0.1432 -0.1193 -0.0184
24799W        W41060   3.787   9.550   4.315  0.2109  0.1505  0.1050
24800W        W41061  16.071   9.909   0.457 -0.2647 -0.0380  0.0990
24801W        W41062   1.426  12.626  11.718 -0.1841 -0.0998 -0.0298
24802W        W41063   0.555  14.128  12.268 -0.0683  0.1094 -0.2599
24803W        W41064  12.203  15.170   1.852  0.1356 -0.0691 -0.0294
24804W        W41065  14.673   4.176   0.438 -0.1419  0.0975  0.2194
24805W        W41066   9.581   6.152  11.066  0.1787 -0.5544  0.3763
24806W        W41067  11.162   0.676   9.719  0.1674 -0.1269 -0.1778
24807W        W41068   9.540   5.105   0.288 -0.0609  0.0020  0.2667
24808W        W41069  17.502   2.405   0.697 -0.1264  0.1791  0.1885
24809W        W41070  12.768  15.527  11.128  0.1283  0.0892 -0.0337
24810W        W41071   4.750   2.732   1.424 -0.0181  0.2095 -0.4879
24811W        W41072   2.304   0.358   1.335  0.3460 -0.0616 -0.4386
24812W        W41073   1.788   5.714   1.745  0.2750 -0.1359  0.1742
24813W        W41074   8.564   2.697  10.554  0.2714 -0.2641  0.0286
24814W        W41075   5.069  17.136   3.115  0.2892 -0.2922  0.1650
24815W        W41076   6.479   4.113  12.758 -0.3546 -0.0034  0.0779
24816W        W41077   6.173   2.083   0.034 -0.1060  0.4766 -0.5516
24817W        W41078  13.097  17.318  11.021  0.0930  0.1545 -0.0045
24818W        W41079  15.288  13.091   2.525  0.3374  0.0338  0.1155
24819W        W41080  17.394  18.901   3.760 -0.1029  0.0942  0.1259
24820W        W41081  14.506   6.793   4.071 -0.2516  0.0382 -0.0977
24821W        W41082  15.205   2.023  11.233 -0.0363  0.1106  0.0436
24822W        W41083   0.880   6.735   4.390 -0.1724  0.2903  0.0023
24823W        W41084  10.001  11.542   0.616  0.1803  0.1798 -0.2303
24824W        W41085  11.708   9.601  14.650 -0.0996  0.4617  0.2050
24825W        W41086   6.601  11.083  13.082  0.0337 -0.0227 -0.1822
24826W        W41087   9.700  11.136   0.394  0.1775  0.4099  0.2438
24827W        W41088   1.876   5.393   0.214  0.0975 -0.0763  0.1744
24828W        W41089  12.457   1.710   4.845  0.0407 -0.5131 -0.0721
24829W        W41090   0.003   2.007  13.039  0.0983 -0.0691  0.2476
24830W        W41091   0.230  16.696   0.259 -0.1566 -0.2192 -0.1480
24831W        W41092  18.968  16.984   1.827 -0.1404 -0.0156 -0.1710
24832W        W41093  10.152  11.246   1.198 -0.1087  0.0694 -0.2254
24833W        W41094   9.433  19.337  13.950  0.0085  0.1858  0.1414
24834W        W41095  14.543   0.144   2.087  0.1892  0.2914  0.0289
24835W        W41096  17.992   5.919  14.613 -0.1444  0.3042  0.0929
24836W        W41097   5.445   0.453  14.497 -0.2041 -0.0409 -0.1099
24837W        W41098   0.619  16.803   1.951  0.1053  0.1219 -0.5035
24838W        W41099  10.106   1.175   1.238 -0.0341 -0.0292  0.0865
24839W        W41100  12.256  13.864  12.486 -0.0100  0.1553 -0.1655
24840W        W41101  16.674  10.769  11.319  0.1148  0.2076  0.1838
24841W        W41102  17.226   5.625  11.111 -0.2102 -0.0539 -0.1371
24842W        W41103  18.141   3.500  10.424  0.0002 -0.3300 -0.1643
24843W        W41104   4.724   9.353   2.477 -0.1826  0.3759 -0.1220
24844W        W41105  15.194  16.633  12.332  0.2727  0.0209  0.2205
24845W        W41106  17.412   7.410   0.305  0.1392  0.1696 -0.2432
24846W        W41107   7.723   3.781   4.124  0.1235 -0.0371 -0.2125
24847W        W41108   6.360  12.662   1.693  0.1847  0.3079  0.1479
24848W        W41109  17.256  12.965   0.509 -0.0963 -0.0250 -0.2988
24849W        W41110   2.944   6.071   9.991  0.1202 -0.3055  0.0239
24850W        W41111  11.668  19.338  14.742 -0.4393 -0.3048 -0.0351
24851W        W41112   1.303   4.666   1.608  0.3812 -0.4704  0.0197
24852W        W41113   2.337   4.899  14.011  0.0937 -0.0579  0.2229
24853W        W41114  18.035   7.845  11.706 -0.1315  0.1805  0.1058
24854W        W41115   2.704   8.734  14.461 -0.2056 -0.2558  0.0629
24855W        W41116   7.208  11.938   3.919  0.2020  0.1869 -0.1276
24856W        W41117  12.069  14.002   3.689  0.1079  0.4505 -0.2507
24857W        W41118  15.607  12.606  10.664  0.1965 -0.1509  0.0933
24858W        W41119   3.003  18.263  10.952 -0.1586  0.0129  0.0035
24859W        W41120   7.974   7.841  14.501 -0.2956 -0.0563  0.0698
24860W        W41121  14.487   6.184  12.906 -0.2222  0.2861  0.1658
24861W        W41122  11.659  10.298   0.976 -0.0586  0.0997 -0.3077
24862W        W41123   5.225   2.317  14.007 -0.0614  0.0622 -0.0068
24863W        W41124   6.806  12.804   3.901 -0.0263  0.0651  0.0676
24864W        W41125   0.901   3.242  12.140 -0.2818 -0.5551 -0.1719
24865W        W41126   7.365   9.091  10.805 -0.0549 -0.0984  0.1001
24866W        W41127  15.403   6.492   0.351  0.1051  0.2240  0.1161
24867W        W41128  10.976   6.301   0.172 -0.2253  0.1462  0.1292
24868W        W41129   2.854   3.224   1.634  0.2269 -0.1152 -0.0064
24869W        W41130   0.272   5.192  11.850 -0.1087 -0.0827  0.2062
24870W        W41131  11.138  12.808  12.911 -0.2324 -0.0924  0.2023
24871W        W41132  12.538  15.131  13.889 -0.2464  0.0588  0.1225
24872W        W41133  15.265   8.106   0.541 -0.0183 -0.2177 -0.3197
24873W        W41134   3.340   6.505   2.109  0.0504  0.2067  0.4241
24874W        W41135   7.527   8.681   5.008  0.0869 -0.3099 -0.0753
24875W        W41136  18.368   4.476  11.483  0.2411  0.3159  0.0137
24876W        W41137  10.759   5.716  10.458  0.2080  0.3641 -0.0255
24877W        W41138  14.178  10.483   0.475 -0.1342  0.0347  0.1623
24878W        W41139  15.099  18.322   1.768  0.2293  0.0329 -0.1254
24879W        W41140   4.620  11.553   3.530 -0.3999 -0.0896  0.0525
24880W        W41141  10.990   4.689   1.450 -0.0514  0.4164  0.0473
24881W        W41142   7.462   1.732  11.659  0.3345 -0.1848  0.2398
24882W        W41143  16.872  11.288  10.426  0.1244 -0.3572  0.1857
24883W        W41144  18.201   6.273   4.540 -0.1672 -0.0040 -0.1020
24884W        W41145  17.794   3.343   1.767  0.1634  0.2368  0.1023
24885W        W41146   5.457   4.551  13.140  0.2290  0.0251 -0.0734
24886W        W41147   1.830  17.182   9.797 -0.1683  0.0271 -0.2369
24887W        W41148  16.106  17.208   1.462 -0.0136  0.2259  0.2080
24888W        W41149  11.069   8.599   3.704 -0.4505  0.3391  0.1971
24889W        W41150   6.253   1.262   0.249 -0.0745  0.1185 -0.0447
24890W        W41151   3.178   5.919   2.956  0.1971  0.2734  0.1040
24891W        W41152   6.504  15.930   1.326  0.1095  0.2112  0.1165
24892W        W41153   0.856   6.680  12.172  0.2305 -0.0574 -0.1711
24893W        W41154  11.672  19.168   2.242 -0.1950  0.0704  0.2398
24894W        W41155   8.214   1.874   3.773 -0.0345  0.2281 -0.2122
24895W        W41156  16.260   0.312   3.424  0.0031  0.0486 -0.0672
24896W        W41157  15.404  14.633  13.123 -0.2622  0.0651 -0.1879
24897W        W41158  18.143   5.144   1.683 -0.1565  0.1533  0.1982
24898W        W41159  12.766   3.449  10.634 -0.2583 -0.1894  0.2437
24899W        W41160  15.698  11.807   3.929 -0.0229  0.2583 -0.0643
24900W        W41161  17.238   6.573  14.180  0.1214 -0.0639 -0.0476
24901W        W41162   5.666   2.803  14.803 -0.1014 -0.0848  0.2382
24902W        W41163   1.663  12.961  14.239 -0.2063  0.1993 -0.0278
24903W        W41164  15.550   5.209   1.661 -0.0514 -0.1478 -0.2272
24904W        W41165   1.404  13.648   2.299 -0.2970 -0.1312 -0.1053
24905W        W41166   9.465  14.718   4.350 -0.2113 -0.3130 -0.1119
24906W        W41167  11.118   6.418   2.858  0.4446 -0.1453  0.1211
24907W        W41168   6.426  13.128   4.030 -0.0935  0.0594  0.0313
24908W        W41169  18.114   2.979   0.108  0.0168  0.0766  0.2591
24909W        W41170  18.973  14.977  13.712  0.2283  0.3051 -0.2914
24910W        W41171  10.443  14.401   3.331 -0.1326  0.0309 -0.5861
24911W        W41172  18.015  16.729  12.098 -0.1285 -0.0335 -0.0056
24912W        W41173  15.147  14.608  10.555  0.0051 -0.0657 -0.1199
24913W        W41174   5.138   3.605   0.557 -0.2814  0.1264  0.2327
24914W        W41175   3.854  10.016   4.423 -0.1028  0.0016 -0.0622
24915W        W41176   6.719  13.716  11.201 -0.1713  0.0125 -0.0919
24916W        W41177   0.549   5.622  12.746 -0.0905 -0.1884  0.1563
24917W        W41178   2.416  18.607  12.349 -0.0686  0.1210  0.5680
24918W        W41179   4.353   1.881  14.103 -0.1514  0.2139  0.2010
24919W        W41180  12.438   6.704   9.995 -0.0827 -0.0074  0.0039
24920W        W41181   4.391   1.782  12.952 -0.1994  0.1322 -0.1308
24921W        W41182   9.224  18.511   4.819 -0.4119 -0.1645  0.0740
24922W        W41183   3.948   1.013   4.102 -0.0312  0.3079 -0.1251
24923W        W41184   8.850   2.262   0.277  0.0647 -0.2029  0.1244
24924W        W41185   7.126  18.550  11.914 -0.0520 -0.0124  0.2395
24925W        W41186  15.850  17.217  14.569  0.1990 -0.0674 -0.0245
24926W        W41187  17.361   4.072  13.092  0.0378  0.0198 -0.2177
24927W        W41188  17.696  15.926   3.314 -0.0361  0.0307  0.1352
24928W        W41189  16.334  14.606   3.815 -0.1072 -0.1483  0.0872
24929W        W41190  18.481   2.323  13.628  0.0315 -0.2056 -0.0051
24930W        W41191  14.194   3.736  11.312  0.0834 -0.2055 -0.1665
24931W        W41192   6.903  10.254   0.322  0.0360  0.2059 -0.0703
24932W        W41193  17.735   3.273   3.873 -0.2441  0.3989  0.1162
24933W        W41194   5.017   8.088  10.841 -0.1242  0.3945 -0.0449
24934W        W41195   3.327   8.256  11.936 -0.1252  0.1142 -0.1858
24935W        W41196  14.115  11.312  11.168  0.0702 -0.0022  0.0987
24936W        W41197   0.293  16.364   1.940 -0.1761 -0.1524  0.1926
24937W        W41198  14.340  14.922   4.147  0.0925  0.2579  0.1093
24938W        W41199   2.098  13.360   2.783  0.2945  0.0959  0.0259
24939W        W41200   5.790   6.618  13.632  0.0939  0.1866  0.1299
24940W        W41201  10.008   4.566   0.427 -0.1268  0.2917 -0.0455
24941W        W41202   3.435   1.569   3.673  0.1698 -0.2251  0.0955
24942W        W41203   8.715  10.604   4.763  0.3465  0.1960 -0.0038
24943W        W41204  12.471   8.826  12.181  0.0002  0.0851 -0.0681
24944W        W41205   7.659   2.286   0.977 -0.1037 -0.1872 -0.2672
24945W        W41206   6.514  13.789   3.311 -0.1713  0.1363  0.1738
24946W        W41207   9.738   8.399   9.014 -0.2092  0.2208  0.2628
24947W        W41208  15.271  11.581  13.758  0.2038  0.0970  0.1688
24948W        W41209   5.035   4.788  13.283  0.4469  0.1002 -0.1963
24949W        W41210   0.513  16.670   0.887  0.1501 -0.1686 -0.3164
24950W        W41211   1.989  11.333  14.298 -0.2191 -0.1098 -0.3206
24951W        W41212   2.278  10.896   3.848 -0.0265  0.0747 -0.2906
24952W        W41213   9.657   4.866   2.952 -0.2400 -0.1608  0.2989
24953W        W41214  12.890  18.671  11.032 -0.3217  0.2312 -0.1484
24954W        W41215   4.376  18.862  14.456  0.0365  0.0667  0.2333
24955W        W41216   1.003  15.956  10.734  0.1775  0.1303 -0.3675
24956W        W41217  10.187  16.190   4.833  0.2110  0.1439  0.2056
24957W        W41218   6.280  15.576   0.174  0.0525  0.3946 -0.2595
24958W        W41219  15.868  14.579   0.105  0.1218  0.1169  0.0381
24959W        W41220   4.402  16.714  11.077  0.1940 -0.1325  0.2202
24960W        W41221   7.278   6.927  13.979  0.1150  0.2127  0.0033
24961W        W41222   7.964   4.655  14.131  0.1140  0.1016 -0.1231
24962W        W41223  18.898   5.053   1.119 -0.2618 -0.1368 -0.1566
24963W        W41224  12.257  10.330   1.831 -0.1057  0.0452 -0.1169
24964W        W41225  13.635   5.175   4.114  0.0764  0.1684  0.2523
24965W        W41226   7.207   1.765  14.245 -0.2073 -0.5257 -0.0886
24966W        W41227   1.832  13.295  14.641  0.0366  0.0882 -0.0654
24967W        W41228  12.418   9.144   4.019 -0.0654  0.0979  0.0071
24968W        W41229  16.518   9.664   1.661  0.2252 -0.0751  0.0564
24969W        W41230  18.547   6.005  14.103  0.1030 -0.0307 -0.1766
24970W        W41231  13.175  15.463   4.234 -0.0789 -0.1113  0.0317
24971W        W41232   3.573   8.204  14.177 -0.0207 -0.1882 -0.3698
24972W        W41233  17.738  15.488  11.414  0.0511  0.1079  0.0335
24973W        W41234  14.667  13.249   0.197  0.1677  0.0868 -0.0313
24974W        W41235   3.756  18.332  11.787 -0.0843 -0.1013 -0.1326
24975W        W41236  15.062  16.198   4.827 -0.2617 -0.1200  0.0227
24976W        W41237   8.567   4.999   3.814  0.4661 -0.1895  0.1801
24977W        W41238  16.700  18.362  10.933 -0.2108 -0.1768  0.1457
24978W        W41239  18.551  14.012  14.483 -0.0528  0.0844  0.2139
24979W        W41240  18.734  15.871   4.139 -0.0467  0.0961 -0.1927
24980W        W41241   3.189  11.851   4.092 -0.1061  0.0487  0.0948
24981W        W41242   3.670   1.292  11.505  0.1483  0.2928  0.2761
24982W        W41243  11.678  18.861  12.349  0.4301 -0.3171  0.0005
24983W        W41244  18.482   5.808  14.583  0.3895 -0.1421 -0.3330
24984W        W41245   0.110   3.417  13.179  0.1036  0.3196  0.4604
24985W        W41246   4.184   5.678  12.288 -0.2334  0.2639  0.2690
24986W        W41247   5.741   1.785   0.642 -0.0350  0.0132  0.0992
24987W        W41248  18.387   5.938  10.499 -0.0245  0.0875  0.0763
24988W        W41249  15.025  10.019  12.085 -0.3100  0.1345 -0.0857
24989W        W41250   0.493   0.524  14.467  0.1548  0.3363 -0.2837
24990W        W41251  15.839  16.313   3.681  0.2838 -0.0210 -0.0306
24991W        W41252  15.686  12.507   1.916 -0.2146  0.0960  0.1150
24992W        W41253  11.702   6.192  10.782  0.0495  0.1396 -0.1136
24993W        W41254   3.084  18.609   3.988  0.2219  0.0901  0.1446
24994W        W41255   9.213  19.001  13.584 -0.1943  0.0744 -0.2011
24995W        W41256   9.816   1.570  14.671  0.0520  0.1369 -0.1042
24996W        W41257   0.267  17.611  12.098 -0.2134 -0.1985 -0.1906
24997W        W41258  10.449  11.414   1.563 -0.4985  0.0280  0.1481
24998W        W41259   5.750  19.167   1.350 -0.1221 -0.1798  0.0356
24999W        W41260   3.067   1.940  13.678  0.1740  0.1731  0.0324
25000W        W41261  17.034   1.304  12.500  0.1497 -0.1136 -0.0314
25001W        W41262  12.482  10.476   0.587 -0.2274 -0.3506 -0.2624
25002W        W41263  18.805  17.702  12.144 -0.0418  0.0738 -0.0492
25003W        W41264   2.887  18.976  11.491 -0.2009  0.0422 -0.0569
25004W        W41265   3.207   1.599  11.668 -0.5427 -0.2956  0.0735
25005W        W41266  18.702   9.951   4.635  0.1503  0.1406 -0.1729
25006W        W41267  11.651   3.832  11.398  0.4054 -0.1887 -0.0181
25007W        W41268   4.894   5.913   2.543 -0.1927  0.1552 -0.1075
25008W        W41269  18.667  18.325   3.835  0.0326 -0.0311  0.1085
25009W        W41270   4.896   4.672  13.868  0.1324 -0.1461 -0.3355
25010W        W41271  16.477  13.047  11.687  0.1243 -0.0949 -0.0893
25011W        W41272  13.538   9.320  10.198  0.2795 -0.4974 -0.2452
25012W        W41273   1.635  11.016   3.125 -0.1700  0.0181  0.1866
25013W        W41274  15.487   3.014   4.597  0.2046 -0.2492  0.2533
25014W        W41275   0.207   4.794   2.014 -0.3034 -0.0623 -0.0707
25015W        W41276  18.571  12.093   4.220  0.1587  0.1289 -0.1203
25016W        W41277   9.743   5.814   8.918 -0.2251  0.4396 -0.1278
25017W        W41278  15.495  17.050  12.106  0.1456 -0.1141 -0.1716
25018W        W41279  10.843  17.305  10.342 -0.2188  0.1264 -0.0953
25019W        W41280  10.347   8.750   1.279 -0.4316 -0.2769  0.1005
25020W        W41281  15.385  17.705  14.043 -0.0541  0.2046 -0.0320
25021W        W41282  15.241  13.695   4.763 -0.1768  0.0781  0.1617
25022W        W41283  12.882   4.450   2.934  0.1260  0.0398 -0.1405
25023W        W41284   4.917  12.709  13.149  0.1993  0.2674  0.0465
25024W        W41285   5.237  13.053   3.797  0.0759 -0.0093  0.0546
25025W        W41286   3.018   0.545  10.330 -0.1772  0.1883 -0.0490
25026W        W41287   2.302   6.964  13.345  0.3975  0.2127  0.1689
25027W        W41288   5.951  11.142  11.698 -0.0970 -0.0074 -0.0693
25028W        W41289  17.261  13.452   0.615 -0.0710  0.1537 -0.4206
25029W        W41290  12.044   3.393   0.636 -0.2164 -0.2245  0.1875
25030W        W41291  17.206  10.252  12.674  0.3647 -0.1993 -0.2718
25031W        W41292  10.395  14.449   3.882  0.2274  0.0673 -0.3424
25032W        W41293   4.278   7.582  12.096  0.0660  0.0112  0.2040
25033W        W41294  11.769   6.656   0.913 -0.2690  0.2709 -0.0368
25034W        W41295   8.226  12.347  14.176  0.2322 -0.2783 -0.1594
25035W        W41296   1.142  16.507   5.091  0.0043  0.1511 -0.1230
25036W        W41297  16.952   8.674  13.177  0.2266  0.1628 -0.2415
25037W        W41298   1.584  17.371  10.312 -0.0040  0.1209 -0.3140
25038W        W41299   6.256  14.294  14.276 -0.0147 -0.3739  0.0785
25039W        W41300   8.228   0.189   2.830  0.1713 -0.1289  0.0154
25040W        W41301   3.432   0.131   2.847  0.1008 -0.1062 -0.0756
25041W        W41302   3.699  15.905   4.978 -0.1442 -0.0275  0.1113
25042W        W41303   1.778   7.497   1.888 -0.1760 -0.1349 -0.2727
25043W        W41304  12.131   1.893   0.053  0.1167 -0.1657 -0.4831
25044W        W41305  18.709  13.834   2.859 -0.0645 -0.1250 -0.1795
25045W        W41306  16.555  17.133   1.347 -0.2549  0.2033  0.0170
25046W        W41307   7.840   6.144  13.278  0.3196 -0.1142 -0.0894
25047W        W41308  12.936  14.991   3.994  0.0871 -0.1557  0.2140
25048W        W41309   9.926   7.415   4.513 -0.0236  0.0924  0.2524
25049W        W41310  17.508   8.322   1.182 -0.1458  0.0124  0.2443
25050W        W41311   3.498   8.817  10.364 -0.0891  0.1551 -0.1486
25051W        W41312  14.978  17.942   4.640  0.1746  0.2625 -0.0643
25052W        W41313  18.713  19.070   1.590  0.0691 -0.1115  0.1948
25053W        W41314   8.544   3.366   3.505 -0.3193 -0.0700 -0.1884
25054W        W41315   4.840   9.317  10.336  0.0951  0.0613  0.0920
25055W        W41316   1.328   6.874   2.631 -0.2623 -0.0629 -0.2640
25056W        W41317  16.723  14.951   5.127  0.0709  0.3018  0.0037
25057W        W41318   0.407   1.609   1.572 -0.1777 -0.1675  0.4287
25058W        W41319  17.397  11.037  13.217  0.1866  0.2157  0.2120
25059W        W41320   2.619  16.829  10.606 -0.0742 -0.1568  0.0652
25060W        W41321  13.608   3.335   1.568 -0.1048  0.1169  0.0238
25061W        W41322   5.301  16.236  14.392  0.1617 -0.3751 -0.1307
25062W        W41323   7.364   3.117  14.349  0.3313  0.0201  0.0984
25063W        W41324   5.175  12.801  10.769 -0.0913  0.4312 -0.1346
25064W        W41325  11.199   6.599   4.968 -0.0631  0.0552  0.1432
25065W        W41326  11.057   5.987   0.882 -0.0196  0.1024  0.1839
25066W        W41327  13.666  18.588   3.126  0.1259 -0.2140 -0.0131
25067W        W41328  10.859  11.177  10.872  0.2454 -0.3128 -0.0253
25068W        W41329  14.327   9.351  14.338  0.3411 -0.0376 -0.2570
25069W        W41330  13.783  19.478   4.828  0.2270  0.1722 -0.0022
25070W        W41331   4.469  13.002   2.031 -0.1980  0.0453  0.1049
25071W        W41332  16.148   1.782   5.676  0.1609 -0.0460 -0.2720
25072W        W41333  18.232   9.516  14.158  0.0978 -0.2776 -0.0584
25073W        W41334  14.976   9.159   4.406 -0.1181  0.0929  0.0357
25074W        W41335  19.271  19.024   3.057 -0.0487 -0.2519 -0.4868
25075W        W41336  17.782   7.764  10.515  0.1288 -0.1610 -0.1393
25076W        W41337   0.440  16.632  14.055 -0.0885 -0.1516 -0.1487
25077W        W41338   8.808   8.081   2.088  0.1411  0.1552 -0.2669
25078W        W41339   5.205   7.036  14.649  0.1667 -0.1112 -0.0794
25079W        W41340  10.337  17.154  12.000 -0.2892 -0.3515  0.2150
25080W        W41341  13.358  11.377   0.015  0.1207  0.2804  0.0042
25081W        W41342  10.634  16.150   1.950 -0.0839  0.1443  0.0195
25082W        W41343   2.746   9.825  11.999 -0.2217  0.1632  0.1539
25083W        W41344   5.462   5.535   1.061  0.2128  0.4371 -0.2732
25084W        W41345  18.957  12.135  14.694  0.0256  0.0041 -0.3096
25085W        W41346   2.184   3.172  10.710 -0.1488  0.2925  0.5054
25086W        W41347  10.213  18.301  14.415  0.1017 -0.0532 -0.0783
25087W        W41348   7.071   8.149  11.814 -0.1735 -0.1782 -0.4095
25088W        W41349  18.876   4.805   0.330  0.0793  0.0790 -0.0836
25089W        W41350  16.973   8.776  13.691  0.0397 -0.0088 -0.2735
25090W        W41351   3.902   4.545   2.069  0.1117  0.0079 -0.0284
25091W        W41352   1.068   8.478   1.879  0.0412 -0.0340 -0.2901
25092W        W41353   2.234  10.208  13.534  0.3032 -0.2153 -0.0826
25093W        W41354   6.648   2.040   4.596 -0.2675  0.1157 -0.0207
25094W        W41355  14.629   9.358   9.129  0.3163  0.1030 -0.0555
25095W        W41356  13.281   0.468   3.341  0.2626  0.0231 -0.0922
25096W        W41357  18.379  16.902  13.496  0.0506 -0.0205 -0.0504
25097W        W41358   4.985   8.358  12.189 -0.2654 -0.2630 -0.0549
25098W        W41359   3.367  14.966  14.163 -0.2640 -0.1284 -0.0832
25099W        W41360  17.015   7.584   1.508 -0.1516 -0.1661 -0.2189
25100W        W41361   4.529   1.599   0.979  0.0075  0.0765 -0.1088
25101W        W41362   3.231   5.522   0.148 -0.2823  0.0029 -0.1954
25102W        W41363   9.504  17.993  14.233 -0.1001  0.2437 -0.2536
25103W        W41364   0.481   5.792   5.500  0.1888  0.1227  0.2960
25104W        W41365   5.392  13.939  14.400 -0.0569  0.4197 -0.0650
25105W        W41366   2.271   5.838   0.914 -0.2812  0.1205  0.0170
25106W        W41367   1.348   1.750   1.553  0.4457 -0.0464 -0.1286
25107W        W41368   4.413  16.152   4.063 -0.1245 -0.1266 -0.1181
25108W        W41369   8.517   8.392  13.836  0.0318  0.1216  0.2253
25109W        W41370  12.699   0.387  12.240  0.1827  0.0951 -0.1023
25110W        W41371  13.835  17.696  12.755  0.0829 -0.2695  0.0285
25111W        W41372  18.002  12.192   1.018 -0.0648 -0.2314  0.1781
25112W        W41373  17.611   7.227   1.968 -0.2027 -0.3194 -0.0010
25113W        W41374  18.951  16.492   6.070 -0.0722  0.1922 -0.1555
25114W        W41375  16.653   9.442   4.823 -0.1142 -0.1799  0.0442
25115W        W41376  15.061  12.071   0.403 -0.0060 -0.0439 -0.0184
25116W        W41377  19.125   4.508   4.124  0.2446  0.0743 -0.2538
25117W        W41378  17.116   7.379   4.455  0.0464  0.0217 -0.2178
25118W        W41379   1.833   4.541  14.755 -0.0471 -0.3762  0.0634
25119W        W41380  12.158   6.478  13.886  0.2313  0.3410 -0.0307
25120W        W41381  17.453  17.697  12.127  0.2067 -0.2858 -0.0622
25121W        W41382  16.748  11.724  11.423  0.2766  0.0033 -0.0622
25122W        W41383   6.843   7.301  12.798  0.2796  0.0402  0.2535
25123W        W41384   9.684   1.533  11.948  0.1484  0.1853 -0.2696
25124W        W41385  14.995  12.690   0.792  0.0894  0.1267  0.1025
25125W        W41386   9.085   6.034  11.110 -0.3090 -0.0053 -0.2825
25126W        W41387   4.625  19.481  11.155  0.1649  0.0156  0.2628
25127W        W41388  17.441   8.311   2.125 -0.0444 -0.2064 -0.0800
25128W        W41389  10.076   9.140   1.709 -0.3483  0.0920  0.3377
25129W        W41390  16.697  13.063   1.920  0.2192  0.3973  0.2319
25130W        W41391  16.344   9.805   2.148 -0.1976  0.1946  0.3502
25131W        W41392   6.730   5.129  14.101  0.0815  0.0745  0.0909
25132W        W41393  17.312   5.540   2.933 -0.0655  0.0373 -0.2781
25133W        W41394   0.344  15.935  10.328  0.0079  0.1057  0.0157
25134W        W41395  14.401   4.845   3.485 -0.2589  0.2198  0.0516
25135W        W41396  14.043  10.854   0.044 -0.1310 -0.0203 -0.0668
25136W        W41397   2.725   4.341  12.278 -0.4027  0.2042 -0.0720
25137W        W41398   2.632   5.316  12.085  0.2579  0.1009  0.1517
25138W        W41399   9.400  19.043   3.348 -0.1460 -0.1222 -0.1258
25139W        W41400   5.822   0.489  13.264 -0.1427  0.1629  0.1306
25140W        W41401  18.489  19.226   1.181  0.0402  0.1750 -0.1152
25141W        W41402   9.894  13.227  14.546  0.0915  0.1190  0.1252
25142W        W41403  14.304  10.305  11.765 -0.0842 -0.0417 -0.0241
25143W        W41404   2.570  10.619  10.545  0.2416 -0.1367  0.3423
25144W        W41405   4.639   5.452  12.309 -0.2437 -0.3216  0.1578
25145W        W41406   5.834   7.459  12.510  0.1041  0.2357 -0.0533
25146W        W41407   9.788   2.722   1.722  0.4142  0.0770  0.1117
25147W        W41408  15.988  14.230   4.401  0.1539  0.0013 -0.2130
25148W        W41409  18.442  11.972   4.757  0.3565  0.3851  0.1084
25149W        W41410  17.298  12.955  11.893  0.2339 -0.2582  0.1823
25150W        W41411   7.049   0.853  14.736 -0.3724 -0.0060  0.2866
25151W        W41412   1.615  11.402  12.614 -0.2280  0.1063  0.0636
25152W        W41413   9.026   3.491  12.234  0.2283  0.2117  0.1489
25153W        W41414  14.166   6.893  12.398  0.0086  0.0151  0.2127
25154W        W41415  10.828   1.805   3.160  0.1019  0.2172 -0.1226
25155W        W41416   3.895  12.296   3.938 -0.2234 -0.1342  0.1733
25156W        W41417  11.866   8.989  11.704 -0.0224 -0.1064  0.2331
25157W        W41418   9.438   8.656  14.782 -0.3289 -0.0958  0.2527
25158W        W41419   1.149  17.299   4.490  0.3819 -0.1896 -0.0933
25159W        W41420   7.276   1.995   2.173  0.1477 -0.1636 -0.1326
25160W        W41421   5.179   4.344  12.530  0.1438 -0.1161  0.0356
25161W        W41422   6.341   9.678  14.448 -0.3743  0.0984  0.2442
25162W        W41423   7.199  14.969   1.067 -0.0669 -0.0836 -0.0606
25163W        W41424  16.145  10.955  10.471 -0.0322  0.1575 -0.1108
25164W        W41425   3.931  10.112   4.887  0.1237  0.3143 -0.1039
25165W        W41426  18.980   2.878   9.791  0.5096 -0.1493  0.5592
25166W        W41427   4.708  17.199  13.018  0.2762  0.3588  0.0850
25167W        W41428  15.869  14.826  14.477 -0.1975  0.0484  0.0951
25168W        W41429  11.836  14.789   0.653  0.0907 -0.2984  0.1225
25169W        W41430   5.710   8.831   4.559 -0.0902 -0.1022 -0.0629
25170W        W41431   5.756  15.806   2.618 -0.1553 -0.1435  0.0442
25171W        W41432   2.237  14.608   1.413 -0.0076 -0.1899 -0.4377
25172W        W41433   6.811   3.056  14.366 -0.0183 -0.0774 -0.1602
25173W        W41434   2.903   3.654  11.162  0.3354  0.0172  0.0536
25174W        W41435   9.916  18.315  10.233  0.1631  0.1366 -0.0408
25175W        W41436   1.846   8.336   0.589 -0.0227 -0.1357  0.1181
25176W        W41437   7.671   8.326  13.530  0.1383 -0.0148  0.1679
25177W        W41438  16.993   7.048  11.532 -0.1357 -0.1661 -0.4272
25178W        W41439  16.776   1.827   2.586 -0.1408  0.2055 -0.3192
25179W        W41440  15.629   1.593  12.693 -0.2548 -0.0635 -0.2781
25180W        W41441  15.505  16.525  11.530 -0.1127  0.0476 -0.4759
25181W        W41442   9.507  16.168   4.384 -0.0332 -0.0798 -0.1874
25182W        W41443  13.130  16.691   4.706 -0.0162  0.1428  0.0847
25183W        W41444  13.601   2.624  12.614 -0.4692  0.0095 -0.0728
25184W        W41445  14.345   1.214   1.121  0.0290 -0.1326  0.0302
25185W        W41446   3.861  10.235   2.992 -0.2441 -0.3903 -0.0318
25186W        W41447   3.757  18.377  10.422  0.2634 -0.1095  0.2169
25187W        W41448  17.478   9.667  10.626  0.0162 -0.1492 -0.0892
25188W        W41449   3.544   0.689   4.636 -0.0825 -0.0884  0.2125
25189W        W41450   4.438  14.674  12.946 -0.2112  0.2362  0.2252
25190W        W41451  15.796  11.792  13.525 -0.3378 -0.1360  0.2596
25191W        W41452  16.061  15.063  12.533 -0.2915  0.1595 -0.0675
25192W        W41453  16.366   9.153   4.562  0.3533  0.0510 -0.0704
25193W        W41454  12.167  10.638  10.083 -0.3549  0.0807  0.0565
25194W        W41455  11.575   7.042   3.623  0.0163  0.1511 -0.0161
25195W        W41456  10.500  14.893   0.389  0.2056 -0.4612 -0.2283
25196W        W41457  16.176  13.274   4.420 -0.0409 -0.0634  0.0455
25197W        W41458  14.423   7.579  13.846 -0.2330 -0.0385  0.1252
25198W        W41459   6.587  10.612  12.998 -0.1733  0.3458 -0.2812
25199W        W41460  14.879   3.868   2.252  0.1037 -0.0762  0.1081
25200W        W41461   0.044  10.617   0.678  0.0675  0.2531 -0.0962
25201W        W41462   5.982  11.497   0.852 -0.3514  0.1263  0.3510
25202W        W41463  12.302  15.996   4.612  0.5152 -0.1515  0.2031
25203W        W41464  14.363   7.964   2.208  0.0732 -0.0898 -0.0410
25204W        W41465   2.410   9.558  10.396  0.1415 -0.3922 -0.0229
25205W        W41466  11.139  14.920   3.972  0.1987  0.1016  0.2198
25206W        W41467   7.698   2.335   2.835  0.1152  0.0421  0.0889
25207W        W41468   4.885  18.890  13.197  0.1511  0.1119 -0.1453
25208W        W41469  10.431  12.535  14.041 -0.3294 -0.1024 -0.1290
25209W        W41470  13.061   6.947  11.581 -0.0044  0.1389  0.2714
25210W        W41471   0.317  14.495   3.116  0.1715  0.0585  0.1235
25211W        W41472   4.926  10.429  13.504  0.0229 -0.0354  0.1791
25212W        W41473  13.134  14.117   5.087  0.1780  0.0300  0.1547
25213W        W41474   9.542  14.967  11.943 -0.0771  0.0527  0.0373
25214W        W41475   6.466  16.636   1.936  0.0388  0.1746 -0.1098
25215W        W41476   8.343   3.650   3.107  0.2241  0.0739 -0.2280
25216W        W41477  17.615  18.882   3.327 -0.0358 -0.2125 -0.1594
25217W        W41478  16.785  12.173   5.078  0.0286 -0.0171  0.0874
25218W        W41479  15.115  15.735  13.938 -0.0091 -0.0951  0.0616
25219W        W41480   3.836   2.180  11.371  0.1799 -0.1184 -0.0030
25220W        W41481  15.420  19.212   5.723  0.2760  0.4381  0.1019
25221W        W41482   4.671   3.789   3.633 -0.0695  0.4788  0.1386
25222W        W41483  11.026   0.329  11.579 -0.1960 -0.0809  0.3354
25223W        W41484  10.843  13.433  14.431 -0.1443  0.0241 -0.1208
25224W        W41485  15.327   1.928   4.254 -0.2688  0.2381 -0.1808
25225W        W41486  17.482  19.233   0.950  0.4966 -0.3032  0.1270
25226W        W41487   3.895   0.814   3.296 -0.1031  0.2281 -0.2312
25227W        W41488  12.978  18.480   4.923 -0.1919  0.1025  0.0636
25228W        W41489   2.831   7.422   0.243 -0.1013 -0.2026 -0.0861
25229W        W41490   4.760  13.087   1.033 -0.2005 -0.0466  0.1424
25230W        W41491   3.503   6.194  13.063 -0.2577 -0.1244 -0.0112
25231W        W41492  11.926  13.767   4.886  0.3430  0.0962  0.0690
25232W        W41493  15.862  14.743  13.070 -0.0049  0.0101 -0.3999
25233W        W41494  13.764   1.699   0.514 -0.0718  0.0728  0.0357
25234W        W41495   4.530   9.070  13.133  0.1933  0.0968 -0.3838
25235W        W41496  11.388  18.747   2.197  0.1380 -0.1319 -0.2551
25236W        W41497  17.422   6.399  10.308  0.2006  0.1315  0.1573
25237W        W41498   4.898  12.171  11.463 -0.0841  0.1693  0.2152
25238W        W41499   4.141  10.523  14.183  0.0875 -0.0096 -0.0599
25239W        W41500   7.565   1.960   0.561 -0.3534 -0.0160  0.1643
25240W        W41501   0.425   2.218  11.838 -0.2323 -0.0495 -0.0910
25241W        W41502  13.580  12.789   3.242 -0.0143 -0.2044 -0.1014
25242W        W41503  16.935   5.320  13.330  0.1692  0.0503 -0.3521
25243W        W41504   4.253   9.122  10.521 -0.0848 -0.2351 -0.0109
25244W        W41505   1.012   9.800  12.145 -0.1317 -0.4722  0.0936
25245W        W41506  18.745  19.045  14.110  0.1728 -0.0799 -0.3142
25246W        W41507  19.096   4.652  14.424 -0.2756 -0.1251 -0.5402
25247W        W41508   7.038   1.434   1.055  0.0547  0.0273  0.1621
25248W        W41509   3.440  18.231   0.846  0.2509 -0.2985 -0.0339
25249W        W41510   5.987  14.134   1.368 -0.2052  0.2557 -0.0963
25250W        W41511   6.993  18.095  12.578 -0.1072 -0.0281  0.0723
25251W        W41512  13.865  18.015  14.650 -0.2324  0.1738  0.3419
25252W        W41513   3.591  10.949   9.510  0.4356  0.0741 -0.1443
25253W        W41514   1.842   4.651   3.828 -0.5692  0.6252  0.2672
25254W        W41515   0.042   4.543   1.021 -0.1720  0.0307  0.0813
25255W        W41516   5.676   9.663   9.458  0.0846  0.1174 -0.2264
25256W        W41517  16.675   4.993   5.379 -0.0432 -0.2418  0.1192
25257W        W41518   6.717  16.345   3.271 -0.3044  0.0764 -0.2993
25258W        W41519   7.976   6.614  11.412 -0.3478  0.3740  0.1498
25259W        W41520  17.366   5.011   2.850 -0.0644  0.1780  0.2200
25260W        W41521   9.617  16.330   0.402  0.0234  0.1205  0.0019
25261W        W41522  18.324   6.725   5.118 -0.2311 -0.0856 -0.1009
25262W        W41523  12.952   1.779  12.090 -0.0260  0.0430  0.0985
25263W        W41524   7.909   0.986  14.314 -0.0001  0.2520 -0.1291
25264W        W41525  12.565   6.921  11.782  0.2808 -0.0762  0.1419
25265W        W41526   6.671   3.118   9.323 -0.1122 -0.0952 -0.0207
25266W        W41527  12.539   0.361   3.738 -0.0871 -0.0953  0.3002
25267W        W41528   2.853  10.425   9.782 -0.2872 -0.3967  0.2258
25268W        W41529  11.483   4.459  10.525 -0.1622  0.1363 -0.2099
25269W        W41530   0.522   7.012   3.452 -0.0085 -0.0240 -0.0243
25270W        W41531  12.604  18.816   5.083 -0.2448  0.1013 -0.1523
25271W        W41532   2.939   2.652   1.483 -0.0734  0.0840 -0.1522
25272W        W41533   3.246  18.851  11.883 -0.1452  0.3858 -0.4593
25273W        W41534   6.141  14.465   5.035 -0.2377  0.2196 -0.1211
25274W        W41535  16.515   1.090   1.759 -0.0998  0.1889 -0.0251
25275W        W41536   3.012   0.751   1.633  0.2571 -0.0834 -0.2103
25276W        W41537  16.164  14.144   3.947 -0.1577  0.0317  0.2526
25277W        W41538   2.903   5.404   0.558  0.1788 -0.3105  0.1522
25278W        W41539   1.425  13.536   0.054 -0.2339 -0.0702 -0.0793
25279W        W41540  14.895   0.519   5.230  0.0586  0.2074  0.0822
25280W        W41541   7.256  14.512   2.208  0.1196  0.0317  0.3518
25281W        W41542   7.979   9.880   5.332  0.0075 -0.1093 -0.3344
25282W        W41543   5.689  17.683   3.391 -0.1034  0.3279  0.0678
25283W        W41544  19.114  15.277   1.403 -0.0189  0.4145  0.1106
25284W        W41545  11.207  14.886  14.394  0.0522  0.1104 -0.2059
25285W        W41546  18.917   4.065  10.801  0.0780 -0.1381 -0.2326
25286W        W41547  11.268  12.896   4.898  0.0812 -0.1717  0.2780
25287W        W41548  13.562  13.945   2.380  0.0611  0.3566 -0.0991
25288W        W41549  14.650   8.296  10.744 -0.0670  0.2218 -0.3730
25289W        W41550   6.860  10.065   3.792  0.2860 -0.3015 -0.0954
25290W        W41551   4.386  12.008   3.448  0.1933 -0.2835 -0.2361
25291W        W41552  12.623   1.956  11.794 -0.1587 -0.0427 -0.0070
25292W        W41553  16.501  15.602  13.356 -0.3350  0.0712 -0.4930
25293W        W41554   2.699   5.082  13.334  0.0419 -0.0075 -0.0232
25294W        W41555   6.499  12.112  11.832  0.0041 -0.1744  0.3439
25295W        W41556  11.689   4.786  12.911 -0.3068 -0.2134 -0.1023
25296W        W41557   5.362  17.312   2.138 -0.2256 -0.0784  0.0161
25297W        W41558  18.071   9.954   0.721 -0.2177  0.3548  0.0718
25298W        W41559  10.393  18.237   2.382 -0.1855  0.0463  0.2074
25299W        W41560   8.126  13.252  11.301 -0.0964 -0.0759  0.0710
25300W        W41561  15.496   8.647  13.588 -0.2191 -0.0957  0.4228
25301W        W41562  17.329   5.722  11.674 -0.1903  0.0225 -0.1329
25302W        W41563  17.728  16.871   1.255  0.1796  0.0806  0.3118
25303W        W41564   4.872  14.924  13.644  0.2178 -0.2799  0.1795
25304W        W41565   0.997  10.311  12.152 -0.2855 -0.1502  0.2383
25305W        W41566   2.160   7.657  10.408 -0.1718 -0.1082 -0.0128
25306W        W41567  18.360  18.730   0.515 -0.0042 -0.2774 -0.0307
25307W        W41568  14.762  13.688   3.005  0.1241 -0.3779 -0.1290
25308W        W41569   4.435  10.538   1.904 -0.0696 -0.0541  0.1111
25309W        W41570  15.970   1.789   4.151 -0.4549  0.0282  0.4207
25310W        W41571   9.911  12.669   4.960  0.1123  0.2440  0.2792
25311W        W41572  16.442   7.806   4.367 -0.0735  0.0607 -0.3117
25312W        W41573  12.289   9.133   5.521  0.0581 -0.2266  0.0730
25313W        W41574  17.872   9.363   0.688  0.2045 -0.0684 -0.4523
25314W        W41575  16.996  15.795   2.956 -0.0543 -0.1889  0.1055
25315W        W41576  17.480  18.762   2.844  0.2458 -0.1143  0.3117
25316W        W41577   6.812  18.030   4.623 -0.4061 -0.0005 -0.1406
25317W        W41578  16.509   7.401   1.414 -0.1057 -0.0723 -0.2670
25318W        W41579  12.755  19.275  13.545  0.2183  0.1091 -0.1956
25319W        W41580   2.530   1.673  13.021  0.1262 -0.3672 -0.2329
25320W        W41581  16.339   5.323  14.285 -0.1303  0.0248 -0.2742
25321W        W41582  15.478   2.889   0.164  0.1146 -0.2836  0.1003
25322W        W41583   9.486   4.333  13.650  0.1626  0.0004 -0.0821
25323W        W41584   8.504   8.441   2.187 -0.0693 -0.1906 -0.1582
25324W        W41585   0.767   1.134  12.906 -0.3580  0.0253 -0.0190
25325W        W41586  12.398   6.744  13.030 -0.2465  0.0126 -0.1825
25326W        W41587  18.295   3.422   0.015  0.1939  0.0989  0.0028
25327W        W41588   4.925  14.483   2.568  0.2274  0.0813  0.3544
25328W        W41589  18.365   8.433   4.028  0.1222  0.1749 -0.2077
25329W        W41590  12.180   2.203  12.568  0.0694  0.2686  0.1405
25330W        W41591  12.218  17.247   3.240 -0.2679 -0.2035 -0.1444
25331W        W41592   4.945  12.507   0.035 -0.0633 -0.1759 -0.0380
25332W        W41593   9.951  18.605  10.607  0.1246 -0.2533 -0.4040
25333W        W41594   3.435   6.482  11.874  0.2149  0.2825 -0.3812
25334W        W41595  14.924   6.961   4.152  0.0088  0.0804  0.2692
25335W        W41596  12.323   1.044   3.520  0.0144  0.1983  0.0972
25336W        W41597  15.959  18.392  13.743  0.2744  0.0127  0.3173
25337W        W41598   8.544   3.954   3.568 -0.2853 -0.2500 -0.0504
25338W        W41599  16.755  13.709   9.253 -0.2308  0.1171 -0.1035
25339W        W41600  15.247  10.803   3.941 -0.0729  0.0220  0.3263
25340W        W41601  11.427   1.274  14.751 -0.1028 -0.0043 -0.0160
25341W        W41602  14.924   4.474   2.798 -0.2241  0.4296 -0.1790
25342W        W41603  15.607  10.650   2.932  0.0637 -0.1098  0.2205
25343W        W41604   6.995  11.026   1.023 -0.0554 -0.1036  0.0670
25344W        W41605  15.784   2.159   4.392 -0.0815  0.2446  0.1385
25345W        W41606   3.175   2.227  12.523  0.4385  0.0837  0.1422
25346W        W41607  10.598  19.345   1.988  0.2703  0.0164 -0.1058
25347W        W41608  16.361   5.857   1.850 -0.1773  0.0742 -0.4545
25348W        W41609  10.635   9.240   5.192  0.1389  0.2039 -0.0847
25349W        W41610   3.572   3.233  13.985 -0.0139 -0.1920  0.3920
25350W        W41611   1.125   7.844  14.519 -0.0492  0.2320  0.1167
25351W        W41612  13.940   3.852  13.616 -0.1184 -0.0591 -0.0904
25352W        W41613   1.237  13.446   3.152 -0.3747  0.2422  0.0846
25353W        W41614  11.749  18.024   4.800  0.0004 -0.1958 -0.1429
25354W        W41615  11.295   6.470   1.832  0.0623 -0.0701  0.1259
25355W        W41616   2.425  11.027   1.382 -0.1608 -0.0546  0.0387
25356W        W41617   8.736  13.081  10.505 -0.0676 -0.0593  0.5746
25357W        W41618  15.973   4.553   1.309  0.1906 -0.0727 -0.0273
25358W        W41619  13.891   4.751  12.504  0.2297  0.1793  0.1488
25359W        W41620  11.710  13.892  13.721  0.3383  0.0773 -0.0211
25360W        W41621   5.575   0.629  10.481  0.1147  0.2946  0.1503
25361W        W41622   9.173   0.361   0.582  0.1933  0.0449 -0.2404
25362W        W41623  13.749   8.718  11.110 -0.2245  0.2821  0.0811
25363W        W41624  17.617  12.975   1.481 -0.0849  0.0526 -0.0491
25364W        W41625   3.631  16.010  13.006  0.1149 -0.1907 -0.2563
25365W        W41626  12.000  12.107   0.822  0.0559 -0.1676 -0.0548
25366W        W41627  15.757   1.034   3.362  0.1865  0.0408 -0.3007
25367W        W41628   7.214  15.437  11.236 -0.3695 -0.0762 -0.1535
25368W        W41629  17.745  10.466   2.200 -0.0213  0.0099  0.1413
25369W        W41630  17.979  13.850   3.844 -0.3286  0.1211  0.0369
25370W        W41631   0.963  15.385   3.190  0.2121  0.1011  0.0548
25371W        W41632  19.060   8.172  14.674 -0.2445  0.0908  0.2179
25372W        W41633  18.769   5.412   3.831  0.3890  0.0415  0.1106
25373W        W41634   9.034   9.633  14.297 -0.1784  0.1725 -0.0369
25374W        W41635   5.554   9.018   4.082 -0.3775  0.2275  0.1234
25375W        W41636   4.542  15.641  13.120 -0.1239  0.0749 -0.2300
25376W        W41637   0.696  15.916   1.913  0.2947 -0.1698 -0.1325
25377W        W41638   2.299  15.138   1.460  0.1326  0.2402  0.0676
25378W        W41639  19.440  13.377  13.409 -0.0658 -0.3433  0.0669
25379W        W41640   5.005  10.043  11.556  0.1845 -0.1040  0.0870
25380W        W41641   7.140   0.097   0.108 -0.1149  0.0770  0.2376
25381W        W41642  17.718   3.891   3.633 -0.4656 -0.2991 -0.2574
25382W        W41643   8.325   7.353   2.172  0.0440 -0.1303 -0.1519
25383W        W41644   2.249   9.785   1.471 -0.0029  0.0062  0.1815
25384W        W41645   0.109   9.189  13.698 -0.0699 -0.2825  0.0027
25385W        W41646   1.608  11.788  12.912  0.1833  0.0385 -0.1636
25386W        W41647  11.987  16.367  11.198  0.2839  0.2624  0.3972
25387W        W41648  18.382  13.795   1.916 -0.5685  0.2113 -0.4895
25388W        W41649  18.707  17.366  12.892 -0.1249 -0.0067  0.2323
25389W        W41650  11.214  10.729  12.973  0.2288  0.3018 -0.1501
25390W        W41651   9.521   7.171  14.320 -0.3953  0.1825  0.2587
25391W        W41652  18.985   6.789   4.084 -0.0646 -0.4168 -0.0393
25392W        W41653  17.720  19.083  12.191 -0.1020 -0.3451  0.4088
25393W        W41654  11.543  15.336  14.287 -0.1235  0.0704 -0.1095
25394W        W41655   8.865   5.409  12.882  0.0360 -0.0102 -0.3129
25395W        W41656  14.026   9.633   0.121  0.0494  0.0231  0.1067
25396W        W41657   8.643   8.827   1.940 -0.0819 -0.1137 -0.3155
25397W        W41658   9.424  13.824  11.427  0.1365 -0.0912  0.0395
25398W        W41659   3.596  19.473  14.647 -0.0212  0.0975 -0.0152
25399W        W41660   0.865  12.371  13.955  0.0233  0.2347 -0.0674
25400W        W41661  14.740   7.080   1.908 -0.0419  0.1479 -0.1683
25401W        W41662  13.443   2.247   2.996  0.0981  0.0526  0.2625
25402W        W41663   0.371  17.975  14.254 -0.0690 -0.0779 -0.0350
25403W        W41664   6.123   3.730  10.963 -0.1672  0.0293 -0.1900
25404W        W41665  11.558  11.009   2.793 -0.0137 -0.1916  0.0025
25405W        W41666  14.195  11.521  12.599  0.1179  0.1400 -0.0217
25406W        W41667   2.467  14.739  12.339  0.1787  0.1518 -0.0317
25407W        W41668   1.085  18.492   3.815 -0.5529 -0.1202  0.0933
25408W        W41669  18.379  14.800   1.154 -0.0539 -0.0895  0.0219
25409W        W41670  14.776  12.232   2.624 -0.1842  0.0353  0.3584
25410W        W41671   0.169  15.088   2.176 -0.2042  0.3781  0.0106
25411W        W41672  11.365  11.688  11.717  0.0375 -0.0379 -0.0834
25412W        W41673   9.210  17.436  10.044 -0.2175  0.3359 -0.0449
25413W        W41674   6.980  18.700   0.297 -0.2457  0.0409 -0.4309
25414W        W41675  13.716   1.060  10.272 -0.0366  0.2418 -0.1408
25415W        W41676  14.315   8.089   1.319 -0.1576 -0.1829 -0.1095
25416W        W41677   4.150   5.709   1.207 -0.0456 -0.0964 -0.1090
25417W        W41678   6.846  10.297  13.858 -0.0910 -0.1106  0.1847
25418W        W41679   1.579  12.627   2.270 -0.1600  0.0899  0.2014
25419W        W41680  19.428  10.441  12.189  0.0142  0.0212 -0.3887
25420W        W41681   9.290   1.815  13.869 -0.1586 -0.0352  0.2310
25421W        W41682   4.030  12.521  10.922  0.0190  0.3151  0.1865
25422W        W41683  10.738   7.123   4.162  0.1376  0.1216 -0.1374
25423W        W41684   1.807  11.198   2.068 -0.2549  0.2062 -0.0494
25424W        W41685   5.994   3.625   0.942  0.1681 -0.0301  0.0516
25425W        W41686  17.451   8.521  12.596  0.1834  0.1255 -0.3428
25426W        W41687   1.886   8.060   3.546 -0.2312  0.3924 -0.2020
25427W        W41688  15.431   3.231  13.530  0.0329 -0.2093 -0.0341
25428W        W41689   3.837  10.421  10.709 -0.1238 -0.0946 -0.2039
25429W        W41690   4.574  19.183  10.168  0.2113 -0.3588  0.3699
25430W        W41691   6.720   8.642  14.614 -0.0507 -0.0752 -0.1011
25431W        W41692   3.128  14.941   3.487  0.1718  0.0697 -0.0449
25432W        W41693   4.947  15.556   1.082  0.1884  0.2243 -0.2430
25433W        W41694  11.228  12.377  12.572  0.0134  0.3483 -0.0285
25434W        W41695  17.064   5.037  11.200 -0.3031 -0.0275 -0.0770
25435W        W41696   4.667  14.311  12.149 -0.2626  0.0185 -0.1124
25436W        W41697  16.434   6.923   4.661 -0.1811 -0.0981  0.0705
25437W        W41698  12.259   2.693   1.286  0.1377 -0.0097 -0.0987
25438W        W41699  17.339  15.880  13.634 -0.2063  0.0495  0.1170
25439W        W41700   9.776  12.510   1.433  0.0151  0.2793 -0.0957
25440W        W41701   4.949  11.431   4.269 -0.1767  0.0199  0.0508
25441W        W41702   8.040  14.449   2.029  0.1348  0.4062  0.3624
25442W        W41703  17.008   2.707   2.828  0.0641  0.0982  0.0468
25443W        W41704   9.119   8.135  13.062 -0.0295 -0.5102 -0.2162
25444W        W41705   1.274   7.907  12.911  0.0406  0.1558  0.0773
25445W        W41706  13.755  12.098   2.561  0.0000 -0.4316  0.1901
25446W        W41707  13.298   3.780   4.145  0.1114  0.1336  0.0550
25447W        W41708  17.380  14.759   1.024  0.3037 -0.1737  0.1581
25448W        W41709  18.677  10.664  13.210 -0.0874  0.2578  0.1254
25449W        W41710  18.651  18.279   4.701  0.0072 -0.1442 -0.2682
25450W        W41711   7.490  12.840   0.801 -0.3857 -0.3180 -0.2224
25451W        W41712  17.855   0.358   3.882 -0.3505 -0.0792  0.0146
25452W        W41713   7.871  14.926   0.340  0.0053  0.0251  0.0501
25453W        W41714  12.672   7.832   1.337 -0.1834 -0.1177  0.0601
25454W        W41715   9.674   8.830  10.759 -0.1105  0.1663 -0.0696
25455W        W41716  19.309   1.704  14.568 -0.1224 -0.0877 -0.1253
25456W        W41717   6.138  15.389  11.315  0.1605 -0.0471 -0.1336
25457W        W41718  12.713   9.156  10.680  0.0018 -0.1203 -0.1866
25458W        W41719  12.136  12.343  13.236 -0.0054 -0.0373  0.1426
25459W        W41720  19.276  18.160  12.489  0.0162  0.1631  0.2839
25460W        W41721   1.814   9.101  12.829  0.1115 -0.2936  0.1959
25461W        W41722   7.406   0.377   4.714 -0.1369  0.0085 -0.0214
25462W        W41723  13.488   5.322  13.412  0.0743  0.2258 -0.1723
25463W        W41724   0.102   9.101   9.876  0.1524  0.1136 -0.0673
25464W        W41725   4.764   0.855  10.991 -0.3237  0.0008  0.0914
25465W        W41726  12.120   0.103  13.551 -0.0300 -0.0196  0.2897
25466W        W41727   1.524  16.438   1.955  0.1579 -0.3634  0.0361
25467W        W41728   8.908  16.516   4.268 -0.0652 -0.0462  0.4067
25468W        W41729  13.663   3.054   3.491  0.1379 -0.0723  0.1036
25469W        W41730   1.328  14.024  10.694  0.0651  0.2923 -0.0978
25470W        W41731  17.770  14.514   1.895  0.2505 -0.0540 -0.2374
25471W        W41732   1.365   6.421  13.710  0.0784  0.0725  0.0917
25472W        W41733  15.867   6.905  12.225  0.4537 -0.2847  0.0329
25473W        W41734  15.650  18.967   4.615 -0.0775  0.0363 -0.1842
25474W        W41735   9.604  16.416   5.622  0.0301  0.0082  0.1574
25475W        W41736   4.115  15.049  12.784  0.6508  0.0352  0.0938
25476W        W41737  12.700   8.027  12.516 -0.3692 -0.0204 -0.2345
25477W        W41738   5.298   3.651   0.056  0.0855 -0.0002  0.1839
25478W        W41739   8.409   3.184  10.507 -0.0232  0.1230 -0.2127
25479W        W41740  15.890   7.645   2.887 -0.2383  0.0386 -0.0626
25480W        W41741   8.964   6.213   9.493 -0.0936  0.0352 -0.0945
25481W        W41742   9.117   2.750  11.533 -0.0671 -0.1104  0.0740
25482W        W41743   0.968  17.273  12.570 -0.0740 -0.0289  0.5630
25483W        W41744   1.516   5.568   3.635 -0.1598 -0.0890 -0.0480
25484W        W41745  16.248  11.971  13.239 -0.0744 -0.1157 -0.3298
25485W        W41746   7.095  13.829  13.901 -0.0090  0.0547 -0.2316
25486W        W41747   5.120   8.339  11.659  0.1899 -0.2528 -0.2061
25487W        W41748   3.175  16.267   1.188  0.2693 -0.1506  0.0799
25488W        W41749  13.017  15.825  13.075 -0.0897 -0.1087 -0.1898
25489W        W41750   9.757   6.044   9.915 -0.3500 -0.1211  0.0299
25490W        W41751  17.910  17.640  12.487  0.1329 -0.4274  0.0662
25491W        W41752   5.310  15.795  14.616 -0.0484 -0.2078 -0.0726
25492W        W41753   8.929   1.789   4.725 -0.5961 -0.1891 -0.1492
25493W        W41754  10.688   7.516   2.594 -0.1245  0.0474  0.4376
25494W        W41755   4.959   3.204  11.237  0.1756  0.0695  0.1757
25495W        W41756   1.930  12.404  10.787 -0.1621 -0.2698  0.0243
25496W        W41757  12.657  11.381  10.996 -0.0677 -0.2062  0.1069
25497W        W41758  12.219  12.013   2.953  0.2003 -0.0843  0.2558
25498W        W41759   2.320   6.579  13.691  0.2107  0.2128 -0.0941
25499W        W41760  10.402  12.606   2.572  0.0696 -0.1854  0.0628
25500W        W41761   1.788   7.876  12.814  0.0408  0.0294  0.4154
25501W        W41762   3.651   4.938   3.491 -0.3701 -0.0737  0.1395
25502W        W41763  17.985  19.298   1.028 -0.0861  0.2865  0.0840
25503W        W41764   7.444  12.935   5.571 -0.2129 -0.1101 -0.0150
25504W        W41765  18.334   0.461   4.562  0.0644 -0.0158 -0.1620
25505W        W41766  13.847   4.741   4.119  0.2005  0.0625  0.3156
25506W        W41767  13.239   7.054   3.942 -0.1008  0.3086  0.0566
25507W        W41768   4.260   1.489   4.033 -0.2251 -0.1522  0.2445
25508W        W41769   6.396  17.023  10.295  0.2008 -0.0672 -0.1190
25509W        W41770  15.101   3.135   3.755  0.0086 -0.1134  0.0816
25510W        W41771  19.459  10.696  13.784 -0.0540 -0.4018 -0.3911
25511W        W41772   2.789   9.636   3.918  0.1331 -0.0333  0.0676
25512W        W41773   0.558  19.168  14.312  0.0587  0.0829  0.1261
25513W        W41774   3.088   6.515  13.174 -0.0222  0.0178 -0.3599
25514W        W41775  13.664  12.546  11.965 -0.2429  0.2458 -0.3019
25515W        W41776   9.374  13.907   3.858 -0.1105 -0.0146 -0.0169
25516W        W41777   8.019   7.744   0.230 -0.0926  0.0617 -0.0427
25517W        W41778   3.956  14.349  13.569  0.0469  0.3919  0.1191
25518W        W41779   5.728  11.220  12.834 -0.1760 -0.1212 -0.2022
25519W        W41780   4.321  11.905   1.698  0.1385  0.2894 -0.1116
25520W        W41781   1.311  16.868   1.167  0.4529  0.1008 -0.0507
25521W        W41782  14.948  16.863   3.260 -0.1072 -0.2008  0.1858
25522W        W41783  10.496  13.250   1.844  0.1975  0.1052  0.2357
25523W        W41784  13.547  14.986  12.376 -0.4542  0.1246  0.0388
25524W        W41785  13.170  11.750   0.337 -0.1461  0.0587 -0.2417
25525W        W41786   1.734   6.929  12.549 -0.2460 -0.0889  0.2240
25526W        W41787   6.265  13.423   4.696 -0.0004 -0.1404  0.3390
25527W        W41788   1.096   4.924  12.143  0.4149 -0.1185 -0.1168
25528W        W41789   2.441   6.630   2.331  0.2985 -0.1335  0.0680
25529W        W41790   1.693  17.402  13.777 -0.0760 -0.2607  0.0943
25530W        W41791   3.202   0.643  12.491  0.0246 -0.3016  0.2235
25531W        W41792  10.419   4.935  10.982  0.1263  0.1273  0.1496
25532W        W41793  13.413  11.516  11.734  0.1545  0.0853 -0.0275
25533W        W41794   6.481   1.317  11.135  0.0255  0.0988  0.0910
25534W        W41795   5.567   1.485   2.014  0.0038 -0.0777  0.5084
25535W        W41796  11.692   7.505  12.394  0.0787 -0.3586 -0.0713
25536W        W41797  12.661   9.817  13.994 -0.2022 -0.1053 -0.1460
25537W        W41798   7.824   6.768  12.028 -0.3535 -0.3465  0.3608
25538W        W41799  15.221   2.264   2.561  0.2588 -0.3037  0.3971
25539W        W41800   0.671  18.093   2.672 -0.0722  0.2216 -0.0389
25540W        W41801   4.173   1.437   1.268 -0.1072  0.3725  0.2155
25541W        W41802   5.681  18.469   2.790 -0.0543 -0.1081  0.0404
25542W        W41803   5.543   9.874   2.131 -0.1572 -0.2225 -0.0458
25543W        W41804  13.691   5.677   0.589  0.0192 -0.4543  0.1229
25544W        W41805  18.417  12.171  14.602  0.1488 -0.0256  0.1274
25545W        W41806  14.460   3.857   0.061  0.2000 -0.0823  0.0133
25546W        W41807   9.569  10.380   4.385  0.1128 -0.1125  0.0477
25547W        W41808  14.817  18.833   1.982  0.0004 -0.0140  0.1033
25548W        W41809   6.913  15.742   1.110 -0.2287 -0.2024  0.0877
25549W        W41810   7.755   4.792   1.249  0.0799  0.1433 -0.1177
25550W        W41811   1.974   6.510   4.762  0.5000  0.2235 -0.0049
25551W        W41812  16.558  15.526  14.766  0.0917  0.1220  0.0957
25552W        W41813   3.908   6.433   0.730 -0.2505 -0.0977  0.2315
25553W        W41814  11.549  15.224   0.423 -0.2065 -0.1541  0.0321
25554W        W41815   3.317  14.270  14.389 -0.0025  0.1821 -0.2163
25555W        W41816   3.656  13.031   1.385 -0.1586 -0.1970 -0.2743
25556W        W41817  15.942   5.312   4.092  0.3002  0.0188  0.0072
25557W        W41818  19.238   2.666  13.076  0.1887  0.1231 -0.0834
25558W        W41819   7.098   9.345  12.924  0.1129  0.3154 -0.4140
25559W        W41820  12.180  12.960   3.419 -0.0117  0.0821 -0.1158
25560W        W41821   3.120  19.052   9.306 -0.4509 -0.1630  0.1417
25561W        W41822   2.495  18.928  11.957  0.1044 -0.0511 -0.1385
25562W        W41823  18.030   3.087   0.950 -0.2736 -0.0677  0.3521
25563W        W41824   7.339  17.284  14.535  0.1339 -0.2068 -0.3357
25564W        W41825  18.383   1.519   4.677 -0.1405  0.1096 -0.1395
25565W        W41826  17.134   6.891  11.042  0.2886 -0.1509  0.0228
25566W        W41827   6.273  12.352   3.374  0.0161 -0.2809 -0.0229
25567W        W41828   4.839  16.719   0.452  0.1757 -0.1110  0.0313
25568W        W41829   6.807  17.193  13.105 -0.0835  0.0473  0.1356
25569W        W41830   6.358  14.339   1.943 -0.3530  0.3006 -0.1633
25570W        W41831  15.743  12.154   0.183 -0.0288  0.2389 -0.3613
25571W        W41832  17.457   8.658  14.757  0.0097 -0.0582 -0.2527
25572W        W41833  11.757  12.582  11.241 -0.2785 -0.1397 -0.0481
25573W        W41834  14.529   4.434  13.507  0.0359  0.1379 -0.2530
25574W        W41835   6.715  13.057   3.500  0.0324 -0.1499  0.0055
25575W        W41836  18.065  14.524   4.880 -0.2855 -0.0814 -0.1287
25576W        W41837   9.984   5.770   4.238  0.1943  0.0926 -0.1388
25577W        W41838   3.392  14.872  12.680 -0.3924  0.1384  0.0168
25578W        W41839  16.523  13.556   1.769  0.0734 -0.1323  0.1632
25579W        W41840  12.445   9.254  10.168 -0.1744  0.1162 -0.0252
25580W        W41841   0.202   2.497   2.814 -0.2251 -0.0048 -0.1121
25581W        W41842   7.658  15.651   1.947 -0.0177  0.1573  0.0087
25582W        W41843   3.446  11.860  10.611 -0.1433  0.2190 -0.0561
25583W        W41844  17.550  12.730   5.058  0.1180  0.1383 -0.5239
25584W        W41845  15.936  16.417   0.188  0.3345 -0.0478 -0.0370
25585W        W41846   8.433   9.339   1.790 -0.3336 -0.1590  0.0847
25586W        W41847   4.146  14.589   4.001  0.4186  0.1571 -0.0218
25587W        W41848  13.340  10.391   3.884 -0.1012 -0.3589 -0.0497
25588W        W41849   9.947   7.792  11.564  0.3839 -0.2647  0.2146
25589W        W41850  18.992   9.863   1.842  0.0388 -0.0206 -0.1964
25590W        W41851   6.054   6.034   4.077  0.3149 -0.0446 -0.0154
25591W        W41852  14.031  17.792  13.250  0.0075 -0.1617  0.2054
25592W        W41853  17.403   1.246   2.536 -0.1137  0.1837 -0.2032
25593W        W41854   0.727   7.716   1.090 -0.0096 -0.0171  0.2630
25594W        W41855  17.530  16.476   2.519 -0.0126  0.3503  0.0211
25595W        W41856   7.043   6.708   0.017  0.0419  0.1006 -0.0400
25596W        W41857   5.869  13.768   2.404 -0.0450  0.1959  0.2240
25597W        W41858  10.419   4.073   2.996  0.3653  0.0494 -0.1791
25598W        W41859   8.540   8.094   3.512 -0.1513  0.1915  0.0476
25599W        W41860  17.605  11.960  13.923  0.1674 -0.0092  0.3246
25600W        W41861  13.520  10.956   2.283  0.2524  0.3478 -0.0664
25601W        W41862  17.515  12.053   1.717  0.3021  0.0112 -0.0325
25602W        W41863  18.867  17.621  13.724  0.3677 -0.2269 -0.0596
25603W        W41864  18.511  18.182   4.262  0.0596 -0.0079  0.1776
25604W        W41865  13.280   9.632  14.351  0.1795 -0.1361 -0.1772
25605W        W41866  14.444  10.001  13.803 -0.1322 -0.0314  0.0519
25606W        W41867   1.341   5.825   0.923  0.3121  0.1328  0.1463
25607W        W41868  16.057  14.737   2.907 -0.0922 -0.4328 -0.0625
25608W        W41869   7.660  14.586   1.282 -0.0146 -0.1443  0.1230
25609W        W41870  12.288   0.849   2.990 -0.1236 -0.0159 -0.1118
25610W        W41871  17.441   9.823   3.188  0.3126  0.2366 -0.3621
25611W        W41872  15.717  13.349  12.000  0.0114  0.0059  0.0988
25612W        W41873   6.700   0.894  11.421  0.1106  0.0589  0.2725
25613W        W41874  12.422   1.132   5.806  0.0364  0.1409  0.1463
25614W        W41875   9.404   8.567   2.002 -0.0666 -0.1391 -0.0602
25615W        W41876  18.689  15.588   5.114  0.1514  0.0194 -0.1774
25616W        W41877   6.061  16.735   2.222  0.1310  0.1079 -0.1226
25617W        W41878  13.917   7.944   9.838  0.3586  0.0201 -0.1199
25618W        W41879  17.800   1.987  10.910  0.2150 -0.1298  0.1593
25619W        W41880  12.577   3.720  11.293 -0.0181  0.1159 -0.3012
25620W        W41881   0.741   4.839   1.816 -0.4711  0.0619 -0.0664
25621W        W41882  10.248   4.899  11.554 -0.2114 -0.1324  0.0270
25622W        W41883  10.298  11.386  13.809 -0.0927  0.0749  0.0673
25623W        W41884  11.191   8.382  14.787  0.5302  0.1957  0.3972
25624W        W41885   8.664   3.561  14.472 -0.2608 -0.4256  0.1200
25625W        W41886  10.405  10.591   2.917  0.5082 -0.2865  0.0713
25626W        W41887   5.708  15.770   9.514 -0.0227  0.0166  0.1768
25627W        W41888  18.115   5.552  13.260  0.3295 -0.0160 -0.1522
25628W        W41889   1.369  13.047   4.445 -0.1101 -0.1714  0.2163
25629W        W41890  13.632  14.828  14.714  0.2143 -0.0183  0.0013
25630W        W41891  12.534  10.369   4.147  0.2122 -0.2993 -0.2485
25631W        W41892  10.056  15.497   1.396  0.2247 -0.0922 -0.1700
25632W        W41893   9.197  16.930  14.493 -0.0392  0.1009  0.2901
25633W        W41894   9.882  16.520  13.550 -0.2768  0.2724 -0.0088
25634W        W41895   1.177   4.552   3.030  0.2505  0.0472  0.1201
25635W        W41896  11.125   9.113   0.366  0.1733  0.1293  0.2861
25636W        W41897   7.208   8.771   0.575 -0.2936 -0.0339 -0.1121
25637W        W41898  15.073   9.530   0.947 -0.2141  0.1247 -0.0649
25638W        W41899   7.470  14.043  10.389  0.2148 -0.1121  0.2207
25639W        W41900   1.947  16.528   5.101  0.1371  0.3543 -0.1363
25640W        W41901   1.321   4.268  11.304 -0.3066 -0.4588 -0.5348
25641W        W41902   6.577   3.631   3.373  0.2167 -0.0491  0.1239
25642W        W41903   6.309  13.894  13.082 -0.0850  0.2016 -0.2105
25643W        W41904  14.060  15.758   2.804 -0.1170  0.1783  0.3211
25644W        W41905   6.209  13.803  14.260  0.2081 -0.1161 -0.0888
25645W        W41906   6.101  10.099  14.721  0.3973  0.2012 -0.2211
25646W        W41907  16.301   7.210   1.839  0.0079 -0.0201  0.1090
25647W        W41908   6.103   5.346  13.523 -0.3813 -0.0796 -0.0038
25648W        W41909   9.986  17.356  12.313 -0.0093  0.0007  0.2066
25649W        W41910   9.257  19.223   4.635 -0.2934  0.5176 -0.2241
25650W        W41911   5.326  10.271  10.867  0.1460  0.1511 -0.5213
25651W        W41912  10.231  19.432  13.942 -0.0040  0.1048  0.0978
25652W        W41913   6.403   5.949   3.227 -0.0593 -0.0984  0.2296
25653W        W41914  15.365  13.272  14.279  0.2985  0.0537 -0.3434
25654W        W41915   1.788  14.939   2.880  0.1963  0.3146 -0.2390
25655W        W41916  17.857   7.762   3.887 -0.0610 -0.2316 -0.0858
25656W        W41917  13.710  10.855  12.010 -0.0879  0.0122  0.1804
25657W        W41918   0.697   0.836   1.022  0.3028  0.0895  0.1594
25658W        W41919   6.545  11.162   5.199 -0.0351 -0.1148 -0.2540
25659W        W41920  12.805   7.157   0.049  0.1832 -0.2253  0.1771
25660W        W41921  17.490  15.252  13.169 -0.1806 -0.1139  0.2541
25661W        W41922   8.236   0.603  13.070  0.0969  0.0512 -0.0359
25662W        W41923   9.152   0.325  12.534  0.0289 -0.0079 -0.3905
25663W        W41924   4.217   6.157  12.581 -0.0955  0.1065  0.2320
25664W        W41925  14.833   8.762  10.818  0.0950 -0.0216 -0.0200
25665W        W41926  18.334   2.972   4.656  0.1958 -0.0910  0.0190
25666W        W41927  13.948   6.216   4.465 -0.0209 -0.2626  0.1110
25667W        W41928   2.611   6.250  12.330  0.0869 -0.0050 -0.0996
25668W        W41929   9.048  11.323  12.196 -0.0154 -0.0270 -0.1371
25669W        W41930   0.538   0.683  11.631 -0.1706  0.1486 -0.0753
25670W        W41931  16.136  16.655  12.739 -0.0184 -0.2375 -0.2252
25671W        W41932   0.821  12.266  11.039  0.2890  0.2431  0.1445
25672W        W41933   4.359   4.136  13.326 -0.1037  0.3144  0.2873
25673W        W41934  12.988  10.773  12.648  0.3430  0.1107 -0.0523
25674W        W41935   4.917   6.636   9.996 -0.0308 -0.2029 -0.0119
25675W        W41936   1.123  17.576   3.070 -0.2031 -0.2729  0.0181
25676W        W41937  19.438  10.374   4.050 -0.1844 -0.2825  0.3607
25677W        W41938   2.780  17.985  13.067 -0.0340 -0.1360  0.1929
25678W        W41939   3.898   3.296  14.655 -0.1369 -0.1380 -0.1120
25679W        W41940  16.651  18.952   1.625 -0.2486  0.0566 -0.1394
25680W        W41941  13.815  11.010   5.580  0.0277 -0.1370 -0.1206
25681W        W41942   3.485   7.921   2.214 -0.0659 -0.1023  0.2155
25682W        W41943  12.178  16.821  14.788 -0.0551  0.2789 -0.1171
25683W        W41944   5.670   2.842  10.780 -0.1052  0.0399 -0.0268
25684W        W41945  19.289   4.406  12.382  0.1099 -0.1570 -0.1620
25685W        W41946   0.301   5.121   4.070  0.1080  0.2878 -0.0572
25686W        W41947  18.740  11.876  12.694 -0.2732  0.1560 -0.2317
25687W        W41948  19.214  14.522  12.555 -0.0507 -0.2825 -0.1699
25688W        W41949   7.124   8.602  13.538  0.2282 -0.3144  0.2454
25689W        W41950  13.919  11.328   2.382  0.3440 -0.0098  0.0707
25690W        W41951   8.319   9.698   2.186 -0.0231  0.1187  0.1073
25691W        W41952  19.285  16.827  11.747 -0.2297  0.0646  0.3152
25692W        W41953  13.800  16.640   3.227  0.0215 -0.1011 -0.1128
25693W        W41954  10.311   3.983  14.056 -0.2029  0.0870 -0.3035
25694W        W41955  15.865   8.895  14.224 -0.1988  0.2566  0.0370
25695W        W41956  11.172   8.233   4.742 -0.2157  0.1986 -0.0615
25696W        W41957   1.324  12.437   0.975  0.1698  0.2745 -0.1606
25697W        W41958   4.609  18.727   4.157  0.3275 -0.0650  0.0659
25698W        W41959   8.024   3.776  14.132 -0.2365 -0.1838 -0.1579
25699W        W41960   0.581   9.902  12.995 -0.3712  0.3287  0.0420
25700W        W41961   7.168   9.525  13.411  0.2342 -0.2443 -0.0763
25701W        W41962   5.198  13.620   3.939  0.2470 -0.0811  0.0191
25702W        W41963   0.413   0.298   4.046 -0.0380  0.0625  0.0313
25703W        W41964   5.896   0.406   3.205 -0.4701  0.1613  0.1068
25704W        W41965   7.109  14.650   3.429  0.1359 -0.1576 -0.1483
25705W        W41966   1.649   3.542  14.429 -0.1360  0.0286 -0.3743
25706W        W41967   1.547   2.890   5.119  0.0866 -0.0915  0.0015
25707W        W41968   8.040  19.200  11.099  0.2357 -0.0192  0.1512
25708W        W41969  16.330   1.432   1.409 -0.5197 -0.0061  0.1757
25709W        W41970  19.135  13.577  11.955 -0.1891  0.0403 -0.1653
25710W        W41971   1.343   9.817   1.467 -0.1946  0.0423  0.1246
25711W        W41972   1.479   9.028  11.836 -0.3275  0.0156 -0.1289
25712W        W41973   9.326  17.778  10.408  0.2280 -0.1415 -0.0539
25713W        W41974  15.789   9.727  14.474 -0.1312 -0.1386 -0.0792
25714W        W41975   2.236  17.222   0.122 -0.0495 -0.2488  0.1646
25715W        W41976   3.544  18.303   3.949 -0.0054 -0.2637 -0.0067
25716W        W41977  11.140  16.002   5.938  0.6040  0.2477 -0.4480
25717W        W41978   8.566   1.615   2.897 -0.2256  0.1088  0.1702
25718W        W41979  19.109  16.430  10.840  0.1989 -0.2644  0.3222
25719W        W41980   3.694   7.892  12.049 -0.2165  0.2847  0.1035
25720W        W41981  13.280  17.892  13.314 -0.2401  0.0292 -0.0906
25721W        W41982  10.997  11.193  13.111 -0.2388  0.0030  0.5489
25722W        W41983   7.811   6.311  10.055  0.0569 -0.0169 -0.0155
25723W        W41984   7.042  11.085   1.677  0.1416  0.4876 -0.1097
25724W        W41985   1.854  12.423  12.247 -0.1265 -0.0794 -0.0971
25725W        W41986   7.480   5.418  13.340 -0.0306  0.2234 -0.0233
25726W        W41987  19.292   9.634   0.820 -0.0505  0.1541  0.3679
25727W        W41988  14.741  19.365   1.567  0.0151 -0.1609  0.0681
25728W        W41989   1.272  12.843   3.999  0.0669  0.1509 -0.0196
25729W        W41990   1.956  11.083  13.810  0.1146 -0.3242 -0.1349
25730W        W41991   6.012   3.613   2.096 -0.0609 -0.1583  0.0073
25731W        W41992  10.025   5.651   1.780 -0.0568 -0.0795 -0.2498
25732W        W41993   5.747  14.572  14.348  0.0654  0.1239  0.0445
25733W        W41994  17.492   9.526   4.462 -0.0520  0.0720  0.0167
25734W        W41995   6.871  16.404  11.390  0.1101  0.1008  0.1753
25735W        W41996   3.497  15.983   3.577  0.2148  0.0655  0.3917
25736W        W41997  17.149   4.076   1.828 -0.3446  0.0298  0.0055
25737W        W41998  15.907  15.585   5.236  0.2121 -0.0897  0.0294
25738W        W41999  16.041  13.874  13.500 -0.2419  0.0329  0.0218
25739W        W42000   5.166   7.581   3.665 -0.0925  0.0036 -0.1381
25740W        W42001   0.687   2.536   2.844 -0.0151 -0.1313  0.3416
25741W        W42002  11.060  12.853   0.850  0.0166 -0.2195 -0.2264
25742W        W42003   1.024   6.988   9.940  0.0175  0.2496 -0.2965
25743W        W42004   6.146   1.584  11.404 -0.0207  0.2460  0.3410
25744W        W42005  17.581   7.148   1.108 -0.1172 -0.2972  0.0158
25745W        W42006  11.756  12.992  14.534  0.0747 -0.0598  0.1794
25746W        W42007   2.733  13.595   3.285  0.4100  0.0439  0.1756
25747W        W42008  16.706   8.057   2.661 -0.0575  0.3124 -0.0541
25748W        W42009  15.548  18.606  10.604 -0.1900  0.1282 -0.1643
25749W        W42010   2.717   9.668   4.413  0.0352 -0.2543  0.1577
25750W        W42011  11.972   4.427   4.666  0.0646  0.2685 -0.5461
25751W        W42012  19.058   7.699   3.559  0.1257  0.0045 -0.2366
25752W        W42013   8.281  18.048   3.319  0.1098 -0.0888 -0.1980
25753W        W42014   3.495   4.501   2.882  0.0312  0.0399 -0.0490
25754W        W42015   8.628  15.301  12.242  0.0456  0.0261  0.0725
25755W        W42016   7.345   2.866  10.458  0.0124  0.0767  0.0726
25756W        W42017  13.351   1.835   0.305  0.1404  0.2374  0.0248
25757W        W42018   7.957   1.701  12.572 -0.0201  0.3091 -0.4710
25758W        W42019   2.965   8.400  12.966  0.0800  0.1308 -0.2506
25759W        W42020  10.754  10.138   3.682  0.0234 -0.2760 -0.0493
25760W        W42021  15.964   0.372   1.998 -0.0259  0.1343 -0.1078
25761W        W42022   1.444  18.898  13.902 -0.0610 -0.0758 -0.1370
25762W        W42023   2.651   8.728   3.201  0.0372  0.1359  0.0764
25763W        W42024   6.562   8.611   3.297 -0.0603 -0.1238  0.0992
25764W        W42025   1.868  14.289  14.791 -0.2309 -0.0300 -0.0716
25765W        W42026   1.888   2.060   0.845  0.0672  0.2526  0.1069
25766W        W42027  13.867  16.957   5.366  0.0256  0.1746  0.0375
25767W        W42028   3.107   1.077  14.704 -0.3592  0.1452  0.0815
25768W        W42029   1.673  17.432   4.413 -0.0084 -0.0538 -0.1324
25769W        W42030   7.149   4.539   0.570 -0.2000  0.0572 -0.2025
25770W        W42031   5.059   3.392  11.752  0.2994  0.2215  0.2817
25771W        W42032   2.284   2.695   2.079 -0.0717 -0.0348 -0.1826
25772W        W42033  18.231  11.402  13.113 -0.1394  0.2405 -0.0629
25773W        W42034  14.566  18.987   4.805  0.0284  0.3288  0.0499
25774W        W42035   8.806  14.492   2.248 -0.0012  0.0298  0.1940
25775W        W42036   6.924   9.918   2.320  0.0668 -0.0780 -0.2431
25776W        W42037   2.775   0.458  14.294  0.1367  0.1442 -0.3534
25777W        W42038  13.236   8.482   0.067 -0.0053 -0.1329  0.3350
25778W        W42039  15.632  10.685  10.627 -0.0204 -0.1048 -0.0993
25779W        W42040  13.645   5.859  12.002 -0.1512 -0.1392 -0.2359
25780W        W42041  12.418  17.461   5.170  0.2623  0.5110 -0.3676
25781W        W42042   9.348   6.397   0.704 -0.2279  0.1898 -0.0794
25782W        W42043   5.417  11.714   0.241  0.2707  0.3258  0.2117
25783W        W42044   0.919  15.712   4.526  0.0263 -0.1681  0.0462
25784W        W42045   8.165   2.984   2.203 -0.2486 -0.0344 -0.4240
25785W        W42046  11.245   7.703   2.339 -0.0949  0.0530 -0.2512
25786W        W42047   9.451   6.161  12.989 -0.1928 -0.1397 -0.3572
25787W        W42048   9.925  15.773   5.125 -0.0992 -0.2176 -0.4460
25788W        W42049   3.313  18.380  11.421 -0.0333 -0.0596 -0.0204
25789W        W42050   9.679   9.763  12.428 -0.2376 -0.0668  0.0095
25790W        W42051   9.837   8.115   1.901 -0.0921  0.0459  0.0955
25791W        W42052  16.329   5.236   2.625 -0.0604 -0.1873  0.0835
25792W        W42053  11.549   7.048   0.615  0.1328  0.1563  0.3395
25793W        W42054   6.548   1.456  12.094 -0.0303  0.1854 -0.0047
25794W        W42055  18.804   6.083   0.847  0.2872 -0.3561  0.0654
25795W        W42056   4.777   7.733  11.144  0.1084 -0.1676  0.0129
25796W        W42057   8.112   2.570   2.839  0.2342 -0.1593  0.1282
25797W        W42058  10.969   0.518  10.164 -0.1102  0.0120 -0.0424
25798W        W42059   1.898  18.921   4.065  0.3625 -0.0936 -0.0434
25799W        W42060   6.206  18.200  11.507  0.3777 -0.0705 -0.1447
25800W        W42061  13.015  16.264   5.070 -0.2176 -0.0187  0.1307
25801W        W42062   5.674   0.003  13.564  0.1050  0.3502  0.0656
25802W        W42063   0.379  10.811   1.030  0.0781  0.2864 -0.0698
25803W        W42064   2.649  10.983   3.364  0.1493  0.0029  0.0960
25804W        W42065   6.533  13.509   0.272  0.1282 -0.0664  0.2289
25805W        W42066   9.119  12.051  14.153 -0.0861 -0.1740  0.0584
25806W        W42067   7.287  15.990   0.882  0.5113  0.3115  0.0826
25807W        W42068   9.131  16.218   0.043 -0.1189  0.1914  0.3651
25808W        W42069  10.915  17.694  13.338 -0.0076  0.0984 -0.1103
25809W        W42070   8.003   8.473  13.952 -0.1140  0.1298 -0.6628
25810W        W42071   8.548  13.634   3.185  0.1999 -0.1102  0.1692
25811W        W42072  18.822   1.437  11.726 -0.1120 -0.0334 -0.1205
25812W        W42073   0.763  14.081  14.810  0.4008 -0.0480  0.1139
25813W        W42074   3.295   1.806   9.157 -0.2418  0.1893 -0.0903
25814W        W42075   2.527   4.266  13.016  0.1735  0.1581 -0.1204
25815W        W42076   0.652   0.509   2.893 -0.0587 -0.0028  0.2702
25816W        W42077   4.811   5.903  14.497 -0.1349 -0.1489  0.3815
25817W        W42078  16.405   2.417   3.709  0.1817 -0.1721 -0.0342
25818W        W42079   3.156  18.814   4.435 -0.3127 -0.0025 -0.0570
25819W        W42080   3.774   6.354   2.476 -0.0852 -0.4153 -0.1432
25820W        W42081   8.013   0.128  11.307 -0.0867  0.0581  0.2175
25821W        W42082  15.236  16.407   3.070  0.0541 -0.2053  0.1180
25822W        W42083  19.007   5.852   2.505  0.2395  0.1995 -0.3106
25823W        W42084  13.660   2.421   4.638 -0.0942 -0.1142  0.3804
25824W        W42085  16.750   2.544   4.194  0.0418 -0.0212 -0.3235
25825W        W42086  11.916   8.654  13.511 -0.1349 -0.0921 -0.0081
25826W        W42087   9.606   1.221   5.163  0.5095  0.1557 -0.2623
25827W        W42088  12.099  17.265  14.675 -0.1805  0.0828  0.3437
25828W        W42089  11.241   1.554  14.373 -0.3585 -0.0945  0.0051
25829W        W42090  17.664   4.257   1.685  0.0570  0.2852  0.2649
25830W        W42091   4.240  15.467  12.595  0.3719 -0.1732  0.1938
25831W        W42092   8.428  10.372  14.552 -0.0264 -0.0071 -0.2094
25832W        W42093   6.356   1.957  13.211  0.0683 -0.3244 -0.4996
25833W        W42094   1.908  16.141   2.777 -0.2612  0.0720 -0.0646
25834W        W42095   2.953  18.647  12.311  0.0938  0.4038 -0.1594
25835W        W42096   1.370   6.803   0.259 -0.2358 -0.1670  0.1769
25836W        W42097  19.122   1.101  12.147 -0.0764 -0.2096  0.0227
25837W        W42098  12.420  15.380  12.436 -0.1318 -0.1996 -0.0333
25838W        W42099  15.151   8.238  10.272  0.2112 -0.1880  0.2276
25839W        W42100  11.357   4.450   1.107 -0.1319  0.1459 -0.5063
25840W        W42101   6.795  19.221  12.605 -0.0739 -0.1789 -0.0726
25841W        W42102  18.084   7.638  14.045 -0.0033 -0.2277 -0.3126
25842W        W42103   7.431   7.307  11.572  0.1413  0.0836  0.3267
25843W        W42104   2.407  18.695  14.330 -0.5041  0.2130 -0.0647
25844W        W42105   6.179   8.127   2.693 -0.0635  0.2295 -0.0906
25845W        W42106   5.902  17.097   3.286 -0.0076  0.0378 -0.0026
25846W        W42107   0.408  12.447   3.775  0.0788 -0.0166  0.1374
25847W        W42108   8.867   3.042   1.782  0.1046 -0.1795 -0.2213
25848W        W42109   7.868  12.496   3.116  0.0486  0.3423  0.0197
25849W        W42110   6.185  14.815  12.003  0.0025  0.0657  0.3762
25850W        W42111  15.392  10.633  11.963 -0.1607  0.0905 -0.0510
25851W        W42112   8.316   5.311  11.257  0.0761 -0.1633  0.2441
25852W        W42113  15.951   5.685  14.425  0.0252 -0.1518 -0.1882
25853W        W42114  16.631   8.790   4.023 -0.0431  0.2543  0.0793
25854W        W42115   9.066   6.515   4.893 -0.0873  0.1547  0.0169
25855W        W42116   9.227  15.743  11.509  0.0969 -0.0006 -0.0407
25856W        W42117   0.219  14.451   1.537 -0.0230  0.1167 -0.1248
25857W        W42118   9.800  18.097   5.053 -0.1303  0.1578 -0.1726
25858W        W42119   7.814   5.410   3.933 -0.1311  0.0748  0.0337
25859W        W42120   8.603   6.570  14.303 -0.2397  0.1629  0.2455
25860W        W42121  11.539  14.616  11.734  0.0620 -0.3919 -0.1089
25861W        W42122   7.375   3.569  11.403 -0.1552 -0.1057 -0.1884
25862W        W42123  17.912  15.166   3.680  0.1575  0.2613  0.0974
25863W        W42124   8.852   2.274  14.073 -0.1356 -0.4331  0.1743
25864W        W42125   9.385  13.112  11.046  0.1827  0.0023  0.1639
25865W        W42126   4.083  19.315  14.427  0.1009  0.2646 -0.0782
25866W        W42127   0.185   2.138   1.747  0.4985  0.3947  0.3858
25867W        W42128  16.642   8.708   1.076  0.1785 -0.2318  0.2910
25868W        W42129   3.977   7.013  11.377  0.0496 -0.0663 -0.0687
25869W        W42130  17.197   1.618   2.927 -0.5541 -0.3035  0.3016
25870W        W42131  19.026   4.613   1.292 -0.0447  0.0702 -0.2143
25871W        W42132  17.834   1.932  11.565  0.2591  0.0235 -0.2216
25872W        W42133   9.471  17.251   2.803 -0.1787 -0.0471  0.3329
25873W        W42134   1.796   7.831   4.687  0.0563  0.0274  0.0310
25874W        W42135  17.144  18.221   0.228 -0.0387  0.0327 -0.0850
25875W        W42136   9.936   4.915   9.521  0.1481 -0.2724 -0.1389
25876W        W42137   9.813  17.845   4.015  0.1279 -0.0676  0.3005
25877W        W42138  11.470   8.394  13.032  0.0402  0.0374  0.0296
25878W        W42139  16.591   7.024   3.808 -0.0484  0.3307  0.2161
25879W        W42140   1.937  19.476  12.649 -0.2883 -0.1623  0.2654
25880W        W42141   2.643  13.049  12.665 -0.1131 -0.0005  0.2914
25881W        W42142   7.187  10.089  13.582  0.2264  0.0434  0.3792
25882W        W42143  15.569  10.414  14.169 -0.0414 -0.0379 -0.2122
25883W        W42144  17.794   6.702  11.858 -0.0210 -0.1326  0.1059
25884W        W42145   8.796   8.081   9.917  0.2919 -0.0978  0.0756
25885W        W42146   3.269  17.908   3.282  0.1119 -0.2683 -0.1871
25886W        W42147   3.488   1.173   3.399 -0.1117  0.0668 -0.0117
25887W        W42148   3.138   4.305   2.596  0.1227  0.0997  0.0212
25888W        W42149  10.118   1.117  12.878 -0.0430  0.0566  0.2783
25889W        W42150   8.991  19.442   0.821 -0.0197 -0.5298 -0.0441
25890W        W42151  13.033   7.245   4.895 -0.1610  0.0886 -0.1975
25891W        W42152   0.990  13.360   2.219  0.0915 -0.1384 -0.2301
25892W        W42153  10.069  15.860   3.889  0.0515  0.0024  0.1042
25893W        W42154  12.459  13.236   4.530  0.0918  0.0534  0.2564
25894W        W42155  10.547   4.440  10.069 -0.3518 -0.1778  0.2205
25895W        W42156   8.767  16.765   4.723  0.1189  0.0684 -0.0183
25896W        W42157  15.716   6.412  12.292 -0.0072  0.1596  0.0353
25897W        W42158  17.403  19.405   0.225  0.3399  0.2332 -0.0262
25898W        W42159   1.999   5.787   3.579 -0.2131  0.0912  0.0789
25899W        W42160  19.285   6.086  12.768  0.2276  0.1513 -0.0338
25900W        W42161   2.428   3.992  10.307 -0.1278  0.1362 -0.0583
25901W        W42162  15.246   3.650  12.075 -0.0501 -0.1812 -0.2584
25902W        W42163   1.966   0.559   4.917 -0.2289 -0.0432  0.1771
25903W        W42164  15.274   7.411  12.075  0.1117 -0.2083 -0.4575
25904W        W42165  12.713   3.622  14.294  0.0104 -0.3064 -0.0333
25905W        W42166  18.206  10.192   4.251  0.0081 -0.3809 -0.3155
25906W        W42167  13.616   4.026   2.723 -0.3755 -0.2879  0.0167
25907W        W42168   4.162  14.889   5.695  0.0845 -0.1916  0.4831
25908W        W42169   0.350   5.880  14.726 -0.3601  0.1322  0.2519
25909W        W42170   2.204   4.851  10.453  0.1455 -0.2675 -0.1166
25910W        W42171  14.599  12.299  13.986 -0.1455  0.2551  0.1012
25911W        W42172  10.617   4.316  13.734  0.3161 -0.0028  0.0871
25912W        W42173  18.035  18.744   2.889  0.2213 -0.2841  0.1337
25913W        W42174  17.415   8.841  13.336 -0.0712  0.1168 -0.1587
25914W        W42175  10.928   4.561   0.878  0.2207  0.3131  0.0377
25915W        W42176  18.817  17.645   2.541  0.2199 -0.0717 -0.4207
25916W        W42177  19.407   5.140   1.880  0.0388  0.0809  0.0715
25917W        W42178   1.637  14.269  14.373 -0.2728  0.0574  0.1372
25918W        W42179   8.512   1.546  12.483  0.1989 -0.3539 -0.0413
25919W        W42180   9.374   0.098   1.932  0.1152  0.1083 -0.0016
25920W        W42181   9.059   9.401   0.553  0.1231 -0.0470 -0.1406
25921W        W42182   9.280  18.001   2.162 -0.2388  0.2970  0.0381
25922W        W42183   2.598   8.285   3.464 -0.0465 -0.2619 -0.2073
25923W        W42184  19.064   4.124   2.218 -0.0494 -0.0839  0.0444
25924W        W42185   3.302   7.786   0.415 -0.0536 -0.1076  0.1407
25925W        W42186   9.354   3.468  11.746 -0.2513 -0.3797 -0.0917
25926W        W42187  13.226  15.064   2.995  0.0062 -0.1656  0.1228
25927W        W42188   4.686   0.378  11.753  0.1860  0.0612 -0.0171
25928W        W42189  16.878  19.022  11.656 -0.1942  0.1115 -0.0582
25929W        W42190   3.705  18.644  11.288 -0.0737 -0.1054  0.1275
25930W        W42191   5.186   4.703   3.764 -0.2946 -0.1851 -0.2210
25931W        W42192   0.092  16.862  13.612 -0.1779  0.1330 -0.1084
25932W        W42193   5.360   3.682   2.675 -0.1384 -0.1258  0.0275
25933W        W42194   5.579  16.626   0.838 -0.0898 -0.1182  0.0266
25934W        W42195   6.372  14.252  10.535  0.0347  0.1307 -0.0364
25935W        W42196  13.302   7.850  11.424  0.5045  0.1822 -0.3529
25936W        W42197   5.900  12.540  14.583 -0.4244  0.0230  0.3040
25937W        W42198  18.741   8.095   3.904 -0.0873 -0.2418  0.0187
25938W        W42199   7.774  13.318   3.721 -0.0551 -0.0264  0.4038
25939W        W42200  14.386   9.273   0.340 -0.2332 -0.1679  0.0524
25940W        W42201   8.908  12.376   3.209  0.0438  0.1517 -0.0486
25941W        W42202  11.943   1.207   0.073 -0.2453 -0.3597  0.2446
25942W        W42203  15.159  12.822   3.804  0.1154  0.0574 -0.1766
25943W        W42204   2.481   2.955   1.478 -0.0148  0.0437 -0.0430
25944W        W42205   6.061  14.188   0.717  0.1764  0.1525  0.1999
25945W        W42206  12.065  12.465   1.700 -0.1025 -0.0388 -0.0879
25946W        W42207  14.018   6.784  14.015  0.0389  0.0919  0.1149
25947W        W42208   2.550  10.575   4.138  0.2305  0.0544 -0.0461
25948W        W42209  15.459  17.217   3.967 -0.2552 -0.0578  0.1275
25949W        W42210   1.311   5.475   4.130 -0.1607 -0.0680 -0.0628
25950W        W42211  11.374   7.972   3.293  0.0704  0.1487 -0.0905
25951W        W42212   2.177  13.384  12.500  0.3296  0.4482  0.2122
25952W        W42213  14.980   1.040   3.980  0.1206  0.0604 -0.1614
25953W        W42214  16.814  10.532  13.638  0.1030 -0.0184  0.2112
25954W        W42215   2.847  11.784   4.426 -0.1729 -0.0647  0.0329
25955W        W42216   6.493  18.479  11.848 -0.1290 -0.1613  0.2500
25956W        W42217   9.233   6.005   1.407  0.2756  0.2422  0.6450
25957W        W42218   0.646   6.703   5.242  0.1080 -0.0059 -0.2466
25958W        W42219   8.725  13.565  13.906  0.4492  0.2920  0.0916
25959W        W42220  15.253   1.071  13.491 -0.1037 -0.0519 -0.2387
25960W        W42221   1.394  18.868  10.665  0.0766 -0.0539  0.1962
25961W        W42222   4.466   4.623   1.961  0.2171 -0.0892 -0.1117
25962W        W42223  14.875   8.857  14.328 -0.1314 -0.0961  0.1070
25963W        W42224  17.451   1.124  11.600  0.0738  0.2766 -0.0757
25964W        W42225   2.051  10.448  11.283 -0.3445  0.0392  0.1817
25965W        W42226  12.843   9.136   1.363 -0.0857  0.0317 -0.1415
25966W        W42227   4.763  17.806  12.336  0.0518  0.0266 -0.1662
25967W        W42228   8.901  16.214   2.456 -0.0180  0.0372  0.3086
25968W        W42229  18.336   6.953  11.918  0.1757  0.1112  0.2717
25969W        W42230   9.056  13.116  12.867  0.3388  0.1085 -0.0802
25970W        W42231   5.122   6.893   0.788  0.0978 -0.5644 -0.0473
25971W        W42232  12.639   3.185  13.439 -0.0240 -0.1521 -0.0153
25972W        W42233  11.401  10.079   2.347 -0.2050 -0.1620  0.2542
25973W        W42234  10.284   2.095  12.136  0.1857 -0.2037 -0.1087
25974W        W42235   4.777  10.018   0.749 -0.0554  0.0994 -0.3963
25975W        W42236  15.038   2.575   1.821  0.2286  0.1614 -0.1539
25976W        W42237  16.810  14.180   0.420 -0.0552  0.1428 -0.1679
25977W        W42238  13.651   5.431   9.147  0.0608 -0.4516 -0.1573
25978W        W42239   1.188   9.239   4.150 -0.1412 -0.1529 -0.0466
25979W        W42240  17.631   1.938  10.479  0.3244 -0.2261 -0.0372
25980W        W42241   6.155  16.469   0.105 -0.3375 -0.6594  0.0644
25981W        W42242  12.216  14.934  10.719 -0.1608 -0.0931  0.1197
25982W        W42243  15.447  16.431  14.703 -0.0267 -0.1023  0.0502
25983W        W42244   9.341  19.103  11.596 -0.0915  0.0497 -0.0059
25984W        W42245   0.858   4.112  10.095  0.2942  0.1142 -0.0496
25985W        W42246   9.360  13.760   0.474 -0.0145  0.1027 -0.1425
25986W        W42247  18.650   7.134   3.831  0.0842 -0.1164  0.0947
25987W        W42248  13.878  13.391   1.612 -0.5714  0.0013 -0.1580
25988W        W42249  12.925  16.210   1.130 -0.0521  0.0212 -0.0820
25989W        W42250   7.742  10.589   3.744  0.0514  0.1917 -0.1707
25990W        W42251   2.895  19.144   4.155 -0.1838  0.0442  0.4713
25991W        W42252  11.931  16.951  14.341 -0.0717  0.1530 -0.0003
25992W        W42253  19.167   3.591  10.204  0.0146 -0.1593 -0.0916
25993W        W42254  16.899  12.968  12.669  0.0625  0.5522  0.0097
25994W        W42255   5.834  14.161  13.035  0.2247 -0.0337  0.1808
25995W        W42256   7.156   2.872  10.949  0.0895  0.3386  0.1544
25996W        W42257   3.950   0.088   2.879  0.2377 -0.1911  0.0318
25997W        W42258  15.322   8.372   1.106 -0.2147  0.0105 -0.2005
25998W        W42259  13.842   2.884   0.089 -0.0819 -0.5623  0.2730
25999W        W42260   5.674  18.820   1.024  0.0713 -0.2419 -0.1297
26000W        W42261   6.333  19.348   0.678 -0.0879 -0.0593  0.2865
26001W        W42262   7.728  11.020   2.071  0.1255  0.3307  0.0880
26002W        W42263  18.383  14.972  13.458  0.1629  0.0294 -0.0408
26003W        W42264  19.368  14.340   3.131  0.1592  0.0436  0.0908
26004W        W42265   2.829   3.468   0.568  0.0186  0.2397  0.0800
26005W        W42266  14.760  11.554  11.659 -0.0101 -0.0662 -0.0341
26006W        W42267   6.542   9.179  14.652  0.0517  0.2239  0.0234
26007W        W42268  13.602   4.882   5.526  0.3662  0.2532  0.1814
26008W        W42269  10.795   4.145  14.718 -0.0352  0.1404  0.0552
26009W        W42270  10.766  13.536  13.047  0.4385 -0.3817 -0.1814
26010W        W42271   9.198  15.105  14.604 -0.3591  0.6720  0.0493
26011W        W42272  18.638   6.721  13.291 -0.0383  0.0145  0.0653
26012W        W42273   1.337  16.332  12.422  0.2068  0.1224  0.3340
26013W        W42274  19.445   4.828  12.070  0.0371 -0.1627 -0.1241
26014W        W42275  10.702   4.334  14.293  0.0778 -0.2674 -0.0483
26015W        W42276   9.567  19.486   2.408 -0.0439  0.5416  0.3171
26016W        W42277   1.304   2.972   2.245  0.1520 -0.0843 -0.5727
26017W        W42278  11.439   5.810  10.496  0.3271  0.3863  0.2282
26018W        W42279   3.874  16.248   9.653 -0.1347 -0.0620 -0.3789
26019W        W42280  13.055  19.389  13.195 -0.3175 -0.1817  0.1607
26020W        W42281   2.500   2.587   3.973 -0.0674 -0.2665 -0.2173
26021W        W42282  15.982   6.338   0.691  0.1057 -0.3059  0.2549
26022W        W42283  10.601  18.680   1.069 -0.0526  0.1272  0.1375
26023W        W42284  11.650   9.879   3.491 -0.2369  0.0870  0.1297
26024W        W42285  14.931  17.668  14.336 -0.0368 -0.0624  0.1104
26025W        W42286   9.037  16.054   1.872  0.2554  0.2636 -0.0218
26026W        W42287   2.724  15.867   1.512  0.0966 -0.2333 -0.2351
26027W        W42288  13.868  11.675  13.060  0.0232 -0.5471  0.0243
26028W        W42289  14.885   2.190   1.077  0.2687  0.2259 -0.2257
26029W        W42290   4.321   6.045   0.734  0.0819 -0.0707 -0.2108
26030W        W42291   6.313   6.878   5.082  0.2264 -0.0102 -0.0635
26031W        W42292   8.526  10.620   0.645  0.0139  0.0402  0.2474
26032W        W42293  11.943   8.062   2.889  0.3760  0.1330 -0.2660
26033W        W42294   6.300   8.513   9.942  0.3377 -0.1220  0.0589
26034W        W42295   7.950  15.986  11.445 -0.0534  0.1928 -0.2432
26035W        W42296  14.356  14.402   0.138  0.1302  0.1279 -0.1592
26036W        W42297   6.279  11.057  11.327  0.0761  0.3806 -0.3634
26037W        W42298  12.920  12.000  10.791 -0.4459 -0.0910 -0.1558
26038W        W42299  19.040   3.613  10.718 -0.0009 -0.0358 -0.1057
26039W        W42300  17.555   7.500  12.668 -0.1235  0.2919 -0.1412
26040W        W42301   8.040  18.888   1.995  0.1689  0.1781  0.0052
26041W        W42302  14.736  15.690  12.303 -0.2477 -0.1128  0.0349
26042W        W42303  14.578  16.948   2.896  0.1816 -0.0555  0.1247
26043W        W42304   3.744   9.685  13.872  0.2595 -0.1179 -0.3388
26044W        W42305   6.037   3.974   4.514  0.0094  0.0475 -0.2025
26045W        W42306   2.176   6.730  12.388 -0.0301  0.2671  0.2036
26046W        W42307  17.129   1.127  10.517 -0.0185 -0.0958 -0.0427
26047W        W42308   4.393  14.830   1.151 -0.1237  0.0765 -0.2998
26048W        W42309   1.454  12.341   3.853  0.0903 -0.0801 -0.1284
26049W        W42310  15.261   5.718   4.912  0.5722 -0.0225  0.1067
26050W        W42311  10.276  12.201   2.278 -0.0275  0.3019 -0.0142
26051W        W42312   0.456  18.565   1.753  0.4581 -0.2977  0.0392
26052W        W42313   1.508   1.336  13.165  0.3765 -0.1693  0.2365
26053W        W42314   2.888   5.804  10.400  0.3454 -0.1698 -0.1176
26054W        W42315  12.938  14.757  11.397 -0.0707 -0.2739 -0.0276
26055W        W42316  18.632   0.968   0.853 -0.0263 -0.0249 -0.3268
26056W        W42317   1.792   1.281   4.903  0.2092  0.2789  0.1822
26057W        W42318   2.396  14.989   0.900 -0.0540  0.1600  0.0303
26058W        W42319   8.329   5.500   2.671  0.0590 -0.1619 -0.2375
26059W        W42320  19.107  17.711  10.519 -0.0697 -0.1896 -0.6325
26060W        W42321   0.451   3.028  13.194 -0.1295  0.0668 -0.0942
26061W        W42322  19.145   2.529   4.096 -0.0729 -0.2286 -0.0943
26062W        W42323   1.049   8.743   5.026 -0.0170  0.0615  0.2551
26063W        W42324   6.178   2.401  13.945 -0.1918 -0.1480 -0.3665
26064W        W42325  12.281   8.679  12.756  0.0414  0.1092  0.1943
26065W        W42326  14.403  15.857   4.957  0.0204 -0.4632 -0.0121
26066W        W42327   6.053   7.237   3.142 -0.1684  0.2367 -0.1712
26067W        W42328   3.967   7.778  12.452  0.0400  0.0816  0.2343
26068W        W42329   1.323  12.370  12.218 -0.3651 -0.1342  0.0187
26069W        W42330   9.207   0.939  13.903  0.0150  0.1521  0.1721
26070W        W42331  10.339   5.548   3.961 -0.3213  0.3775 -0.1705
26071W        W42332   7.455   4.103  12.150  0.3823  0.0319  0.0814
26072W        W42333  17.178   3.665  10.680  0.1071 -0.0569 -0.0585
26073W        W42334   1.918   4.641  11.882 -0.1098 -0.1942 -0.3560
26074W        W42335   3.761  15.839   3.950 -0.5102 -0.1766  0.0322
26075W        W42336  14.501  12.516  12.980  0.0803  0.2219  0.0559
26076W        W42337   2.255  16.234  11.070 -0.0415 -0.0802 -0.0010
26077W        W42338   9.358   2.750   3.300  0.2389  0.2305  0.3227
26078W        W42339  19.422   3.741  13.768  0.0331 -0.1380  0.0300
26079W        W42340  10.120   2.713   3.946 -0.1565  0.0273 -0.2960
26080W        W42341  10.699   7.875  13.955  0.0323  0.0566  0.0644
26081W        W42342   4.084   8.776   3.834  0.0638 -0.1168 -0.2112
26082W        W42343  10.647  10.735  10.578  0.2075  0.4412 -0.1486
26083W        W42344  10.062  13.217   4.296  0.0996  0.3107 -0.5339
26084W        W42345   5.250   6.321  11.782  0.0504 -0.0610  0.1342
26085W        W42346   4.139   9.235  14.035 -0.0871  0.1986  0.2154
26086W        W42347   8.464  11.927   4.489 -0.2545  0.0744 -0.1443
26087W        W42348  14.161  11.571   1.801  0.1415 -0.0071 -0.3317
26088W        W42349   0.036   4.267  10.741  0.1531 -0.1013  0.4061
26089W        W42350  15.193   5.014  13.066 -0.0703  0.1201  0.1451
26090W        W42351  19.032  16.829  14.201  0.0482 -0.1918 -0.0397
26091W        W42352   9.857  12.336   3.170  0.0480  0.0840 -0.0500
26092W        W42353   9.973  12.045   0.576 -0.0768 -0.2704 -0.0384
26093W        W42354   9.002   3.574   4.288 -0.2380  0.0921  0.0282
26094W        W42355   8.091   4.067   3.306  0.1024 -0.3591 -0.3245
26095W        W42356  15.087   7.220   2.885 -0.1517 -0.0151  0.1800
26096W        W42357   6.858   6.826   0.482 -0.0511 -0.0443 -0.0262
26097W        W42358  14.688  11.292   0.500 -0.1727 -0.1558 -0.0402
26098W        W42359  12.772  16.932   3.379 -0.2827 -0.0178  0.1125
26099W        W42360  16.024   4.823  14.260  0.0920  0.3535 -0.4540
26100W        W42361   6.184  10.071   4.544 -0.0531  0.0486  0.0016
26101W        W42362   7.197   2.963   2.661  0.2354  0.0178 -0.0414
26102W        W42363   4.325   7.900  14.108  0.0048  0.2281 -0.0585
26103W        W42364  10.449  18.256  12.288 -0.0873  0.3156 -0.1877
26104W        W42365   9.836   9.485   4.684 -0.0554 -0.1451 -0.2396
26105W        W42366   3.807   5.358   1.644  0.0727 -0.1203  0.0441
26106W        W42367  10.400   1.829   4.446 -0.0734 -0.1153 -0.2610
26107W        W42368  19.204   4.256  11.928  0.0586  0.2518  0.1552
26108W        W42369   8.533   0.085   2.453 -0.1857 -0.0569 -0.0368
26109W        W42370   9.207   3.264   3.340  0.1040 -0.1528 -0.0791
26110W        W42371   4.509  12.653  12.765  0.5332  0.1900  0.3271
26111W        W42372  13.389   9.952   4.167 -0.3418 -0.0877 -0.1074
26112W        W42373   2.016  13.304  11.261 -0.0215 -0.1253  0.0537
26113W        W42374   6.739  11.780  11.428  0.2206  0.1846 -0.2203
26114W        W42375   2.908  13.075   2.449  0.0929 -0.0587 -0.0638
26115W        W42376  19.392  18.632  13.795  0.0220  0.0473 -0.0903
26116W        W42377  17.083   5.809  12.608  0.2353  0.1911 -0.1356
26117W        W42378   2.511  17.404   0.519  0.0423  0.2597 -0.2802
26118W        W42379   0.229   9.985  12.089  0.1786 -0.1820 -0.1353
26119W        W42380   2.528  18.622   4.120  0.0078  0.2122 -0.1847
26120W        W42381  18.258  17.743  13.650  0.1942 -0.0006 -0.3275
26121W        W42382   5.960  14.197   3.946  0.0356 -0.1394  0.2945
26122W        W42383   3.358  13.470   1.374  0.0177  0.0151  0.1818
26123W        W42384   4.376  13.067   3.218 -0.1087  0.1535 -0.0920
26124W        W42385  15.132  15.269   1.096  0.2588 -0.3176 -0.0183
26125W        W42386   3.975  12.881  12.918  0.2521  0.1115  0.3192
26126W        W42387  15.550  12.048  12.048 -0.2037  0.1438 -0.3569
26127W        W42388  10.256   9.087   2.657  0.3374  0.4998  0.1465
26128W        W42389  16.929   6.147  13.389  0.2548 -0.3405 -0.0761
26129W        W42390   3.030   6.153   3.833  0.1403 -0.3933 -0.2022
26130W        W42391   9.427   6.837  12.169  0.0534 -0.0724  0.2220
26131W        W42392  13.664   1.360   1.819 -0.1189  0.1637  0.2569
26132W        W42393  10.227  17.001  11.080 -0.0734 -0.4229  0.0067
26133W        W42394   7.656   2.733  12.156  0.0410 -0.0241 -0.1017
26134W        W42395  14.628   2.281   0.306  0.0990 -0.3681 -0.3213
26135W        W42396   6.947   8.755   3.721 -0.2950  0.1087  0.0481
26136W        W42397  12.867  16.040   5.920 -0.2193  0.0399 -0.2257
26137W        W42398  17.918   1.291   4.322 -0.2935  0.1521 -0.0875
26138W        W42399  17.799  11.632  11.730  0.2019  0.1075 -0.0854
26139W        W42400   4.147   4.976   1.821  0.1294 -0.1433 -0.1893
26140W        W42401   4.255  15.702   3.828  0.1162 -0.0391  0.1302
26141W        W42402   4.632  14.774  14.106  0.0628 -0.3658  0.1279
26142W        W42403   8.217   9.501  12.983  0.2162  0.2694  0.2931
26143W        W42404   2.977  17.196  11.705 -0.0477 -0.2122 -0.4211
26144W        W42405  12.213   6.614  11.458  0.0797 -0.1208  0.1674
26145W        W42406   6.028   3.676  12.344  0.3550  0.2244 -0.1131
26146W        W42407   1.600  11.259  14.653  0.1208 -0.3741 -0.0172
26147W        W42408  18.082   1.091  10.507  0.1663 -0.1250 -0.2519
26148W        W42409  18.153  11.095  11.013  0.3278  0.0385 -0.0821
26149W        W42410   5.089  19.458   0.696  0.5048 -0.2949  0.1285
26150W        W42411  13.986  11.896   3.666 -0.1843 -0.0727  0.2309
26151W        W42412  14.239  18.316  10.824  0.2202 -0.3285 -0.2151
26152W        W42413  12.474  14.830   3.905 -0.0698 -0.0904 -0.3256
26153W        W42414  16.076   6.462  11.296  0.3462  0.2440 -0.1492
26154W        W42415   8.305  17.832  12.163  0.1459  0.0576  0.3031
26155W        W42416  15.652   3.524   4.391  0.4070  0.3321  0.1092
26156W        W42417  18.739  10.863  11.801 -0.0255 -0.1868 -0.1567
26157W        W42418  10.770   0.760   5.775  0.1392  0.2237  0.2156
26158W        W42419   5.873  11.385  13.705 -0.1206  0.0730  0.2952
26159W        W42420  18.950   9.635  14.686  0.1655 -0.2580 -0.0745
26160W        W42421  12.517   0.316  14.456 -0.0650 -0.2470  0.1047
26161W        W42422  11.052   6.041  12.207  0.0561  0.2479  0.2539
26162W        W42423  16.746   1.235   4.629  0.1510 -0.0525  0.1075
26163W        W42424  19.043   1.689  12.168 -0.1799  0.2091 -0.1737
26164W        W42425   4.383  19.083  13.207 -0.0091 -0.1397 -0.1184
26165W        W42426   7.502  10.486   0.546 -0.2266  0.0408 -0.0651
26166W        W42427  10.298  13.755  10.365 -0.2678  0.1239  0.1902
26167W        W42428  11.193   9.210  13.489 -0.0783  0.0985  0.0991
26168W        W42429   3.761  17.625   0.060  0.0061 -0.2970 -0.0292
26169W        W42430   3.668   0.160  10.910 -0.1390  0.4231 -0.2367
26170W        W42431   9.923   4.208   0.145  0.0771  0.3501  0.1037
26171W        W42432  11.922  10.151   2.200  0.5468 -0.1503 -0.2210
26172W        W42433   7.897   9.061  13.099 -0.0058 -0.1951 -0.1638
26173W        W42434   0.703  12.542   2.518 -0.0868  0.1136 -0.1377
26174W        W42435   9.752  11.071  11.049  0.0349  0.3027 -0.0836
26175W        W42436   4.969   6.365  12.204  0.0735  0.4131 -0.0601
26176W        W42437   8.092  13.497   0.423 -0.0222 -0.1072 -0.0801
26177W        W42438   1.677  12.750   3.682  0.0581  0.1278  0.2111
26178W        W42439   5.066  10.362   5.308  0.0181  0.2597 -0.2354
26179W        W42440  12.175   7.222  10.627  0.0233 -0.3031  0.0155
26180W        W42441   6.669  10.056   1.583  0.1572  0.1507  0.2014
26181W        W42442   4.706   5.960  10.586 -0.1747  0.0144  0.1931
26182W        W42443  16.333   6.795  13.866  0.0913 -0.1570  0.2864
26183W        W42444   1.195   5.866  11.928  0.0864  0.2911  0.0985
26184W        W42445   7.138   4.158  13.975 -0.3198 -0.4723 -0.1120
26185W        W42446  17.305  12.557  13.767  0.2787  0.1629  0.0488
26186W        W42447  13.945   5.126  12.215  0.2464 -0.3315 -0.0020
26187W        W42448  11.314  19.178   9.789  0.0865  0.1791 -0.5420
26188W        W42449   9.215   7.751  11.830  0.0018  0.0641 -0.1375
26189W        W42450   9.468  13.364   3.404 -0.2448 -0.1893 -0.2864
26190W        W42451  11.637  18.598  11.921  0.4302 -0.0029 -0.2022
26191W        W42452  14.996  14.277  14.532  0.0258  0.0383 -0.1948
26192W        W42453  10.195  14.106   4.662 -0.2303 -0.1571  0.0634
26193W        W42454  17.868   2.941   4.905 -0.3710  0.1902 -0.0670
26194W        W42455   4.749  10.393   0.360 -0.0809 -0.0809  0.0632
26195W        W42456   9.799  14.126   1.865  0.0821  0.2265  0.1549
26196W        W42457   2.316  14.853   3.737  0.1798  0.2075 -0.1905
26197W        W42458  17.511  16.806  14.255 -0.1625 -0.2300  0.2790
26198W        W42459  14.944  14.613   1.207 -0.3305 -0.3041 -0.1338
26199W        W42460   3.598  17.910  12.579 -0.5156 -0.0228  0.3177
26200W        W42461   2.119  16.498  13.588  0.2314 -0.0056  0.2586
26201W        W42462  17.717   5.307   4.254  0.0922  0.2529  0.2371
26202W        W42463   2.566  17.633   0.097 -0.2189 -0.1062  0.1956
26203W        W42464   2.258   7.102   1.016  0.1454  0.0036  0.0379
26204W        W42465   7.395  10.740   5.425 -0.0688 -0.2171  0.0429
26205W        W42466  18.074  16.522  14.182  0.0332 -0.1950 -0.0095
26206W        W42467  17.005   0.533   0.601 -0.2932 -0.0945  0.0231
26207W        W42468   9.666  15.051   0.495 -0.2054 -0.0310 -0.1732
26208W        W42469   9.047   5.031   0.510 -0.0672 -0.0543 -0.0335
26209W        W42470   9.501   4.493   0.533  0.3255  0.0942  0.1732
26210W        W42471  18.242  14.288   1.999  0.4726  0.1008 -0.1459
26211W        W42472  12.740   2.806   3.187 -0.1018  0.0641 -0.0713
26212W        W42473   2.738  10.217  12.475  0.1211  0.1261 -0.0819
26213W        W42474   9.652   0.562   3.452  0.0797 -0.0202  0.1931
26214W        W42475   5.212  18.518   1.132  0.3972  0.0240 -0.2154
26215W        W42476   3.911   3.000   3.763 -0.0236 -0.1178 -0.0013
26216W        W42477  19.284  10.997  14.708  0.1492  0.2274  0.0856
26217W        W42478   3.522  17.265  11.779  0.1989  0.0847  0.1260
26218W        W42479   5.650   2.375  10.514 -0.4667 -0.2310  0.3480
26219W        W42480  17.590  17.691   4.464 -0.2302 -0.0090 -0.2814
26220W        W42481  15.279  18.798  11.505  0.1243  0.2276 -0.1750
26221W        W42482   6.283   0.723   2.956 -0.0068 -0.2435 -0.1110
26222W        W42483   3.252  15.085   0.354  0.2192  0.0947  0.0504
26223W        W42484   9.190  10.098   4.397 -0.1982  0.1529  0.1151
26224W        W42485  19.370   7.941  13.350  0.0202 -0.2505  0.0071
26225W        W42486  13.607   1.226  13.041  0.1671  0.2065  0.0891
26226W        W42487  12.759   0.776   3.957 -0.0342 -0.0055  0.4114
26227W        W42488   0.837   5.787   0.871  0.1486  0.0642  0.0944
26228W        W42489  17.167   6.944   0.280  0.2354  0.0056  0.0319
26229W        W42490   9.287  11.537  11.742 -0.2634 -0.1963 -0.2034
26230W        W42491   8.647   4.137  10.616  0.1989 -0.1865 -0.0881
26231W        W42492  17.824  13.572  11.725 -0.0325 -0.1002 -0.0259
26232W        W42493   1.268   0.555  10.882  0.1142 -0.3735  0.0346
26233W        W42494   6.668  16.726  11.059 -0.1842 -0.3254  0.2028
26234W        W42495  16.043   6.575  10.238 -0.0733 -0.1223 -0.1302
26235W        W42496   7.690  12.942  11.700 -0.0385  0.0686 -0.1064
26236W        W42497   9.216  12.563  11.397 -0.2623  0.1248  0.1222
26237W        W42498  10.943   4.155   1.388 -0.0237 -0.1128 -0.0403
26238W        W42499  10.855   6.190  10.683 -0.0660 -0.0090 -0.3039
26239W        W42500   3.545  10.058  14.214  0.2284  0.1087  0.2041
26240W        W42501   3.720   6.299  12.573  0.1090  0.0372  0.1184
26241W        W42502  16.879  17.692   3.401 -0.1917 -0.1155  0.1732
26242W        W42503  11.148   3.354  10.785  0.2963  0.0134  0.1350
26243W        W42504   5.553  14.231   2.502 -0.0965  0.1706 -0.1579
26244W        W42505   3.544  11.231  14.578  0.0257 -0.2844  0.0080
26245W        W42506  19.131  11.091   3.553  0.0105 -0.0678  0.0593
26246W        W42507  18.827  15.092   2.119 -0.0723  0.0436  0.0071
26247W        W42508  12.950   5.200   1.964  0.0415 -0.1737 -0.2071
26248W        W42509  18.805   0.420  13.964 -0.3401  0.2341 -0.0010
26249W        W42510   7.411   1.323  11.936  0.2500 -0.2586 -0.1728
26250W        W42511   0.916  14.902  11.829  0.1053  0.0228 -0.0814
26251W        W42512   2.032  11.743   0.989  0.0496  0.1254 -0.1183
26252W        W42513  14.267  16.536   2.985  0.0291  0.1857 -0.2140
26253W        W42514  12.129   1.868  11.786 -0.0166  0.1399  0.1766
26254W        W42515  11.065   8.924  11.994  0.2273  0.2669  0.2632
26255W        W42516  16.626   1.112  13.805  0.1549  0.3613 -0.6952
26256W        W42517  18.852  10.287   3.746 -0.3099 -0.0082  0.1187
26257W        W42518  17.758  17.360  13.405 -0.2328  0.1618 -0.2759
26258W        W42519   3.449  14.029   0.460 -0.1072  0.0093  0.1160
26259W        W42520  15.298   3.498  14.164  0.1426  0.2353 -0.0875
26260W        W42521  18.517   9.883  14.312 -0.0046  0.1144  0.4220
26261W        W42522   1.797  10.775   0.544  0.0540 -0.1812  0.4418
26262W        W42523  14.897  17.712  13.771 -0.0119 -0.1927 -0.1510
26263W        W42524   7.629   0.831  14.717  0.0379  0.2242 -0.0320
26264W        W42525   7.399   2.439   2.385  0.1118  0.2113 -0.0509
26265W        W42526  16.350  14.878   0.218 -0.0640  0.2085 -0.3000
26266W        W42527  18.883  12.366  10.830 -0.0456  0.0403 -0.0813
26267W        W42528   7.028  11.932   9.560 -0.1372  0.0742  0.0024
26268W        W42529  17.286  14.789  12.046  0.1931  0.3481  0.0644
26269W        W42530  14.115   2.219   5.587 -0.1492  0.1563 -0.0037
26270W        W42531  14.942  10.259   1.797  0.1028 -0.0132  0.0914
26271W        W42532   6.591   1.327   1.489  0.0858  0.0469 -0.1189
26272W        W42533   7.746   1.053   3.571 -0.1872  0.0101  0.0619
26273W        W42534   0.888   6.887   0.967 -0.1325 -0.1469 -0.0085
26274W        W42535   6.426   9.566   3.800  0.1124 -0.2535 -0.0189
26275W        W42536  17.561  10.364   1.643  0.1251  0.1832  0.1006
26276W        W42537  13.276   6.977  14.655  0.0235  0.0341 -0.2350
26277W        W42538  13.941  12.349   1.407  0.3753  0.0869 -0.0539
26278W        W42539   3.166   2.753   2.254 -0.2413  0.5404 -0.3009
26279W        W42540  15.574  17.975   5.864  0.2250 -0.2514  0.1200
26280W        W42541   2.180   4.634   2.251 -0.3020  0.1013  0.4257
26281W        W42542   2.973   5.730  13.633 -0.2497 -0.0204 -0.1252
26282W        W42543  18.935  10.215  13.288 -0.2896 -0.0325 -0.0143
26283W        W42544  18.234   8.295   0.687 -0.2449 -0.1885  0.3923
26284W        W42545   1.877  14.394   2.287  0.3427  0.0216  0.0802
26285W        W42546   7.129   3.414   2.466 -0.1961 -0.1879  0.4152
26286W        W42547   5.720  16.883  13.904  0.1737  0.0215 -0.0950
26287W        W42548  11.287  18.534  11.309  0.0086 -0.3216 -0.1918
26288W        W42549   5.809  11.358   3.782  0.3938  0.3807 -0.3152
26289W        W42550   9.733   4.648  13.891 -0.1970 -0.2965  0.1235
26290W        W42551   5.286  14.748  13.546 -0.0310  0.0874 -0.5924
26291W        W42552  18.023   3.883   4.675 -0.1471 -0.4352 -0.0478
26292W        W42553   0.017  10.014   2.617  0.2259  0.0805 -0.0599
26293W        W42554   4.873  17.160   2.154  0.0290 -0.0669  0.2827
26294W        W42555   2.579  17.541   2.564 -0.0052  0.2949 -0.0479
26295W        W42556  17.583   5.971  11.277  0.0726 -0.2470  0.1280
26296W        W42557   0.378  16.841   2.802 -0.3042  0.2215 -0.0082
26297W        W42558   0.640  12.766  11.843 -0.1661 -0.2793 -0.2765
26298W        W42559   1.953  15.201  11.003  0.2491  0.2849  0.0818
26299W        W42560   6.190   8.195  10.844 -0.0303  0.3135  0.1054
26300W        W42561  16.899   0.243   1.972 -0.0135 -0.1403  0.0445
26301W        W42562   5.285  12.720  14.177  0.0530  0.0419 -0.2075
26302W        W42563  14.424   1.903   0.107 -0.0776  0.1882  0.2346
26303W        W42564   2.258  15.670  14.277 -0.0582  0.1408 -0.4896
26304W        W42565   4.614  10.454   1.308  0.2082  0.3217  0.1010
26305W        W42566   3.340   8.418   2.074  0.1518 -0.0775 -0.2996
26306W        W42567  16.259  18.030  14.571 -0.3114 -0.3631 -0.0732
26307W        W42568   4.495  15.129  14.626  0.0855 -0.1145  0.0253
26308W        W42569  19.079  18.932  12.824  0.0515 -0.0067  0.3438
26309W        W42570   3.982   6.869   5.105  0.1615 -0.0176 -0.3724
26310W        W42571   8.137   0.275   2.031  0.1175  0.0678 -0.2133
26311W        W42572   8.948  18.762  11.566 -0.1240 -0.2177  0.2510
26312W        W42573  13.305   1.851   4.527 -0.1298 -0.1624 -0.2392
26313W        W42574   9.856   8.329   9.955  0.1543 -0.0649  0.1014
26314W        W42575  17.191  15.678   0.724  0.0099 -0.3375  0.0228
26315W        W42576  15.799   8.766  13.173 -0.0190  0.1451  0.0190
26316W        W42577   0.573   1.843  10.897 -0.1454 -0.1144  0.2096
26317W        W42578   0.874   2.643  14.710 -0.3099 -0.1905 -0.0510
26318W        W42579   7.399  19.117   5.207 -0.1359  0.1311 -0.2999
26319W        W42580   6.241   8.818  12.733  0.1935  0.1573  0.3470
26320W        W42581  16.784  16.343   3.042 -0.4424 -0.1511  0.0145
26321W        W42582   0.967  12.977   4.884 -0.2349 -0.0887  0.0217
26322W        W42583   3.495   9.985   2.256  0.1095  0.3269  0.2575
26323W        W42584  12.136  10.750   5.123 -0.2618  0.0150  0.1663
26324W        W42585   7.346   7.783   0.785  0.0777 -0.2062  0.0670
26325W        W42586  14.811  18.022   1.427  0.1607  0.1162  0.0758
26326W        W42587  11.764  19.019   0.329 -0.0729  0.1662  0.1080
26327W        W42588  10.954   5.779   1.811  0.2160 -0.0875 -0.0576
26328W        W42589   8.471  18.463   2.054  0.0127 -0.0896  0.1080
26329W        W42590  17.631  15.809   0.372  0.0485  0.0424  0.0128
26330W        W42591  14.966   4.472   3.399 -0.1959  0.0172 -0.1981
26331W        W42592  16.644   4.833  13.531 -0.0674  0.0793  0.0388
26332W        W42593   8.173   0.560   4.771  0.3262  0.1018  0.1732
26333W        W42594   0.840   8.689   3.794 -0.3037  0.1725  0.2119
26334W        W42595  13.621  17.861   2.098  0.0114 -0.0088  0.0497
26335W        W42596   1.604  14.573   5.061 -0.0773  0.0910  0.2065
26336W        W42597  15.920   9.223  10.759 -0.1267 -0.1982 -0.3738
26337W        W42598  14.796  14.390  13.182 -0.0382 -0.0127 -0.3102
26338W        W42599   6.652   5.464  12.766  0.2256 -0.1280 -0.4386
26339W        W42600  14.571   2.790  12.963  0.1364 -0.0612  0.0272
26340W        W42601  16.466  15.518   0.863  0.1058  0.0448 -0.1830
26341W        W42602   5.646  17.763  10.659 -0.2284 -0.0369  0.3249
26342W        W42603   0.974   7.344  13.712  0.4237 -0.0110  0.2192
26343W        W42604   2.052  14.945   4.223 -0.0064 -0.0878 -0.2182
26344W        W42605  18.499  10.942  10.643  0.1907  0.0463 -0.0994
26345W        W42606  15.792   5.796   0.118  0.0310  0.5750 -0.2804
26346W        W42607  13.163   3.854  10.753 -0.1265 -0.3561 -0.0187
26347W        W42608  11.184  15.675  11.367 -0.1052 -0.0500  0.2979
26348W        W42609   4.535  12.923   3.705 -0.1463  0.0960 -0.2436
26349W        W42610  14.420  12.947   3.097 -0.2622  0.1030 -0.2818
26350W        W42611   5.472  15.141  11.707 -0.0167 -0.2264  0.0185
26351W        W42612   3.076   8.964   1.866  0.1609 -0.0618  0.3077
26352W        W42613  18.112  15.726   0.601  0.1321 -0.0346 -0.1132
26353W        W42614  14.923  10.793   5.760 -0.1805  0.0421  0.2169
26354W        W42615  18.865  16.191  13.205  0.2075  0.1615  0.2632
26355W        W42616  15.004  15.840  13.312  0.1163 -0.1589 -0.0445
26356W        W42617   5.743  15.347   3.403 -0.0471 -0.1705  0.0113
26357W        W42618  17.931  11.336   1.426  0.0298  0.0181  0.4520
26358W        W42619   4.391   3.207   3.209 -0.1190  0.3011 -0.2834
26359W        W42620   7.129   0.849  13.661 -0.0942 -0.2300 -0.0807
26360W        W42621  13.547  10.794  10.632 -0.2948  0.1370 -0.1459
26361W        W42622  17.739  10.000   4.357 -0.1636 -0.0455  0.1242
26362W        W42623  11.175   8.209  11.244  0.0764 -0.0332  0.1525
26363W        W42624  14.408  15.337  12.278  0.0179 -0.1733 -0.1263
26364W        W42625  14.093  17.426   3.357  0.3282 -0.1608  0.0008
26365W        W42626   5.553  15.954  10.722  0.1065 -0.2010 -0.2066
26366W        W42627  14.381   4.965  11.317 -0.1148 -0.1302 -0.2231
26367W        W42628   3.120   7.856  11.149  0.0367  0.0323 -0.0419
26368W        W42629  13.931   7.329  11.348  0.0095 -0.0830 -0.4238
26369W        W42630  11.481   3.739   2.245  0.3624 -0.0541 -0.1138
26370W        W42631   4.980   3.723   4.787 -0.1393 -0.0236 -0.1872
26371W        W42632   1.503  18.662   2.773  0.1355  0.0164 -0.0377
26372W        W42633   4.842  16.668  11.500  0.0536  0.0739 -0.0229
26373W        W42634   0.440   1.015   2.100 -0.0832  0.4213  0.2019
26374W        W42635   5.518   9.723  10.938 -0.1656  0.1419 -0.1411
26375W        W42636   7.801   3.128  10.416  0.4197 -0.2176  0.1317
26376W        W42637   3.083   5.508   2.124  0.0948  0.0874  0.5026
26377W        W42638   5.454  13.050   1.992 -0.0471 -0.1557 -0.1441
26378W        W42639  17.802  18.900   2.483  0.1209 -0.0685 -0.0146
26379W        W42640   7.528   4.048  13.572 -0.3543  0.2296  0.1531
26380W        W42641   7.985  10.274  12.998 -0.1114  0.1128 -0.0484
26381W        W42642   4.831  17.650   2.045 -0.3464  0.2481  0.1780
26382W        W42643   9.815   9.698  10.345 -0.0315  0.1346 -0.0715
26383W        W42644   1.021  13.934   0.877  0.1679  0.2596  0.2734
26384W        W42645  11.855  17.874   0.682 -0.0965  0.2458  0.2435
26385W        W42646   2.149  15.196  14.197  0.0427  0.0050 -0.0407
26386W        W42647   3.788   7.294   3.956 -0.0741 -0.0099  0.1549
26387W        W42648   0.565   6.476  13.549  0.1373  0.0087 -0.1767
26388W        W42649   4.317   6.630   1.041 -0.1229  0.2155 -0.2436
26389W        W42650   6.638  10.833   5.763 -0.0711 -0.1988 -0.2193
26390W        W42651   6.542   6.004   0.719 -0.1775  0.2119  0.2008
26391W        W42652  19.487  18.436   0.213  0.0994  0.0651  0.2101
26392W        W42653   3.052   7.334   1.201  0.0257  0.1194 -0.2041
26393W        W42654   5.711   7.520   9.311  0.1192  0.2072  0.1219
26394W        W42655   4.328   5.743  12.789  0.0025  0.1145  0.0102
26395W        W42656   4.499  17.082   4.568  0.0722 -0.1285  0.0785
26396W        W42657   3.571  13.213  10.940 -0.1899  0.1505 -0.2412
26397W        W42658  17.152  12.592   3.524 -0.3595  0.2915  0.0512
26398W        W42659  16.404  15.265   1.800 -0.0200  0.0227 -0.1243
26399W        W42660   9.786   4.713  10.371  0.0694 -0.2540  0.0624
26400W        W42661  12.186   3.305  13.514 -0.1951 -0.2507 -0.3553
26401W        W42662  13.411   2.209   1.700 -0.1286 -0.0295 -0.2536
26402W        W42663  13.603   3.168   2.145  0.1551 -0.1551 -0.1145
26403W        W42664  14.959   8.015  10.996 -0.6696  0.3721 -0.3087
26404W        W42665   7.265   7.238  12.046  0.0917 -0.3694 -0.0700
26405W        W42666   8.708   4.449  12.498  0.2460  0.1572 -0.1628
26406W        W42667   7.408  18.897   4.705 -0.2345  0.1884 -0.2189
26407W        W42668   0.477  12.037   3.334  0.1324  0.0116 -0.0762
26408W        W42669   9.248   7.762   2.670  0.1889  0.0934 -0.1158
26409W        W42670   5.528   1.655   4.673  0.1384 -0.0054 -0.0380
26410W        W42671   3.902  19.290   4.079 -0.1057 -0.2497  0.2024
26411W        W42672  12.927   2.502   2.335 -0.2682  0.3637  0.3521
26412W        W42673   6.610   9.014   1.825  0.0529 -0.3215 -0.1710
26413W        W42674  11.091   5.387  14.469 -0.0521  0.0857  0.4712
26414W        W42675  11.553  14.882  10.814  0.2584  0.0187 -0.0187
26415W        W42676  13.414  18.280  11.638 -0.1119 -0.1141  0.3240
26416W        W42677  17.912  12.264  11.098  0.3549  0.1200 -0.0706
26417W        W42678   5.643   6.279   1.307  0.0146 -0.0149  0.1243
26418W        W42679   0.194  15.066   9.976  0.0791 -0.0112 -0.3815
26419W        W42680   2.901   2.576  12.257  0.1227  0.2242 -0.1372
26420W        W42681  13.228   1.541  14.434 -0.0538  0.1437  0.3086
26421W        W42682   0.837   9.665  14.055  0.2593  0.2809 -0.0686
26422W        W42683   9.955   6.916   9.303 -0.0736 -0.1264 -0.0388
26423W        W42684   3.921   6.144  10.515  0.3011 -0.1443  0.0515
26424W        W42685  12.735   3.012   5.178  0.2972 -0.0529 -0.0422
26425W        W42686   6.099   9.546   4.641 -0.2668 -0.2319 -0.1868
26426W        W42687  16.084  17.062   3.145  0.1140  0.0292 -0.2106
26427W        W42688   5.401   2.722  14.323 -0.0815 -0.1380  0.1023
26428W        W42689   5.507  12.166   0.597  0.0780  0.0512  0.1806
26429W        W42690   9.428   7.931  13.538  0.2505  0.1917 -0.0431
26430W        W42691  18.283  13.648   5.336 -0.2030 -0.2880 -0.0373
26431W        W42692   9.242  19.439   1.478  0.1128 -0.0956 -0.1421
26432W        W42693  12.625   2.138   3.674 -0.2008  0.2636  0.1269
26433W        W42694   1.866  11.583   4.212  0.1937  0.0762 -0.0529
26434W        W42695   4.445   8.252   1.018  0.2139  0.0255 -0.1760
26435W        W42696  14.524   6.211   4.448  0.3418 -0.0886 -0.2141
26436W        W42697   3.823  13.585   0.653 -0.1185  0.0771 -0.1060
26437W        W42698  12.269   2.740  12.735  0.1067  0.4094 -0.0673
26438W        W42699  18.950  14.371   2.907  0.0601 -0.2727 -0.2918
26439W        W42700  18.085   0.049  10.464  0.1266  0.1254 -0.0976
26440W        W42701  14.613   1.186  11.686  0.2833 -0.0054  0.1227
26441W        W42702   7.590  17.279   3.498 -0.3164 -0.1690  0.0986
26442W        W42703   4.888   3.489  14.640 -0.3246 -0.1470 -0.1362
26443W        W42704   8.129   4.743   4.667  0.0024 -0.0477 -0.2706
26444W        W42705   5.402  14.612   0.277  0.3110 -0.2515  0.1669
26445W        W42706   5.553   0.935  14.099  0.3046 -0.0209 -0.0699
26446W        W42707   6.965   7.980   4.403 -0.0852 -0.1218  0.2037
26447W        W42708  11.935   4.587  11.600 -0.1047  0.1107  0.0787
26448W        W42709  17.680  12.539   1.916 -0.5106 -0.0182  0.0270
26449W        W42710   2.108   8.028   0.148  0.3221 -0.2973 -0.1540
26450W        W42711   5.288  18.567   3.492  0.1493  0.1443 -0.1044
26451W        W42712  15.260  15.493   1.535  0.0200 -0.1887  0.1308
26452W        W42713  18.621   8.412  14.643 -0.2714  0.0153  0.0306
26453W        W42714  10.370   8.749  14.591 -0.1730 -0.0848  0.0465
26454W        W42715  10.885  13.198   3.826 -0.0885 -0.1844 -0.0031
26455W        W42716   3.120   4.566   3.250 -0.0710 -0.0636  0.1668
26456W        W42717   3.421   6.899  11.729  0.2233 -0.2847  0.1957
26457W        W42718   3.897   0.520   1.493 -0.0751  0.1753 -0.0253
26458W        W42719  12.672  16.628   0.220  0.4312  0.1243  0.2815
26459W        W42720   6.688  15.603   1.909 -0.1766 -0.0547 -0.2070
26460W        W42721   3.813   2.397  14.698 -0.0617 -0.2495  0.0848
26461W        W42722   3.971   2.831   1.174 -0.1714  0.2089  0.3001
26462W        W42723  16.228  18.507   0.019 -0.4239 -0.2044 -0.3508
26463W        W42724  11.542   8.298   0.466  0.2551  0.2774  0.3721
26464W        W42725  12.170  19.482   1.270 -0.1047  0.1081 -0.0393
26465W        W42726  13.672   5.909   2.234 -0.0169 -0.0681 -0.1073
26466W        W42727   7.763   7.243  12.004  0.0328  0.3464  0.2968
26467W        W42728   2.458   1.446  10.595 -0.1425 -0.1365  0.2969
26468W        W42729  15.851   5.513   9.673 -0.1399 -0.3108 -0.1340
26469W        W42730   7.568  11.544   1.029  0.0658 -0.0016  0.0140
26470W        W42731  17.305  13.822  11.457 -0.0254  0.0762  0.0293
26471W        W42732   6.519   6.528   0.756  0.0663  0.2995  0.3521
26472W        W42733  13.380   5.744  10.643 -0.1946  0.2425 -0.1614
26473W        W42734  13.631   6.609   0.399 -0.0202  0.1474 -0.0529
26474W        W42735   2.205  13.035  12.874  0.1067  0.2328 -0.4710
26475W        W42736   4.765   9.200   3.556 -0.4499  0.1265  0.0249
26476W        W42737  18.483   5.685   0.303  0.0816 -0.2362 -0.2041
26477W        W42738  15.701  19.251   0.037 -0.0997 -0.2565 -0.0831
26478W        W42739   5.789  10.135  11.692 -0.0641 -0.3345  0.0055
26479W        W42740   4.215   1.620   3.159 -0.2369 -0.2599 -0.3044
26480W        W42741  14.972  16.143  12.405 -0.2028 -0.2648  0.3840
26481W        W42742   6.483   3.960  10.663 -0.1121  0.0078  0.2080
26482W        W42743  10.061   5.336   1.349  0.1046 -0.1445  0.2043
26483W        W42744  17.733  10.877   1.700  0.1057  0.0406 -0.3601
26484W        W42745   5.315   2.640  12.464 -0.2183 -0.0151 -0.2580
26485W        W42746  12.767   7.329   1.089  0.2143  0.5447  0.0034
26486W        W42747   4.862  15.369   5.894  0.0372  0.4494 -0.3691
26487W        W42748   6.079   0.067  12.139  0.1082 -0.2606 -0.2116
26488W        W42749   2.729   0.962  10.549  0.3987  0.0317  0.4196
26489W        W42750   4.088   3.735   0.263  0.4130  0.1188  0.1090
26490W        W42751  15.885  12.472   4.448  0.2153  0.0253 -0.0638
26491W        W42752   6.554  11.249   0.064 -0.1205  0.0026 -0.2572
26492W        W42753  12.528  16.869  13.611  0.2619  0.0645 -0.0800
26493W        W42754   2.660   7.835   4.375 -0.2128  0.0070 -0.2418
26494W        W42755   0.590   7.060   4.067 -0.0826  0.1770  0.1540
26495W        W42756  17.047  10.451  11.458  0.1683  0.0308 -0.0634
26496W        W42757   8.845  15.042   0.322 -0.1494 -0.1049 -0.1325
26497W        W42758  10.847  18.486  11.027  0.0563 -0.0084 -0.1250
26498W        W42759  15.663   8.057   3.572  0.2234  0.0008 -0.1207
26499W        W42760   4.858   6.988   2.889  0.1343  0.1399  0.0899
26500W        W42761  13.995   1.457  12.751  0.0318 -0.1446  0.3610
26501W        W42762   6.422  14.943  11.361 -0.2842  0.1346  0.1303
26502W        W42763   5.680  12.994   2.901 -0.2619  0.1422 -0.4182
26503W        W42764  17.340  18.905  14.059  0.0584  0.1271  0.1326
26504W        W42765  14.985  10.215   5.823  0.1777  0.1544 -0.1276
26505W        W42766  18.558   0.837  13.851 -0.0819 -0.0667  0.3635
26506W        W42767   3.603  11.915   1.639 -0.0722 -0.0306 -0.2653
26507W        W42768  10.999  13.079   1.764  0.1345 -0.0818 -0.0671
26508W        W42769   3.523   4.450   3.805 -0.1795  0.2630 -0.0118
26509W        W42770   1.626  11.378  13.313 -0.1832  0.2812  0.0680
26510W        W42771  17.489  11.090   3.976  0.2669 -0.2469  0.0409
26511W        W42772   9.463  18.119   0.370 -0.0547  0.1971 -0.1298
26512W        W42773  19.333  18.069  11.264  0.1326 -0.0292  0.0193
26513W        W42774   7.780   9.172   3.675  0.2450  0.3315 -0.0503
26514W        W42775  10.291   5.740  13.478 -0.1258 -0.4452  0.4683
26515W        W42776   8.747  19.121  10.872  0.1706 -0.0638 -0.3683
26516W        W42777   3.841   6.041   2.886  0.0354 -0.2135  0.1103
26517W        W42778   1.141  12.941   3.052  0.0532 -0.3436  0.2246
26518W        W42779  15.992  15.268  11.315 -0.1074 -0.0967  0.0056
26519W        W42780  16.149   4.379   2.361  0.3163  0.0494 -0.1112
26520W        W42781  10.465  17.783  10.816  0.0338 -0.0250 -0.0609
26521W        W42782  18.679   8.204   0.339 -0.0299  0.0628  0.1591
26522W        W42783  13.331   9.364  12.622 -0.2048 -0.1654  0.0927
26523W        W42784   8.608  14.597   1.084  0.1710  0.3856  0.0223
26524W        W42785   5.320   0.680  10.910  0.2699 -0.3396  0.0549
26525W        W42786  10.974  12.087   3.733 -0.0832  0.0451  0.0617
26526W        W42787   5.759   6.862   3.044  0.1025  0.1086 -0.0384
26527W        W42788  14.437  18.154   3.242  0.1069 -0.3452  0.1198
26528W        W42789   4.389  11.809  12.120  0.3390  0.1563 -0.1293
26529W        W42790   0.651  13.054   3.293  0.1071 -0.2070 -0.1622
26530W        W42791  14.769  14.537   0.743  0.0747 -0.3148  0.5134
26531W        W42792  14.012   0.800   4.947  0.1050  0.2434 -0.0718
26532W        W42793  11.193   5.504  11.338  0.0231  0.2791 -0.2669
26533W        W42794  11.419   8.630   2.309  0.1420  0.0335  0.1677
26534W        W42795  13.403  19.065  10.488  0.2226  0.1437 -0.4006
26535W        W42796  14.722  12.627  13.552  0.0931  0.1543 -0.0146
26536W        W42797  18.010   9.645  10.473  0.0432 -0.3109  0.0449
26537W        W42798   2.193   8.173   4.500  0.1951  0.1657  0.0398
26538W        W42799   9.921   4.387   3.004  0.3302  0.4000  0.2236
26539W        W42800  13.694  18.900  12.682 -0.1543 -0.0487  0.2025
26540W        W42801   5.037  11.487  13.888  0.2731 -0.2821  0.0057
26541W        W42802  12.458   1.154   2.469  0.0731  0.2537  0.1181
26542W        W42803  16.242   9.187  13.077 -0.1777 -0.3191 -0.0545
26543W        W42804  15.286   2.246  14.481 -0.0982 -0.2200  0.0209
26544W        W42805   5.419  11.210  13.696 -0.4192  0.2693 -0.1124
26545W        W42806   3.406   0.110   4.687 -0.0886 -0.3601 -0.2908
26546W        W42807   1.525  18.534  13.507 -0.1205 -0.2172  0.0706
26547W        W42808   2.512  13.260  11.249 -0.1267 -0.2387 -0.1122
26548W        W42809   7.377   3.877  11.026  0.0260  0.0061 -0.2074
26549W        W42810   2.146   3.676   3.295 -0.5513 -0.2268 -0.1106
26550W        W42811  12.837   9.054  14.266  0.3417  0.2566 -0.2481
26551W        W42812  12.512   1.910  13.866 -0.1652 -0.0792 -0.2340
26552W        W42813  14.752  12.280   4.579 -0.1538 -0.2717 -0.2057
26553W        W42814  10.897  16.994   5.037  0.1210 -0.2050  0.0836
26554W        W42815   5.152   7.978  12.743  0.1265 -0.0294 -0.2281
26555W        W42816  17.285  14.343   1.197 -0.0492  0.0394  0.1441
26556W        W42817   0.202   0.782   2.839  0.0983 -0.2803  0.2106
26557W        W42818  15.267  12.715  13.488 -0.1802  0.1140  0.2385
26558W        W42819   5.814  14.408   3.532  0.2882 -0.2851 -0.0276
26559W        W42820  10.743   5.059  13.107 -0.0371  0.1547 -0.1640
26560W        W42821  18.233  14.623  10.807 -0.0739  0.0026  0.3210
26561W        W42822  17.980  17.049   3.783 -0.5332  0.0635  0.0125
26562W        W42823   9.573   7.598  13.820  0.1332 -0.1033  0.1297
26563W        W42824   7.039   3.174  11.989  0.2172 -0.2140  0.1507
26564W        W42825   1.004   6.504  13.181 -0.0099 -0.0226 -0.0578
26565W        W42826   9.141   2.569   9.761  0.1176  0.2618 -0.1025
26566W        W42827   9.940   0.108   4.128 -0.0872 -0.1055  0.1085
26567W        W42828   8.538  14.772   4.585 -0.1468 -0.0390  0.2944
26568W        W42829  13.850  13.516   4.738 -0.0881 -0.1520 -0.0426
26569W        W42830   0.487   8.311   0.451 -0.0285  0.0727  0.1858
26570W        W42831  12.633   3.197  10.259 -0.3667  0.1784 -0.0696
26571W        W42832  11.315  15.825  13.901 -0.1955  0.0424 -0.0275
26572W        W42833   7.223  18.565   5.075  0.1214  0.0923 -0.1472
26573W        W42834  18.788  13.352   4.008  0.0521  0.3683 -0.1138
26574W        W42835   1.413  15.503  13.115  0.1933 -0.0699 -0.3879
26575W        W42836  14.207  14.018  13.428  0.1463 -0.1787 -0.2053
26576W        W42837  17.596   5.338   1.607  0.2603 -0.3473 -0.1528
26577W        W42838   7.913  13.861   9.696  0.1310 -0.1654  0.0841
26578W        W42839  17.428  10.066  13.340 -0.1040  0.0734 -0.2570
26579W        W42840   0.743   4.301   3.212 -0.0341 -0.0602 -0.0185
26580W        W42841   0.537   6.592   3.879 -0.1991 -0.0156  0.1000
26581W        W42842  18.283   1.843  13.551 -0.0480  0.2622 -0.0615
26582W        W42843   3.790   6.939  12.738  0.0712 -0.3210 -0.0699
26583W        W42844  13.242   0.156   0.902  0.0420  0.0956 -0.3707
26584W        W42845   5.401   6.477  13.910  0.0900  0.0740 -0.0410
26585W        W42846  11.032   6.997  13.342 -0.0930 -0.0457  0.1296
26586W        W42847   9.545  15.457   2.369 -0.0499  0.2954  0.0442
26587W        W42848  14.951  19.124   3.991  0.0202  0.1402 -0.0118
26588W        W42849   0.262   1.191   2.549 -0.1826  0.0688 -0.0009
26589W        W42850   7.289   9.683  11.662 -0.1045 -0.3032 -0.1665
26590W        W42851  14.422   8.622   0.502  0.0172  0.3404  0.0435
26591W        W42852   2.068  12.543   2.326  0.1118  0.0618 -0.2978
26592W        W42853  10.423   4.634   2.897 -0.1770  0.0381  0.0470
26593W        W42854  15.123  16.819  11.357 -0.1662  0.0438 -0.1732
26594W        W42855   6.624   8.513  10.811 -0.0909  0.0334  0.1902
26595W        W42856  10.688   6.177   0.583 -0.0195  0.4903 -0.1550
26596W        W42857   2.299   7.908   2.701 -0.0048 -0.0343 -0.0742
26597W        W42858  16.060  14.734  11.972  0.1929  0.0817  0.1051
26598W        W42859   0.509   0.323  10.867  0.3427  0.1233 -0.0235
26599W        W42860   8.731   3.340   0.194 -0.1328 -0.2622  0.0096
26600W        W42861  18.689   6.931  14.676  0.0879 -0.0089  0.3064
26601W        W42862  12.371   7.575   3.343 -0.0586 -0.1270  0.1203
26602W        W42863   0.912   2.979  13.377  0.1523 -0.1099  0.1194
26603W        W42864  14.368   2.072  14.369  0.1944 -0.0234  0.1297
26604W        W42865  16.467   9.623  11.427  0.1818 -0.1822 -0.0508
26605W        W42866   0.226  12.334   0.577 -0.1524 -0.2448 -0.2083
26606W        W42867   1.151   0.118  12.188 -0.0628  0.4621 -0.0375
26607W        W42868   6.613  10.836   2.030 -0.1637  0.2220  0.0260
26608W        W42869  15.501  15.675  14.205 -0.0367  0.0414 -0.0463
26609W        W42870  17.836  15.361  10.891  0.1155 -0.1735  0.0263
26610W        W42871  12.924  17.276   4.360 -0.1283 -0.3171 -0.4409
26611W        W42872   6.459  18.116  12.522  0.0454  0.3355 -0.0590
26612W        W42873   2.774  14.195   9.711  0.1016 -0.0002 -0.1364
26613W        W42874   2.482  18.766  10.482  0.0853 -0.2976  0.0516
26614W        W42875   1.343   7.381   3.976  0.0609  0.0365 -0.3337
26615W        W42876  19.433  14.073  10.931  0.0934  0.0361  0.1098
26616W        W42877   0.459  19.295  13.778  0.5219 -0.1452 -0.1207
26617W        W42878  15.077   9.508   0.230  0.4464 -0.2870 -0.0438
26618W        W42879   8.637  10.828  14.393  0.2266 -0.0609  0.2355
26619W        W42880  15.722   4.168  13.508 -0.1207  0.2254 -0.2580
26620W        W42881  16.964  18.543  12.018 -0.2290 -0.0417  0.3448
26621W        W42882   4.182  18.922  10.313 -0.0911  0.0405  0.1633
26622W        W42883  19.478   0.812   2.346  0.2077 -0.1762 -0.0554
26623W        W42884   4.309   0.550   3.482  0.0480  0.0400  0.0419
26624W        W42885   1.595  14.359  13.815 -0.3310  0.0813 -0.1749
26625W        W42886  11.882  15.497  12.466  0.1113 -0.0688  0.0767
26626W        W42887   4.041   3.076   0.742 -0.0682 -0.1198  0.0702
26627W        W42888   3.447   3.342  10.469 -0.1371  0.0741  0.2210
26628W        W42889   7.151   5.248   2.530 -0.0862  0.0738 -0.0844
26629W        W42890   5.973  14.445  10.725  0.0884  0.3509 -0.2271
26630W        W42891   0.263  12.254   1.884  0.1116  0.1223  0.1877
26631W        W42892  11.055  13.665   3.323  0.1721 -0.1676  0.1089
26632W        W42893  17.051   2.559  12.036 -0.3060  0.0151 -0.2421
26633W        W42894  13.680   1.503   5.207 -0.1027  0.0144  0.0270
26634W        W42895   6.060   2.149  12.193 -0.0075 -0.1410  0.0632
26635W        W42896  17.270   4.421  12.217 -0.0818  0.2265  0.3500
26636W        W42897  10.596  16.338   3.159 -0.1036 -0.0989 -0.0111
26637W        W42898  19.347   6.006   0.671 -0.2287 -0.1689  0.3692
26638W        W42899  14.517   5.789   1.157 -0.1139 -0.1548 -0.2114
26639W        W42900   0.590   1.809   5.317 -0.1418  0.0616 -0.1983
26640W        W42901   2.307   9.327   3.715  0.0075  0.1177  0.2232
26641W        W42902   2.280  17.633   3.731  0.0269 -0.2402 -0.2605
26642W        W42903  17.287  18.414   2.063  0.3261 -0.0551  0.0765
26643W        W42904  13.613  16.585  11.469  0.0944 -0.1846 -0.1660
26644W        W42905   5.838  18.270  14.287  0.2053  0.0274  0.0918
26645W        W42906  11.630   7.208   8.703 -0.1629  0.2825  0.0776
26646W        W42907  13.313   9.295  13.497  0.1693  0.2850  0.2280
26647W        W42908   3.730   7.521  14.579 -0.1598  0.0425  0.0125
26648W        W42909   0.186  10.262   0.294  0.3637 -0.0438  0.1428
26649W        W42910   3.743   5.087   0.859 -0.0891  0.0936 -0.1021
26650W        W42911  12.851  15.043  12.356  0.0327 -0.2256 -0.1122
26651W        W42912  11.637  19.315  11.788 -0.0647 -0.1264  0.0876
26652W        W42913   3.580  11.074   1.624  0.0311  0.1523  0.1537
26653W        W42914  16.258  17.662   3.985 -0.3127  0.3299 -0.3508
26654W        W42915   4.914  10.120  12.058 -0.1006  0.1142 -0.3673
26655W        W42916   4.804   0.800  12.018  0.1039  0.0557  0.1284
26656W        W42917  14.146   6.038   0.846 -0.1748  0.1929 -0.0753
26657W        W42918  11.057   3.015   3.954  0.4941 -0.2037  0.1463
26658W        W42919   4.752  15.727  11.907 -0.1134 -0.1619  0.3379
26659W        W42920  18.686   1.350  14.795  0.0787  0.0165  0.0299
26660W        W42921  15.088  10.204   3.950  0.0139  0.0076 -0.0521
26661W        W42922  17.792  10.085   3.764 -0.3870  0.1190  0.2239
26662W        W42923   4.731  10.634   2.318 -0.2757 -0.2051 -0.1141
26663W        W42924  11.596  11.758   2.160 -0.1250 -0.4894  0.1260
26664W        W42925  18.315  10.871   3.754 -0.1941  0.2525  0.3010
26665W        W42926  11.179   1.370  13.898 -0.1496 -0.1559 -0.1133
26666W        W42927  16.611  18.850  10.933 -0.0650  0.0132 -0.0638
26667W        W42928   7.205   7.207   0.711  0.5359  0.1335  0.0862
26668W        W42929   8.239   9.508   3.734  0.0742  0.1267 -0.0395
26669W        W42930   5.062  19.168   1.648 -0.2644 -0.2545  0.0576
26670W        W42931   8.486   7.156   1.753  0.2783  0.0998 -0.1321
26671W        W42932  15.294   2.566   0.936  0.2996  0.2880 -0.2739
26672W        W42933   8.256  13.954   0.639 -0.3232 -0.2194  0.3546
26673W        W42934   4.804   7.460   2.453  0.1612 -0.4287 -0.2408
26674W        W42935   9.987  12.598  13.137 -0.0997 -0.3299  0.1979
26675W        W42936   7.070   1.940   0.362  0.2880  0.0037 -0.1784
26676W        W42937  18.478  17.158   9.435 -0.2092  0.1248 -0.0376
26677W        W42938   0.974  15.183  12.890 -0.2037 -0.0771 -0.0583
26678W        W42939   8.634  18.104  11.823 -0.0049 -0.0490 -0.0201
26679W        W42940   0.714  12.973  13.114 -0.0688 -0.2595  0.4665
26680W        W42941  10.725   8.230   3.926  0.0402  0.1349  0.0484
26681W        W42942   4.841  13.301  14.079 -0.2564  0.0884 -0.0734
26682W        W42943  10.414   9.241   4.048  0.3143 -0.3426 -0.2628
26683W        W42944   4.480   3.404  13.507  0.1607 -0.1688 -0.0070
26684W        W42945  13.577   8.718   3.346  0.1261 -0.1950  0.0991
26685W        W42946  15.836  17.034  13.564 -0.1362  0.0345  0.2138
26686W        W42947  15.028   3.313  12.635 -0.0510  0.0393 -0.4265
26687W        W42948   9.672   8.634  11.732  0.0014  0.3085  0.1716
26688W        W42949   1.614  10.276  13.423  0.0184 -0.1379  0.0673
26689W        W42950   2.402   7.352   2.586  0.4102  0.0346  0.0560
26690W        W42951  16.789  17.374  13.683  0.0677 -0.0404 -0.0284
26691W        W42952   0.088   2.602  11.123 -0.0841  0.1730  0.1979
26692W        W42953   6.264  19.075  13.620 -0.0745 -0.1544 -0.2260
26693W        W42954   0.422  14.209  10.500 -0.0279 -0.0957 -0.2523
26694W        W42955  13.019  16.196   2.150 -0.1107 -0.1947 -0.0176
26695W        W42956   4.392  12.855  11.135  0.1985 -0.1605  0.0481
26696W        W42957  16.940   8.303   1.340  0.1376  0.1768  0.0259
26697W        W42958  15.174  15.705  12.105  0.2114 -0.0537  0.3958
26698W        W42959  13.007  15.580   5.193 -0.1784 -0.0635 -0.0333
26699W        W42960  13.739  18.142   3.759  0.1149  0.0363  0.2855
26700W        W42961   0.153   1.530   5.581  0.3299 -0.0729 -0.0571
26701W        W42962  19.009   4.477  12.813  0.1987  0.0541  0.4615
26702W        W42963  12.793   8.065  14.729  0.0170  0.4193  0.2754
26703W        W42964  10.458  16.027   9.895  0.1398 -0.1432  0.1473
26704W        W42965   9.149   4.866   1.413 -0.3394  0.1754  0.1557
26705W        W42966   9.586  12.085  14.388  0.2750  0.0340  0.1494
26706W        W42967   9.951   6.914  14.091  0.2709  0.0837  0.0078
26707W        W42968  14.341  13.182   0.678 -0.0687  0.3245 -0.1839
26708W        W42969  16.295  15.665   5.727  0.1496 -0.1469 -0.0653
26709W        W42970   6.302  17.643   2.636  0.0462 -0.2063 -0.4524
26710W        W42971  19.101   8.199   1.097 -0.2784 -0.0773 -0.2238
26711W        W42972   5.030  14.951   0.502  0.1400 -0.1479 -0.1386
26712W        W42973   2.565   6.352   0.118 -0.1673 -0.1816  0.0205
26713W        W42974   1.376  13.448   0.937 -0.1634 -0.0219 -0.2583
26714W        W42975   5.730  15.072   0.397  0.3347  0.0200 -0.0998
26715W        W42976  17.389  11.579   4.201 -0.1580  0.1646  0.1376
26716W        W42977   5.608  18.300   4.062  0.1986 -0.0741  0.1500
26717W        W42978  15.897   4.885   0.348 -0.1584  0.2046  0.1095
26718W        W42979  19.300  16.026   0.508  0.1086  0.0120  0.4791
26719W        W42980   2.720   0.143  12.168 -0.3117  0.3316  0.0373
26720W        W42981  10.712   1.623   0.391  0.2989  0.2768  0.2237
26721W        W42982   2.368  13.841   2.161 -0.0032 -0.0107  0.0691
26722W        W42983  14.264  12.319   2.767  0.3021  0.0664 -0.0026
26723W        W42984  11.262   5.630   1.232  0.3068  0.0583  0.2323
26724W        W42985  17.471  12.092  11.572 -0.3174 -0.1134  0.0567
26725W        W42986  13.563  19.210  11.347 -0.1137 -0.0790 -0.3127
26726W        W42987  19.144   4.037   4.524 -0.0694  0.0590 -0.1135
26727W        W42988  10.688   3.041   9.852  0.0756  0.0054  0.2710
26728W        W42989   2.772  10.181  10.301 -0.0020 -0.1029 -0.2009
26729W        W42990  17.502  12.240   0.661  0.1166 -0.1289 -0.0134
26730W        W42991  11.565  12.363  10.824 -0.1035 -0.2678 -0.2539
26731W        W42992  15.014  12.456  13.125  0.1515 -0.2362  0.0907
26732W        W42993   4.544   8.335  14.040  0.1063  0.2378  0.0248
26733W        W42994   8.472  14.470   3.777  0.2441  0.1584 -0.0236
26734W        W42995  11.968   9.886  13.274 -0.3369 -0.0761 -0.2252
26735W        W42996   5.971  12.575   4.101  0.2840  0.1581 -0.2642
26736W        W42997  16.802   0.401  12.223 -0.0402  0.0349  0.0549
26737W        W42998  13.488  10.196   1.187 -0.1465  0.0395 -0.1283
26738W        W42999   8.325  15.991   5.463  0.0380 -0.0086  0.2093
26739W        W43000   5.442   0.502   2.331  0.1215  0.0463  0.0780
26740W        W43001  12.828  11.251   2.451 -0.0625 -0.2178 -0.0552
26741W        W43002  14.815   4.898   1.165  0.2916  0.1331 -0.1122
26742W        W43003  17.518   2.791  10.574 -0.1659  0.0953  0.1353
26743W        W43004   1.288  18.001  10.930 -0.2865  0.0643 -0.0674
26744W        W43005  17.790  14.266  13.193  0.3121  0.0366  0.1796
26745W        W43006   0.161   8.340  14.023 -0.2676  0.1111 -0.1724
26746W        W43007  17.267  13.094   2.131 -0.1741  0.1197  0.0480
26747W        W43008   1.649  17.187   4.824 -0.0277 -0.0786  0.3509
26748W        W43009   2.647  16.345  13.654 -0.1701  0.1561  0.0412
26749W        W43010  18.702   1.434   0.633 -0.1776 -0.0877  0.0542
26750W        W43011   1.313  11.272   2.884 -0.1043 -0.0086  0.2170
26751W        W43012  10.366   2.455  10.170 -0.3110 -0.1543  0.2490
26752W        W43013  10.935   3.407  12.623 -0.2429  0.0012  0.0351
26753W        W43014   8.350  18.185   0.174 -0.5857 -0.0458  0.3669
26754W        W43015   5.399  14.281  11.573  0.0246 -0.1718  0.1362
26755W        W43016   5.603  14.344  13.448  0.0196  0.1579 -0.1380
26756W        W43017  19.324   8.530   2.666  0.0733 -0.2799  0.1392
26757W        W43018  10.903   1.527  13.003  0.0899 -0.1412  0.2720
26758W        W43019  12.660   5.632   0.396 -0.0745  0.1674 -0.1310
26759W        W43020  13.512   9.469   1.441 -0.3913  0.4295  0.0325
26760W        W43021   2.792  14.279   1.282 -0.1561  0.2390  0.0623
26761W        W43022   4.845   0.188   4.542  0.0606 -0.3673  0.4259
26762W        W43023  17.628   6.557  11.399  0.0642 -0.2688 -0.0044
26763W        W43024   9.533  10.706  13.762 -0.0265 -0.1623 -0.1515
26764W        W43025  15.820  14.347  11.182 -0.1185 -0.2778  0.0907
26765W        W43026   9.686  12.457   2.379  0.0981  0.0061 -0.2044
26766W        W43027   9.143  16.890  13.525 -0.0097  0.2729  0.0322
26767W        W43028  15.860  13.023  12.522  0.0645 -0.1604 -0.0598
26768W        W43029   1.179   6.002   0.510 -0.1612  0.3061 -0.1338
26769W        W43030   4.463  13.629  12.847 -0.0569  0.0831 -0.1328
26770W        W43031   0.227   2.622  12.998  0.1101 -0.2345 -0.2350
26771W        W43032  11.234  18.378   9.579 -0.4875  0.1471 -0.1576
26772W        W43033   8.745   2.272   2.505 -0.1426 -0.1879  0.2650
26773W        W43034   2.500   6.651   5.034 -0.0413 -0.0971  0.0461
26774W        W43035   8.417  18.675   3.931 -0.4794  0.0660  0.1703
26775W        W43036   4.819   9.705  14.601  0.2082  0.1318  0.0338
26776W        W43037   0.777   5.023   1.289  0.0410 -0.0105  0.3070
26777W        W43038  16.784   3.593   1.051  0.0514 -0.1134  0.0198
26778W        W43039  10.508   0.282   1.081  0.1202  0.0357  0.0335
26779W        W43040  18.251   9.784  13.725  0.1576  0.1347 -0.1317
26780W        W43041   4.104  18.746   3.030  0.0920  0.0242  0.0993
26781W        W43042   0.616   5.659  10.609  0.1756 -0.2034  0.2219
26782W        W43043   7.883   5.870  11.953 -0.0473 -0.2711 -0.0814
26783W        W43044   9.122  18.579   3.537  0.0481 -0.0162  0.0035
26784W        W43045  12.642  17.148  13.150  0.0887 -0.0987 -0.1975
26785W        W43046  17.709   6.303   0.557  0.3199 -0.2106  0.4921
26786W        W43047   4.575   1.516  10.881 -0.2287  0.0181  0.1422
26787W        W43048   7.662   6.189   4.410 -0.3195  0.0223  0.1981
26788W        W43049   0.134   6.894   0.724  0.0874  0.1556  0.2466
26789W        W43050   8.460   1.047   4.112  0.2350 -0.1128  0.1506
26790W        W43051   7.379  17.146   2.946 -0.1698 -0.0989 -0.1105
26791W        W43052  12.523  14.661   5.176 -0.3502 -0.2733 -0.0884
26792W        W43053   6.893   5.624   3.934  0.0583  0.0205 -0.0897
26793W        W43054   9.589   3.884  11.477  0.1208 -0.0154 -0.0499
26794W        W43055   7.704   6.192   1.258 -0.2023  0.0765  0.2244
26795W        W43056  15.189  18.433   2.907 -0.0099 -0.3357 -0.4124
26796W        W43057  19.297  12.423   2.182 -0.0558 -0.0824  0.5663
26797W        W43058  15.919  14.289   0.970  0.3212 -0.0478  0.1199
26798W        W43059  14.579   0.642   0.462 -0.3562 -0.1310 -0.4030
26799W        W43060   0.975   4.267   4.194  0.0641  0.1817 -0.0030
26800W        W43061  18.753   7.579   4.721 -0.1975  0.1278  0.0315
26801W        W43062   1.378  16.017  11.356  0.3171 -0.0579 -0.0199
26802W        W43063  19.152  11.389  12.147  0.1126 -0.1839  0.4155
26803W        W43064  11.625   5.356  12.258 -0.0450  0.4022 -0.1743
26804W        W43065   5.975  17.684  13.646 -0.1332  0.1366  0.2313
26805W        W43066  16.526  16.832  11.255  0.1315  0.5937  0.0617
26806W        W43067   2.334   9.379   0.161  0.3724 -0.3195  0.0608
26807W        W43068   5.782  14.149   0.346  0.2975 -0.1268  0.0597
26808W        W43069   7.965  11.592   3.489 -0.2212  0.1611 -0.4621
26809W        W43070  12.094  18.828   4.728 -0.0717  0.1056 -0.1016
26810W        W43071   9.569   1.042  10.760 -0.1896  0.1441 -0.0807
26811W        W43072   2.684   6.262   2.570 -0.0305 -0.1759  0.0049
26812W        W43073  14.661   7.015   3.607 -0.4346 -0.1069  0.1255
26813W        W43074  15.044  12.431  10.853  0.0718 -0.0004  0.1542
26814W        W43075  12.774  15.078   5.330 -0.2020  0.2782  0.0462
26815W        W43076  15.320  18.133  11.566  0.2346 -0.0636 -0.0224
26816W        W43077   7.166   4.237  10.582  0.0311  0.2320  0.1161
26817W        W43078   9.172   9.367   3.615  0.2883 -0.0240 -0.0119
26818W        W43079   4.889   9.572   1.158 -0.0545  0.3453 -0.1829
26819W        W43080  16.271  14.311  12.069  0.0918 -0.0427  0.2074
26820W        W43081   0.583   2.551  12.632  0.1730  0.0683 -0.4223
26821W        W43082  15.179   7.093  13.602 -0.1609 -0.1069 -0.3322
26822W        W43083  16.918  16.953  12.736 -0.3754 -0.0746  0.0810
26823W        W43084   9.024  15.468   2.688  0.3989  0.1117 -0.2165
26824W        W43085  10.337   8.135  10.106 -0.0202 -0.0085 -0.1461
26825W        W43086  17.395  10.344   4.604 -0.1974  0.0201  0.0379
26826W        W43087  17.560   8.912   3.489  0.2269  0.0423 -0.1385
26827W        W43088   4.384   7.036  13.603 -0.1049 -0.0474  0.3602
26828W        W43089   4.848   7.700   4.940  0.0888  0.1077 -0.0780
26829W        W43090  15.072   9.037   4.997  0.3291  0.1509 -0.2374
26830W        W43091  10.872  17.877   0.570  0.2270  0.0736 -0.1445
26831W        W43092  15.961  12.847   4.734 -0.1608  0.0694  0.0869
26832W        W43093  10.486  16.368   2.698  0.2164  0.0635  0.2967
26833W        W43094  14.761  14.251  14.081  0.1988  0.4720 -0.1883
26834W        W43095   5.850   3.479  11.924  0.1800 -0.0137  0.0967
26835W        W43096  16.894   9.009  12.133  0.0739 -0.1915  0.1658
26836W        W43097  11.668  11.405  11.393  0.0705 -0.0302  0.1496
26837W        W43098   7.966  14.795  10.562  0.2053  0.0078  0.1412
26838W        W43099   4.145  12.870  12.345 -0.0661  0.0170  0.3382
26839W        W43100  11.253   0.527  14.565  0.0718  0.0290  0.0349
26840W        W43101   1.980  10.229   2.411  0.0613  0.1904  0.1264
26841W        W43102   4.925  11.432  13.370 -0.0144 -0.0667  0.0570
26842W        W43103   6.830   5.488  11.682  0.1967 -0.1230  0.2037
26843W        W43104  10.702  14.342   9.383  0.1360 -0.2927 -0.1276
26844W        W43105  17.468  19.368  13.694  0.1151  0.1247 -0.3383
26845W        W43106   1.779   8.590   3.677  0.0317  0.0318  0.0533
26846W        W43107   6.030   7.743   0.340 -0.2872 -0.1385  0.1665
26847W        W43108   6.589  10.847   0.467  0.1122  0.1196 -0.0768
26848W        W43109  13.122   3.697  14.023  0.2068  0.0732  0.1980
26849W        W43110  11.153  10.991   3.095 -0.1442  0.2005  0.0382
26850W        W43111  13.296   1.090   2.136 -0.0122 -0.2982 -0.2512
26851W        W43112  11.328  10.302  12.703  0.1154 -0.1366 -0.2607
26852W        W43113  12.932   5.280   4.075  0.4475  0.1024  0.1558
26853W        W43114  13.130  17.462  11.830  0.1383  0.1777  0.0022
26854W        W43115   9.623   2.027   4.694  0.1896  0.2740  0.3870
26855W        W43116   7.642   4.571   2.936  0.0374 -0.2258  0.3597
26856W        W43117   4.665   6.845   1.379 -0.5069 -0.0348  0.2358
26857W        W43118   8.687   4.706   3.346 -0.2484 -0.0937  0.0303
26858W        W43119  16.394   9.830   4.683  0.1837 -0.0921 -0.2430
26859W        W43120  11.014   7.631   3.427  0.0814 -0.0731 -0.1319
26860W        W43121   3.912   2.572  12.678 -0.2800 -0.2594  0.0382
26861W        W43122  10.170   9.464  12.492  0.0162 -0.0539 -0.3108
26862W        W43123   9.837  10.468   2.319  0.0198 -0.0871 -0.0054
26863W        W43124  12.892  13.427   1.334  0.0893  0.0218  0.0189
26864W        W43125  13.012  16.168  11.965 -0.3309  0.1301  0.0726
26865W        W43126  14.579   2.809  13.978 -0.0316  0.2401 -0.0457
26866W        W43127   9.292   3.582   4.747 -0.0035 -0.0351  0.0773
26867W        W43128   4.074   5.338  11.894  0.1629  0.1751  0.2853
26868W        W43129  14.195  19.104   5.123  0.1548 -0.0844  0.0411
26869W        W43130   6.631  12.077   2.620  0.0005  0.1391 -0.1324
26870W        W43131  15.812  13.882  12.989 -0.0448  0.1732 -0.0449
26871W        W43132  14.353  13.255   5.421  0.2230 -0.1349  0.0558
26872W        W43133  15.693   7.303   9.754  0.1844 -0.3788 -0.1246
26873W        W43134  13.245   1.659   2.613 -0.1360 -0.2045  0.1752
26874W        W43135   0.606   9.599  11.957 -0.2999 -0.1397 -0.4121
26875W        W43136  13.897   4.105  11.162 -0.0850  0.0393  0.1489
26876W        W43137   5.335  11.417  11.013  0.0914  0.3585 -0.2121
26877W        W43138   3.515  12.390   5.151  0.1156 -0.3790  0.1127
26878W        W43139   2.766  10.986   4.878  0.2900 -0.2079  0.1773
26879W        W43140   2.609   9.879   3.052  0.1176  0.0677  0.0044
26880W        W43141   3.646  14.661  14.400 -0.0759  0.3805 -0.1282
26881W        W43142   6.161   6.299   0.493 -0.1990  0.2197 -0.0260
26882W        W43143   6.568  17.952   3.492  0.1450 -0.3311  0.0686
26883W        W43144  18.482  16.083   1.421  0.1873 -0.1008  0.0373
26884W        W43145  14.890   1.886  14.320  0.0516  0.0617 -0.0789
26885W        W43146   5.278   4.436  14.123 -0.3200  0.1343 -0.1376
26886W        W43147  19.220   4.408   2.939 -0.1983  0.1498  0.3844
26887W        W43148   7.352  18.236  13.796 -0.1486 -0.2218  0.1393
26888W        W43149  18.049  13.672   2.844 -0.2779  0.1446 -0.2238
26889W        W43150   7.348   1.105   0.872  0.2747 -0.1381 -0.1142
26890W        W43151   2.015   9.042   9.455 -0.0216 -0.0531  0.1367
26891W        W43152   6.596   3.482  10.816  0.0317 -0.1110 -0.0434
26892W        W43153   5.268   8.888   0.023 -0.0871  0.2359 -0.1395
26893W        W43154   9.357   7.209   2.301 -0.2199  0.1489  0.2071
26894W        W43155   1.892   5.429  12.528  0.0136  0.2255  0.2329
26895W        W43156  18.687  10.426  12.758  0.2321 -0.3511 -0.3130
26896W        W43157  19.413  17.526  11.250  0.0571 -0.4361  0.3065
26897W        W43158  18.942   8.871  14.282  0.1192 -0.1779 -0.3414
26898W        W43159   8.431   9.966  10.555 -0.1271 -0.0524 -0.1461
26899W        W43160   4.103  16.520   4.570 -0.1121  0.0520  0.2999
26900W        W43161  13.531   2.582  12.053 -0.0164  0.0270 -0.2484
26901W        W43162  16.526   4.822   9.762 -0.3925 -0.0409 -0.1050
26902W        W43163   5.260  14.485  10.370 -0.0278  0.3413  0.0746
26903W        W43164   9.608  11.333  12.433 -0.2646  0.0303 -0.3189
26904W        W43165  13.575   8.748   5.427  0.0980 -0.0354 -0.3547
26905W        W43166  13.948  18.595   1.081 -0.0438 -0.1368  0.2469
26906W        W43167  18.155   1.078   1.825 -0.1902 -0.0397  0.2889
26907W        W43168  10.527   4.082  10.998 -0.0488  0.0925 -0.4081
26908W        W43169  11.256   2.429   2.076 -0.0991  0.1029 -0.0828
26909W        W43170   7.476   4.087   1.918 -0.1009 -0.0094  0.2387
26910W        W43171   5.717   2.382  11.884  0.1136  0.0350  0.0945
26911W        W43172  17.018  16.697  11.221 -0.4174  0.2826  0.0755
26912W        W43173  16.083  10.622   1.236 -0.4182  0.0121 -0.1915
26913W        W43174  18.795  17.215   2.258 -0.2712 -0.1246 -0.0867
26914W        W43175  13.424  17.374   0.721  0.0775  0.0544 -0.2278
26915W        W43176   0.935  17.123   1.686  0.1029  0.0900 -0.2032
26916W        W43177   3.379  10.997  13.466 -0.4305 -0.2414 -0.1753
26917W        W43178   8.213   4.592  13.723 -0.0047  0.0222  0.0984
26918W        W43179   8.196  14.752   3.542 -0.0256  0.0176  0.3196
26919W        W43180  16.025  12.007   4.272 -0.0299 -0.1480 -0.2495
26920W        W43181   6.112   2.888  12.156 -0.3118  0.1250 -0.2572
26921W        W43182   2.471  12.296   4.623 -0.1834 -0.2959  0.1752
26922W        W43183   7.513   6.214   0.696  0.1225  0.0442  0.0769
26923W        W43184   1.162  10.665   4.313  0.1935 -0.3427  0.0274
26924W        W43185   4.449   5.355   9.963 -0.0243  0.2342  0.1592
26925W        W43186  17.703  17.020   6.153  0.2147  0.0257  0.1422
26926W        W43187  13.822   3.430  14.641 -0.1484  0.0525  0.1208
26927W        W43188   6.868  14.507   0.239 -0.3042 -0.1221 -0.1916
26928W        W43189  17.559  17.459  13.935  0.1081  0.3510 -0.1492
26929W        W43190   5.146  19.254   9.810 -0.0604  0.2266  0.0981
26930W        W43191   9.762   7.092  13.653  0.1697 -0.1373 -0.0172
26931W        W43192   1.424  14.511  13.284  0.2458 -0.0853 -0.0561
26932W        W43193   4.111  17.946  10.495 -0.1124 -0.0903 -0.1235
26933W        W43194   6.192  13.323   2.222  0.1217 -0.2259  0.4054
26934W        W43195  19.365  11.579  13.984 -0.2484  0.1787 -0.1316
26935W        W43196  19.103  10.757  13.434 -0.0970 -0.1027  0.0663
26936W        W43197   7.281   1.255   0.077 -0.0453 -0.2989  0.0956
26937W        W43198   4.439   0.930   2.227  0.1243 -0.0445  0.0599
26938W        W43199   4.511  11.744   4.734  0.2291  0.1106 -0.0870
26939W        W43200  18.532   3.163  12.113  0.0483  0.1180  0.0165
26940W        W43201   3.264   0.118  14.347  0.1118  0.2357  0.2445
26941W        W43202   1.122   9.613   2.447  0.3024 -0.1347  0.2132
26942W        W43203  15.725   7.161   1.970 -0.2272  0.0574 -0.1597
26943W        W43204   0.425   5.550  11.406  0.1554  0.0146 -0.2422
26944W        W43205  10.633  13.631  12.570 -0.0516 -0.0749  0.1787
26945W        W43206  17.114   9.505  12.158  0.1467 -0.0116 -0.1554
26946W        W43207  13.616  12.459  14.019  0.0300  0.0055  0.1479
26947W        W43208  10.111  16.989   3.077  0.1898 -0.2733 -0.0693
26948W        W43209   9.365  15.928   5.646  0.1302  0.2484  0.1430
26949W        W43210   6.023  16.262  12.505 -0.1481  0.1417 -0.1051
26950W        W43211   9.292  17.448  11.636  0.0007 -0.2047  0.1783
26951W        W43212  18.048  18.094  12.366 -0.1901 -0.2131  0.0296
26952W        W43213  14.866  14.998   2.806  0.0564  0.0249 -0.1127
26953W        W43214  15.313   0.679   3.783  0.0700  0.2247 -0.0132
26954W        W43215   4.870  15.755   0.234 -0.2649 -0.4197  0.0973
26955W        W43216   8.392  10.322  12.289 -0.0508 -0.0574 -0.3506
26956W        W43217   1.457  12.537   2.764 -0.2167  0.0759 -0.1848
26957W        W43218  19.275   6.152  11.100 -0.1898  0.0350 -0.0124
26958W        W43219  17.378   1.569  12.286  0.2508 -0.0006  0.2268
26959W        W43220   4.219   7.499   2.683 -0.0975  0.1547 -0.0135
26960W        W43221   6.574  18.875   1.484  0.4220  0.1144 -0.1436
26961W        W43222  10.022  18.167   2.821  0.2184  0.0297 -0.3512
26962W        W43223  12.885  15.070  13.506  0.1252 -0.1184  0.0425
26963W        W43224   4.694   1.107   0.342 -0.1181 -0.4803 -0.0070
26964W        W43225   0.723   3.146   4.110  0.0421 -0.0547  0.0439
26965W        W43226   0.907  10.107  14.783 -0.1406 -0.0218 -0.4779
26966W        W43227  18.645  13.089  10.289  0.0346  0.1479 -0.0243
26967W        W43228  18.811  12.913   3.125 -0.1328  0.0670  0.0824
26968W        W43229  13.374  11.030   3.094 -0.0747  0.2127  0.3385
26969W        W43230   3.269  10.880  14.083 -0.4460  0.4079 -0.2543
26970W        W43231   6.055  18.727   1.497 -0.1454  0.1006 -0.0671
26971W        W43232  12.114   0.773  12.820 -0.2612 -0.0122  0.0544
26972W        W43233  10.983  10.283  10.528 -0.1833 -0.0269  0.0909
26973W        W43234  11.860   8.157  11.956 -0.1456  0.1386 -0.0234
26974W        W43235   8.583  17.076  13.403 -0.0616 -0.0405  0.1226
26975W        W43236   0.765  18.089   0.757  0.2286  0.1628 -0.1397
26976W        W43237   5.696  13.288   2.434 -0.0092 -0.0126 -0.2172
26977W        W43238  14.306   5.345   0.022 -0.2934  0.4990  0.0526
26978W        W43239   5.063  17.217  10.744  0.0812  0.2538 -0.0702
26979W        W43240  11.929  16.724   4.774 -0.1192  0.1415  0.1292
26980W        W43241   9.290  17.590   2.452  0.0351 -0.2441 -0.0792
26981W        W43242   1.807  14.404   1.561  0.1094 -0.2459 -0.1077
26982W        W43243   6.604   9.392  14.185 -0.2228 -0.0377  0.0854
26983W        W43244   4.906  18.582   2.427 -0.3257 -0.2755 -0.1190
26984W        W43245   2.023   1.754   3.736 -0.1010 -0.1177  0.0344
26985W        W43246  17.392   9.129  12.472  0.3088 -0.0134 -0.1988
26986W        W43247   9.125  18.953  11.100 -0.1242  0.0755  0.1508
26987W        W43248  14.292  16.113  13.847  0.1521  0.0989  0.1820
26988W        W43249  14.756   8.772  11.396 -0.1840 -0.3149 -0.2044
26989W        W43250  10.057  17.441  13.519 -0.0578 -0.0882 -0.1423
26990W        W43251   4.628  11.420  10.762  0.0452 -0.0073  0.0160
26991W        W43252   7.676   1.136  13.797  0.1063 -0.1980  0.2100
26992W        W43253  18.093  13.860  12.141 -0.0676  0.0639 -0.0934
26993W        W43254  15.108   0.485  11.960 -0.1874  0.1471  0.1124
26994W        W43255  12.440   8.988  11.655  0.1328  0.1873  0.1885
26995W        W43256   7.606   0.006   0.273  0.2218  0.0385 -0.1793
26996W        W43257  12.417  18.251   0.175 -0.0036 -0.0454 -0.1214
26997W        W43258  16.535   8.817   1.934  0.0615  0.0722  0.3063
26998W        W43259  11.642   2.166  12.658 -0.3437  0.3454  0.0583
26999W        W43260  14.786  10.478  10.420  0.0961 -0.0670  0.0035
27000W        W43261  16.033   0.794  11.627 -0.0791 -0.0655 -0.1165
27001W        W43262  13.881  17.742   2.998 -0.2448  0.1941  0.0894
27002W        W43263  10.769   1.749  10.694 -0.0830 -0.2290 -0.1393
27003W        W43264  19.384  18.170   4.192  0.1964  0.1414 -0.2303
27004W        W43265  18.027  17.226   5.167 -0.4255 -0.0490  0.2805
27005W        W43266   0.293   4.622   4.704 -0.0657 -0.0198 -0.1986
27006W        W43267  16.535  11.589  12.420 -0.0410  0.4433  0.0380
27007W        W43268  18.232   0.008   4.339 -0.3234  0.1494  0.1493
27008W        W43269  15.659   0.735  13.096  0.2591  0.0941  0.1242
27009W        W43270  18.831   5.138  12.726 -0.0399  0.0733  0.0838
27010W        W43271   7.727   0.142   0.792  0.1863  0.0481  0.1933
27011W        W43272  13.681   9.735   3.288 -0.0260  0.2673 -0.0260
27012W        W43273   1.925   2.559  10.536 -0.1186  0.1109  0.1380
27013W        W43274   6.793  13.500   0.714 -0.0616  0.1619  0.1737
27014W        W43275   1.620  12.507  11.222  0.0105 -0.1373 -0.2270
27015W        W43276  16.017   9.880  13.501 -0.0826  0.1766 -0.4157
27016W        W43277  10.301  18.799  11.515  0.1643  0.0338  0.0423
27017W        W43278  10.238   4.131  14.530  0.0856  0.0414 -0.2261
27018W        W43279   6.597   5.390  10.257  0.0329  0.1280  0.0420
27019W        W43280  15.467   2.355   1.954  0.0410 -0.0917  0.1067
27020W        W43281  11.488  13.900   2.236 -0.3418 -0.2160  0.2253
27021W        W43282  10.150   0.761   0.297 -0.2363 -0.3782 -0.1304
27022W        W43283  10.903   2.274  11.345 -0.0382 -0.2553 -0.3437
27023W        W43284   4.791   8.321   1.934  0.4017 -0.0800 -0.2634
27024W        W43285  17.816   7.812  11.098  0.2229 -0.0597  0.0867
27025W        W43286  13.024  15.952  11.024 -0.1582 -0.3217  0.0567
27026W        W43287  15.234  13.896  11.255 -0.0292 -0.0561 -0.5470
27027W        W43288  16.321  12.503   0.507 -0.0182  0.0334  0.1125
27028W        W43289   0.666  15.049   1.712 -0.1624  0.1761 -0.1744
27029W        W43290  17.704   6.743   0.323 -0.1088 -0.0276 -0.0531
27030W        W43291   8.222  13.434   1.597  0.1050 -0.2730 -0.1264
27031W        W43292   1.414   8.363   4.431 -0.1175 -0.2032  0.0749
27032W        W43293   3.524  18.519  14.696 -0.2629  0.0439  0.0010
27033W        W43294   4.839  14.158   2.184 -0.1263  0.1149  0.1479
27034W        W43295   6.702  13.266  13.031  0.1970 -0.0349  0.3268
27035W        W43296   4.839   5.169  14.032  0.2882 -0.0731 -0.2339
27036W        W43297  16.196  16.744   2.822 -0.1069  0.2119  0.1377
27037W        W43298   4.542  10.619  14.776 -0.2082 -0.1037 -0.0728
27038W        W43299  14.714   3.446   2.029  0.0485 -0.0616  0.1068
27039W        W43300  10.938  17.889   1.526  0.0903 -0.1363 -0.0526
27040W        W43301  19.180  12.883   2.374  0.2223 -0.0760 -0.2248
27041W        W43302  14.418  16.005  13.036  0.3799  0.0414 -0.1644
27042W        W43303   3.324   8.621  14.315 -0.0454  0.0999 -0.2272
27043W        W43304   1.855   8.449  13.987  0.5401 -0.0986 -0.4602
27044W        W43305  12.159  13.431  12.774  0.1525  0.1040 -0.1363
27045W        W43306   7.508  16.405   3.835 -0.0746 -0.2637  0.3446
27046W        W43307   6.343   4.695   2.775  0.0471  0.0664  0.0477
27047W        W43308  17.782   8.789   4.366 -0.0889  0.0843  0.0117
27048W        W43309  11.151   0.607   4.324  0.0050  0.1801 -0.2382
27049W        W43310  11.380  10.805   9.215 -0.2841  0.0930  0.3155
27050W        W43311  12.233   8.256   4.418  0.1259 -0.0674  0.2000
27051W        W43312  11.553  10.431  12.206 -0.0357 -0.1005  0.0874
27052W        W43313  15.104   5.858   9.072 -0.1368  0.4523 -0.0982
27053W        W43314   1.028   5.230   3.270 -0.0020  0.1674  0.2651
27054W        W43315   4.495   7.251  11.754  0.2004  0.1263 -0.1788
27055W        W43316   4.082   5.864   2.344  0.2371  0.1251  0.0245
27056W        W43317  11.030   0.506  12.613  0.1234 -0.0400  0.0311
27057W        W43318   5.269  18.248   2.571  0.1892 -0.3160 -0.0103
27058W        W43319  11.747   4.585  11.147 -0.0880  0.0359 -0.1097
27059W        W43320   9.817   3.077   5.150 -0.4367  0.1883 -0.2284
27060W        W43321  10.328   9.869   4.914  0.0840 -0.3081  0.1530
27061W        W43322  15.328  15.196   4.834  0.0796  0.2762  0.0960
27062W        W43323   8.858  13.029  14.376  0.3474  0.3867 -0.2477
27063W        W43324  18.731   2.641   3.098 -0.1512 -0.0582 -0.0179
27064W        W43325   1.876  10.121   1.330 -0.2647 -0.1204  0.0557
27065W        W43326  17.590   7.519  10.034 -0.2028 -0.1492  0.1597
27066W        W43327  17.150   0.794   3.369 -0.0205  0.2112  0.1026
27067W        W43328  17.430   3.950   4.453 -0.0899 -0.3160 -0.1452
27068W        W43329  17.212   4.910  13.622  0.0347 -0.2561 -0.1685
27069W        W43330  11.710  11.234   3.250 -0.1336  0.1417  0.0889
27070W        W43331   2.644  19.417   1.055  0.0032 -0.0152  0.2600
27071W        W43332  18.026  10.493   1.505  0.3349  0.1632  0.0184
27072W        W43333  15.156   4.418  13.650  0.0630  0.0008 -0.2432
27073W        W43334  14.227   5.588   2.922  0.0316 -0.1388  0.0905
27074W        W43335  15.737   2.177  11.366 -0.0194 -0.1210 -0.1685
27075W        W43336  12.774  12.903  10.208 -0.2108  0.0260 -0.3383
27076W        W43337  12.115   7.872   4.108  0.2128  0.1179  0.4377
27077W        W43338  13.171  10.838   2.658  0.0825 -0.0895  0.1888
27078W        W43339   8.741  13.101   1.474 -0.0523 -0.0627 -0.0119
27079W        W43340   7.531   4.391  12.574  0.1868  0.4572  0.2092
27080W        W43341   9.720  17.498   5.526  0.0553  0.1823 -0.0643
27081W        W43342   6.360  10.481   0.137  0.0533 -0.0222 -0.3228
27082W        W43343  19.193  17.217   3.977 -0.0881  0.0513 -0.1367
27083W        W43344  12.764  17.532   4.795  0.0367  0.0460 -0.1908
27084W        W43345   3.609  17.804  13.594  0.2250 -0.0147 -0.1755
27085W        W43346  13.202   7.523   2.705 -0.1635  0.1928  0.1054
27086W        W43347   1.466  11.516   3.350  0.0068  0.4059 -0.1702
27087W        W43348   8.275  14.747   5.043  0.0566 -0.2343  0.0907
27088W        W43349  12.280  18.290   0.693 -0.0436  0.1078 -0.1037
27089W        W43350   2.469   4.119  13.556 -0.0360 -0.2998  0.2467
27090W        W43351  10.548   7.564  12.128 -0.1533 -0.3166  0.0647
27091W        W43352  12.623   5.591   0.900 -0.0659 -0.0428 -0.0997
27092W        W43353   3.555  12.034  14.662 -0.0754  0.1677  0.1872
27093W        W43354  12.475   9.944  11.617  0.1207  0.1934  0.0686
27094W        W43355  17.560   7.400   4.223 -0.0535 -0.1095 -0.2631
27095W        W43356   3.866   0.431   4.848  0.1891 -0.0172  0.0591
27096W        W43357  16.013  17.176   4.128  0.1973 -0.0020 -0.2978
27097W        W43358   7.588   7.098   4.084  0.0228 -0.0374  0.0523
27098W        W43359  18.335   3.119  13.035 -0.2145 -0.1301 -0.1878
27099W        W43360  10.660   7.285   1.619  0.2315 -0.1199 -0.0044
27100W        W43361  15.500   1.531   2.497  0.0713 -0.3882  0.0436
27101W        W43362  15.024   6.229   2.532 -0.2493  0.4226 -0.0765
27102W        W43363  11.235  15.605   5.593  0.4279  0.0338 -0.0384
27103W        W43364   6.713   5.107   3.255 -0.2743  0.3842  0.2450
27104W        W43365   2.082  14.096  11.096  0.2725  0.2466  0.1221
27105W        W43366  14.701  15.890   3.631  0.3234  0.1677 -0.0767
27106W        W43367  11.876   6.993   2.787  0.0242 -0.0148  0.0334
27107W        W43368  17.158  13.784  13.348 -0.1125  0.0436  0.1516
27108W        W43369  14.372   6.133   2.973  0.0639 -0.4113 -0.0518
27109W        W43370   1.061  12.170   3.400  0.2055  0.2117 -0.0505
27110W        W43371  15.553   0.538   2.485 -0.0334 -0.0433  0.0438
27111W        W43372  15.138   7.423  12.624 -0.0219  0.4865 -0.0363
27112W        W43373   3.931   6.984  14.251 -0.0083  0.0880 -0.2110
27113W        W43374  10.794   1.283   0.772  0.1555  0.0947 -0.0126
27114W        W43375   2.882   6.535   4.730  0.0134  0.2514  0.3588
27115W        W43376  10.566   8.892   9.739 -0.0723 -0.2244  0.1688
27116W        W43377   7.357  18.944  13.145 -0.0791 -0.3718 -0.0059
27117W        W43378  10.242   1.632  10.524 -0.0630  0.0499  0.2361
27118W        W43379   0.887   2.426  11.628  0.1349  0.1313 -0.3757
27119W        W43380   6.038   6.570  12.743 -0.0168 -0.0864  0.2439
27120W        W43381  13.566   0.129   1.504 -0.1530 -0.2104 -0.0301
27121W        W43382   4.702  17.570  11.947  0.2667 -0.1920  0.0267
27122W        W43383   8.103  12.979  13.094 -0.1007  0.0611  0.4067
27123W        W43384  13.368   8.167  10.519  0.2521  0.1617 -0.1082
27124W        W43385  16.412   6.163  14.162  0.1531 -0.0048  0.0278
27125W        W43386   0.502  15.548   3.168  0.0328 -0.1332 -0.3305
27126W        W43387   7.064  11.466  12.937 -0.2922  0.0209  0.0055
27127W        W43388  19.370   3.452  12.497  0.1072  0.1365  0.1290
27128W        W43389  13.072  11.941   9.777  0.1414  0.0718 -0.3953
27129W        W43390  13.864  17.121   4.572  0.2271 -0.0799 -0.1169
27130W        W43391  15.912   9.569   3.961 -0.0857 -0.0136  0.4839
27131W        W43392   9.376  13.748  13.595 -0.0928  0.0419 -0.0736
27132W        W43393   2.615   6.751   0.943  0.0109  0.1060 -0.2427
27133W        W43394   5.933  17.834   0.231  0.0618 -0.0733  0.1997
27134W        W43395  14.977   7.371   0.417 -0.3130 -0.2393  0.3056
27135W        W43396  16.542  11.440   1.533  0.0049  0.2575  0.0407
27136W        W43397  13.036   2.726  11.706  0.0354  0.0704  0.2050
27137W        W43398  19.294   3.533  11.389  0.3151 -0.3194  0.2014
27138W        W43399  19.008   5.915   3.960  0.0888  0.1118 -0.0002
27139W        W43400   2.518   0.799   2.024 -0.3196  0.0481  0.1620
27140W        W43401  14.553   7.842  14.543 -0.3479 -0.0542  0.3742
27141W        W43402   4.550  18.056  10.790 -0.0563 -0.0100 -0.2597
27142W        W43403  17.257  12.055   4.547  0.0392 -0.2826  0.0025
27143W        W43404   5.528   0.907  12.882  0.0434 -0.4740 -0.4657
27144W        W43405   4.223   8.288  11.453 -0.0575  0.1510  0.0947
27145W        W43406   8.843   7.267   3.058  0.0171  0.2587 -0.2781
27146W        W43407  15.599   7.799  14.464 -0.0588  0.2131 -0.0120
27147W        W43408  17.814  16.794  11.644  0.2760  0.0203  0.2990
27148W        W43409   6.625   3.636  10.230  0.1155  0.0440 -0.1299
27149W        W43410   5.721  16.865  11.419 -0.0646  0.1429  0.5229
27150W        W43411   3.144   1.845   4.965  0.1031  0.0817 -0.0574
27151W        W43412  12.319   3.205  12.565 -0.2256 -0.0199  0.2357
27152W        W43413  10.297  14.754  12.794  0.3178 -0.3885 -0.1110
27153W        W43414  16.954  13.981   0.964 -0.3238 -0.1389 -0.1072
27154W        W43415   8.810  14.122   9.899 -0.0065  0.2977 -0.3326
27155W        W43416  14.257  14.627   0.621 -0.0675  0.2238 -0.2579
27156W        W43417   5.208   2.368  11.951  0.0511 -0.3878  0.0628
27157W        W43418  18.955  13.116   1.553  0.0933 -0.0421  0.2113
27158W        W43419  13.766   3.838   4.038 -0.3403 -0.1654  0.2742
27159W        W43420   6.787   2.340   3.780 -0.2383 -0.2778  0.0189
27160W        W43421   1.983   5.095  12.182  0.5594  0.2955 -0.2213
27161W        W43422   2.465   2.795  11.161  0.4027 -0.1181  0.1586
27162W        W43423  13.934  11.376   0.065  0.0781  0.2694  0.4401
27163W        W43424   2.024  11.709   1.897 -0.1210 -0.0313  0.0603
27164W        W43425  17.630  15.310   0.020 -0.3314 -0.0168 -0.0333
27165W        W43426   8.739   4.208   2.477  0.4128 -0.1635 -0.2248
27166W        W43427  16.700   4.316  14.311 -0.0596  0.2894  0.0498
27167W        W43428   0.729  15.522   3.624 -0.0785  0.0254 -0.1957
27168W        W43429   0.872   1.072  11.454 -0.2234 -0.1092 -0.3644
27169W        W43430   2.900  14.438  12.018 -0.0085 -0.0637  0.2234
27170W        W43431  18.649  19.294   3.937 -0.1609  0.0575  0.0218
27171W        W43432  12.500   8.892  11.127 -0.1425 -0.1164 -0.0449
27172W        W43433   2.429   7.097   3.105  0.1255  0.1086 -0.0974
27173W        W43434  15.484  13.089  11.584  0.0899  0.1822  0.1225
27174W        W43435  11.265  19.256   1.184 -0.1333  0.0250 -0.0686
27175W        W43436  19.188   4.014   4.048 -0.0660  0.1714 -0.0362
27176W        W43437   8.506   0.216  11.621 -0.0311 -0.0375  0.4833
27177W        W43438   3.126   2.381   4.661 -0.0619 -0.0547 -0.3373
27178W        W43439   9.583  13.414   1.143 -0.1581 -0.0676 -0.1025
27179W        W43440   3.538  16.811   4.723 -0.3273  0.1713  0.2855
27180W        W43441  11.320  12.439   2.589 -0.1369  0.0324 -0.1697
27181W        W43442   5.899  17.782  14.446 -0.1699  0.0470 -0.3030
27182W        W43443   7.246   6.305   4.118  0.0439  0.1926  0.1687
27183W        W43444   2.939  17.420   4.500  0.2474 -0.1095  0.1576
27184W        W43445  10.287  10.879   4.832  0.0197  0.2087  0.0548
27185W        W43446  16.910   3.158  13.593 -0.1857 -0.0883 -0.0059
27186W        W43447   4.438  11.327  11.959  0.1635 -0.1604  0.1027
27187W        W43448   3.434   0.930   2.313  0.1109 -0.0923 -0.0306
27188W        W43449  17.589  19.072   4.592 -0.0783 -0.0375 -0.1352
27189W        W43450  16.061  17.685  10.303  0.1565  0.2544 -0.2163
27190W        W43451   4.367  16.415   0.650  0.0461  0.0300  0.2972
27191W        W43452  16.452  19.070  11.343  0.1441 -0.0974 -0.1751
27192W        W43453   8.744  12.636   1.783 -0.2471  0.0929  0.1968
27193W        W43454   0.270   7.751  14.371 -0.5795 -0.0564 -0.1598
27194W        W43455   7.379  13.239  12.019 -0.0613  0.0809 -0.0420
27195W        W43456   5.905  13.411  13.673 -0.1160 -0.1833  0.1138
27196W        W43457  18.715  17.276  13.392 -0.1593 -0.2525 -0.0359
27197W        W43458  11.069   7.366  11.831  0.3659 -0.1401 -0.4328
27198W        W43459   3.169  17.307  13.546  0.0290  0.1805 -0.1681
27199W        W43460   8.066  18.798   2.966  0.1257  0.0798  0.0637
27200W        W43461  12.250  10.281  11.077 -0.1463  0.1668  0.2375
27201W        W43462   4.920   1.996   1.528 -0.1092  0.0922  0.2869
27202W        W43463   2.006   8.012  11.889 -0.1690 -0.2947 -0.4295
27203W        W43464   3.577   8.086   4.414 -0.1559 -0.1662  0.0724
27204W        W43465  15.202  14.745   4.604  0.0510 -0.0702 -0.2415
27205W        W43466  12.107   8.146  10.250 -0.0472  0.2404 -0.1068
27206W        W43467   9.259  18.127  14.677 -0.0378  0.1677  0.0366
27207W        W43468  11.623  15.297   4.473 -0.3105  0.3066 -0.0799
27208W        W43469   6.726  17.443   4.539 -0.2264  0.0183  0.0141
27209W        W43470   7.219   3.281   1.954 -0.1063 -0.0218 -0.4668
27210W        W43471  13.437  15.327   4.632  0.2785  0.2055 -0.1178
27211W        W43472  13.333   5.654   4.267  0.1246 -0.4130  0.2480
27212W        W43473  11.886   5.423   4.286 -0.4327  0.0266 -0.1206
27213W        W43474  15.472  17.923   3.182  0.3288  0.0150  0.0172
27214W        W43475   8.124   2.387   3.766 -0.0063 -0.2740 -0.0112
27215W        W43476  17.571   0.296  11.534 -0.1877 -0.0491  0.3131
27216W        W43477  10.082  13.189  11.172 -0.1014  0.0208  0.5560
27217W        W43478   8.484   5.014   2.840  0.1707  0.0706  0.0308
27218W        W43479   4.711   5.836  14.032 -0.0719  0.3785 -0.1208
27219W        W43480  13.049   8.151  14.250 -0.2542  0.2550  0.2899
27220W        W43481  12.689  15.821  12.169 -0.2263  0.0119  0.2267
27221W        W43482  18.062  15.973  14.336 -0.1919  0.0750 -0.1191
27222W        W43483   4.414  15.063  10.615  0.1190 -0.1593  0.3374
27223W        W43484   5.523   0.953  11.703  0.0387 -0.2542  0.0964
27224W        W43485   8.481  15.140  11.311  0.1298 -0.0823 -0.4423
27225W        W43486   0.740  10.171   0.435 -0.1124  0.2867  0.4126
27226W        W43487  13.930   3.224  10.563  0.4519  0.5262  0.2138
27227W        W43488   7.275  10.485  12.074 -0.4616 -0.0380  0.2113
27228W        W43489  14.270   4.383  12.371 -0.3380 -0.1132  0.0438
27229W        W43490   8.200   8.783   0.253 -0.1845  0.2466  0.1539
27230W        W43491  15.789   9.888   2.279 -0.1359  0.3405 -0.3466
27231W        W43492  13.594  13.796  12.695  0.0422  0.1181  0.3972
27232W        W43493  11.560  10.033   1.810  0.0280 -0.2139 -0.2258
27233W        W43494   9.961   5.457   0.514  0.0148  0.1239  0.0906
27234W        W43495   0.574   8.826  12.606 -0.1479 -0.3045 -0.0531
27235W        W43496   7.449   1.742   9.913  0.0376  0.1779  0.0821
27236W        W43497  17.793  11.377  10.734 -0.1744  0.2387 -0.2834
27237W        W43498   9.676   2.697   3.707 -0.0656  0.0623  0.1362
27238W        W43499   5.991  18.996   3.589  0.1853  0.0188 -0.0071
27239W        W43500   4.693  15.667  12.374  0.0303  0.0544  0.1283
27240W        W43501   7.953   8.934  11.424  0.1710 -0.1659 -0.0253
27241W        W43502  10.040  15.618   2.441  0.0602 -0.1871  0.1973
27242W        W43503  10.514  12.072   0.903 -0.1026 -0.0698 -0.1347
27243W        W43504  16.273   2.703  12.093 -0.2043 -0.1016  0.1502
27244W        W43505  10.748  15.612   3.216  0.4708  0.0814  0.1589
27245W        W43506   6.093   7.938  11.308  0.2870 -0.1144  0.1203
27246W        W43507   1.649  16.914   5.265  0.0740  0.0450  0.1430
27247W        W43508  15.275   0.453  14.664 -0.0887 -0.1114  0.2177
27248W        W43509  11.286  13.857   1.091 -0.0512 -0.0368  0.0433
27249W        W43510   8.815  15.575   4.194 -0.0920 -0.2229  0.1313
27250W        W43511   7.252  13.846   1.754 -0.1435  0.0622  0.0086
27251W        W43512   3.627   9.151  13.846 -0.2202  0.1753 -0.0508
27252W        W43513  15.471  14.246  11.519 -0.0711 -0.2096  0.2240
27253W        W43514  12.522   9.354   2.353  0.2174 -0.0580  0.0085
27254W        W43515  13.517  15.117   3.394 -0.3270  0.2003 -0.1011
27255W        W43516   6.992   0.752  13.196 -0.0555 -0.2843  0.1950
27256W        W43517  18.965  18.673   2.835 -0.1190 -0.0163  0.3435
27257W        W43518   1.993  13.036   5.165 -0.6515  0.1511 -0.0402
27258W        W43519  14.070  17.460  10.511 -0.1005 -0.1186 -0.0730
27259W        W43520  19.183   6.056  11.754  0.0176  0.0908  0.0536
27260W        W43521  10.316  13.084   3.377  0.2219  0.2538 -0.0718
27261W        W43522   9.912   1.867   2.939 -0.3224 -0.2859  0.0521
27262W        W43523   8.860   5.876  13.214  0.0795 -0.0173 -0.1077
27263W        W43524   5.990  11.143   2.248  0.1756  0.2772  0.1938
27264W        W43525  17.829   3.055  13.150 -0.2095  0.2560  0.0728
27265W        W43526  18.452   5.913   4.215  0.1190  0.2876  0.0220
27266W        W43527  12.521   8.168   0.405  0.0356  0.1632 -0.0481
27267W        W43528   7.581   9.670  13.803  0.0816 -0.0205 -0.1484
27268W        W43529   0.523   1.193   0.114 -0.1125 -0.1489 -0.2043
27269W        W43530   0.338  18.158  12.465 -0.0284  0.2821  0.2980
27270W        W43531   3.006   3.956  10.757 -0.0895  0.3241  0.1309
27271W        W43532  10.461  17.654  13.072  0.0881  0.0878 -0.1536
27272W        W43533   4.972  16.590  13.250  0.0178 -0.1123 -0.0510
27273W        W43534   3.365   1.142   3.871  0.0795  0.0044 -0.1724
27274W        W43535   7.835   1.522  13.431 -0.3649  0.0517 -0.0177
27275W        W43536  12.634   0.245   5.656 -0.1514 -0.3884  0.2619
27276W        W43537  18.431  18.910   3.656  0.4204  0.0615  0.0696
27277W        W43538   5.761   9.213  13.424  0.0257 -0.0703  0.0658
27278W        W43539   4.888   1.423  13.735 -0.4716  0.1975 -0.1152
27279W        W43540  17.647  12.778  14.476 -0.2793  0.0892 -0.3580
27280W        W43541   6.617  14.211  14.651 -0.4300  0.1477 -0.1494
27281W        W43542  18.098   8.261   1.724  0.1672  0.2447 -0.1212
27282W        W43543   8.614   5.445  14.107  0.0675  0.1468 -0.0606
27283W        W43544  13.575  17.478   4.384  0.1166  0.0543 -0.0705
27284W        W43545  12.497  16.092   0.089 -0.2583 -0.2090  0.0630
27285W        W43546  11.281   8.144   2.066 -0.1052 -0.0859  0.1490
27286W        W43547   2.629   6.240  13.094 -0.0220 -0.1917  0.0760
27287W        W43548  12.205   0.800   3.909  0.3915  0.4346 -0.0354
27288W        W43549   1.663   5.002  14.810  0.1892  0.2078  0.2866
27289W        W43550  15.822   5.993  11.283  0.3478  0.3053  0.0291
27290W        W43551   4.394  12.782   0.789  0.1038 -0.0713 -0.0654
27291W        W43552   5.263  17.010   0.699 -0.0459 -0.2522  0.1477
27292W        W43553   1.324   7.360   0.017 -0.3282  0.1760  0.2428
27293W        W43554  12.207   6.608  12.486  0.2772  0.0570 -0.1401
27294W        W43555  11.294   2.819   0.558  0.0732 -0.0941 -0.2408
27295W        W43556   6.616   2.982  12.987  0.1812 -0.2241  0.0310
27296W        W43557   6.387   9.312   3.228  0.0096 -0.1464 -0.2050
27297W        W43558   2.005  17.749   1.167 -0.2166  0.3714  0.0673
27298W        W43559   5.645  12.680   2.299 -0.0626  0.2120  0.0571
27299W        W43560  18.031   6.589   1.772 -0.1142 -0.0860  0.0525
27300W        W43561   6.331   3.015   2.378 -0.0893 -0.4164  0.0527
27301W        W43562   2.614   2.728   0.675  0.0857 -0.0353  0.2387
27302W        W43563  12.478  13.362   3.547  0.0575 -0.1874 -0.0959
27303W        W43564  18.911  19.097   2.606 -0.1517  0.2247  0.0711
27304W        W43565   3.154  16.824   1.264  0.0409  0.2086 -0.0431
27305W        W43566   7.904  18.485   3.814  0.0567  0.1837  0.1158
27306W        W43567   3.429  10.427  13.222 -0.0535 -0.1261 -0.1293
27307W        W43568  17.452  10.650   0.985  0.2056  0.2413 -0.0215
27308W        W43569   3.865  15.785  13.380  0.2488  0.2845  0.4335
27309W        W43570   3.505   8.051  10.751  0.0965  0.0861  0.0657
27310W        W43571  16.413  18.332  14.217 -0.0196 -0.2349  0.1316
27311W        W43572  10.712  17.062   5.608 -0.0133 -0.3140 -0.3934
27312W        W43573  19.099   8.021  11.811  0.1321 -0.0585  0.1113
27313W        W43574   4.394  15.727  10.112  0.1748  0.0191  0.0926
27314W        W43575  18.086   5.546   9.700 -0.1501 -0.2208  0.0639
27315W        W43576   5.496  18.061   1.181  0.0899  0.1648  0.3445
27316W        W43577  15.415   9.477   4.529 -0.0708  0.1691  0.0869
27317W        W43578   0.747  11.902  14.236  0.0360 -0.0251 -0.1377
27318W        W43579   7.768   3.589  10.121 -0.0801  0.1394 -0.0145
27319W        W43580   5.902  15.312   2.145  0.0555 -0.2988 -0.0225
27320W        W43581  10.113  16.813   1.943 -0.5714 -0.1183  0.2528
27321W        W43582  15.771   8.713   1.701  0.0123 -0.0548 -0.1265
27322W        W43583   8.017  16.410   9.191 -0.1284  0.0724 -0.0439
27323W        W43584   9.831  14.904  12.937  0.1621 -0.0420  0.1219
27324W        W43585   0.148  15.372   5.078 -0.1028 -0.0729 -0.0134
27325W        W43586  16.667  14.596  11.258 -0.0914 -0.2135 -0.4313
27326W        W43587  14.238  15.942   3.821  0.2114  0.1214  0.1722
27327W        W43588   5.765   8.431  10.682  0.2688  0.2920 -0.0845
27328W        W43589  11.453   0.249  12.360  0.0104 -0.1293 -0.2820
27329W        W43590  12.204  11.198  11.181  0.2724  0.0230  0.0918
27330W        W43591  11.411  13.903  11.265 -0.1378  0.1557  0.0337
27331W        W43592  11.327   9.595   4.355 -0.1181  0.1139  0.1117
27332W        W43593  17.957   8.156   3.031  0.2330 -0.0078 -0.2142
27333W        W43594   4.892  15.063   5.172  0.2697 -0.0283 -0.0334
27334W        W43595  17.628  12.277  13.513 -0.1792  0.3005  0.1555
27335W        W43596   0.501   4.503   4.171  0.1071 -0.2784  0.1073
27336W        W43597  13.303   5.418   0.022 -0.2576 -0.0045 -0.0555
27337W        W43598   5.742   7.146  14.465  0.0600  0.2037  0.2033
27338W        W43599  18.580  17.511   5.301  0.0800  0.0573  0.3054
27339W        W43600   1.473   6.345   0.999 -0.0991 -0.2234  0.2421
27340W        W43601  18.090   2.269  13.364 -0.0891 -0.0925  0.4894
27341W        W43602  11.375  18.471   3.590 -0.2418  0.1983  0.0218
27342W        W43603   0.145  15.632  12.360 -0.2389 -0.2555  0.2810
27343W        W43604   7.426   1.092   2.018 -0.1019 -0.1711  0.1689
27344W        W43605   6.659   7.586  14.303 -0.2199  0.0977 -0.1946
27345W        W43606  14.684  13.594   5.286 -0.2569  0.0836  0.0619
27346W        W43607  15.036   6.097  10.966 -0.2591  0.1015  0.3948
27347W        W43608  13.982  14.414  11.082 -0.0877 -0.2032 -0.0986
27348W        W43609   9.688   8.122  11.971 -0.0589  0.2094  0.4102
27349W        W43610   7.855   9.221  13.742 -0.3063 -0.4575  0.0401
27350W        W43611  19.261  13.421   2.412  0.3925 -0.1931  0.1497
27351W        W43612  13.165   9.472  11.526 -0.2498 -0.3493  0.1729
27352W        W43613   7.176   0.183   0.574  0.0025 -0.0608 -0.1775
27353W        W43614  10.799   5.807  12.726  0.1443 -0.4188  0.1802
27354W        W43615  18.695  19.183   2.179  0.1324 -0.2405 -0.2421
27355W        W43616   1.723  11.545   2.941 -0.3687 -0.2468 -0.1450
27356W        W43617   4.536  11.938  14.565 -0.0459  0.2556 -0.0683
27357W        W43618  18.146   4.947  14.488  0.0293  0.2469  0.2210
27358W        W43619  12.293   2.408   1.732 -0.2873 -0.0331  0.0195
27359W        W43620   9.305   2.306   1.676  0.0290 -0.0827  0.2080
27360W        W43621  18.277   8.110   2.631 -0.0387  0.3043 -0.0638
27361W        W43622  17.370   7.461   3.264  0.0219 -0.2174 -0.1160
27362W        W43623   3.810   0.054   1.818 -0.1111  0.2359  0.0860
27363W        W43624   0.905  14.878  14.242  0.1304  0.0467  0.3953
27364W        W43625  12.555  11.949   6.302  0.0477  0.0929 -0.1421
27365W        W43626   8.329   8.030   1.615  0.0834  0.2273 -0.2669
27366W        W43627  14.601  17.780   4.943 -0.0053  0.2838  0.1577
27367W        W43628  15.520   0.157   2.188  0.2424 -0.0170  0.0900
27368W        W43629   2.097  19.270  14.310  0.0558  0.3372 -0.1443
27369W        W43630  12.464  10.860   1.926  0.0684 -0.0053  0.0978
27370W        W43631   4.929   1.827  14.062 -0.2397  0.1529  0.2678
27371W        W43632   7.853  18.221  13.497 -0.1348 -0.0548 -0.2162
27372W        W43633  15.880  10.028  14.072  0.3441  0.0304 -0.0666
27373W        W43634  17.196   1.875  13.163  0.0277  0.0726 -0.1115
27374W        W43635  14.385  10.187  10.601 -0.1519 -0.0385  0.3573
27375W        W43636  19.434   8.647   3.694  0.1110 -0.3811  0.3381
27376W        W43637  14.367  14.092  10.984 -0.0739 -0.2124 -0.0754
27377W        W43638   7.791  11.119   0.614 -0.2910 -0.3298 -0.0361
27378W        W43639  19.015   4.809  11.249 -0.1254  0.2083  0.2140
27379W        W43640  18.492  17.047   4.020 -0.1195  0.0111  0.3212
27380W        W43641  11.572   4.614  14.542 -0.0927  0.0284  0.1221
27381W        W43642   0.319   6.417   0.013  0.2495  0.2278  0.0031
27382W        W43643   0.941  12.028  12.287 -0.1616 -0.0591 -0.2454
27383W        W43644   4.172  15.759  14.073 -0.2282  0.1989  0.0197
27384W        W43645  10.536  19.006   3.307  0.1011 -0.0033 -0.0429
27385W        W43646  13.190  12.894   5.253  0.0352  0.0799 -0.0248
27386W        W43647  18.555  11.942  14.119  0.0710  0.3704  0.2355
27387W        W43648   4.832   6.649  11.038  0.1824  0.2295 -0.2096
27388W        W43649   7.049  18.027   3.710 -0.0434 -0.2912 -0.2222
27389W        W43650  18.361  13.351   2.656 -0.2286  0.0363 -0.1065
27390W        W43651  13.680   6.257  13.333  0.2172 -0.1099  0.1033
27391W        W43652  10.393   8.630   0.305  0.4367  0.2174 -0.1214
27392W        W43653   5.098  14.076   4.266 -0.1713  0.6095 -0.1945
27393W        W43654   1.559   3.063  14.215  0.1282 -0.1326  0.0165
27394W        W43655  11.367  19.249  13.110  0.0053  0.0088  0.2579
27395W        W43656  13.341   7.669   4.876 -0.3583  0.1449  0.3595
27396W        W43657  13.898  12.910   1.466  0.1336 -0.0630  0.0406
27397W        W43658  12.525   7.994   6.024  0.1192  0.1882  0.1230
27398W        W43659   5.194   1.124   5.021  0.0381 -0.1227  0.0995
27399W        W43660  15.511  16.811   6.024  0.1269  0.3522  0.1913
27400W        W43661  15.706  18.341   2.967  0.0390 -0.1095  0.5396
27401W        W43662  13.914   4.898   0.817 -0.0768 -0.2360 -0.2099
27402W        W43663  11.166   2.634   9.079 -0.1342 -0.4315 -0.1402
27403W        W43664  18.542   6.167  13.574  0.0989  0.2500 -0.0805
27404W        W43665   0.336  18.525  12.055  0.3661 -0.0837 -0.2794
27405W        W43666  10.764  17.508   5.854  0.0126 -0.1288  0.1643
27406W        W43667  14.223   3.119  13.323  0.1629  0.0196 -0.0874
27407W        W43668   4.509  16.901   0.110 -0.0775 -0.1824 -0.0912
27408W        W43669   6.885  15.095   1.481  0.0455 -0.2257 -0.3128
27409W        W43670  14.233   8.666   2.700  0.2723  0.0645  0.0470
27410W        W43671   8.577  12.152   3.584 -0.3003  0.2251  0.2425
27411W        W43672   7.971  17.494  10.790 -0.0559 -0.0100 -0.2781
27412W        W43673   3.153   4.204  11.388  0.4032  0.0160  0.3674
27413W        W43674   7.855   5.262  10.915 -0.4030 -0.1682 -0.2233
27414W        W43675   0.374   5.038   1.561  0.0866 -0.0418  0.0476
27415W        W43676   2.679   6.919   2.637 -0.2143 -0.4770 -0.3485
27416W        W43677   0.082   5.988   3.282 -0.0285 -0.0450 -0.1378
27417W        W43678   1.824   8.227  12.338 -0.1991 -0.2223 -0.1005
27418W        W43679   0.793   0.323   9.458 -0.2712 -0.1291 -0.0118
27419W        W43680  11.449   6.060   0.513 -0.1441  0.0215  0.1846
27420W        W43681   3.376  12.736   5.976  0.0467  0.0425  0.2747
27421W        W43682  14.135   3.269   2.344  0.3648 -0.2113 -0.0445
27422W        W43683  11.407   5.204   2.071 -0.0584  0.0413  0.2438
27423W        W43684  18.099   1.794   3.077 -0.2943 -0.2292  0.2874
27424W        W43685   9.276  19.398  12.222 -0.3120 -0.3573 -0.1639
27425W        W43686   9.680   3.683   1.066  0.0634  0.6100 -0.0073
27426W        W43687  18.690   7.578  11.942 -0.1867  0.0736  0.0921
27427W        W43688   2.200   6.605   1.224 -0.3022 -0.1415  0.0693
27428W        W43689   5.371  16.707   5.429 -0.3675  0.1337 -0.1216
27429W        W43690  18.484   7.610   3.769  0.0712  0.0342  0.1942
27430W        W43691  10.027  15.113   2.626 -0.1527 -0.0111  0.0786
27431W        W43692  14.126   6.389  11.533  0.1106  0.1508  0.1184
27432W        W43693   8.064  18.228   2.171 -0.0481 -0.1392  0.0503
27433W        W43694  19.143   7.889   4.886 -0.1086  0.3821 -0.0409
27434W        W43695   7.496   7.565   3.638 -0.3489  0.0798  0.1254
27435W        W43696   7.767   4.369  14.568 -0.3323  0.0977  0.2085
27436W        W43697  11.938   8.033   0.863  0.1394 -0.0232 -0.0975
27437W        W43698   2.757   2.169  10.991  0.0484  0.1628  0.0155
27438W        W43699   3.462   0.927   0.856 -0.1126  0.1735  0.0786
27439W        W43700   0.585   9.046   9.333  0.3492  0.0788  0.3479
27440W        W43701  18.373  18.061  14.185 -0.2692  0.1925  0.1739
27441W        W43702   6.940  10.429  14.431 -0.1327 -0.0255  0.0227
27442W        W43703   5.432  10.133   0.961  0.1312  0.2201  0.1051
27443W        W43704  17.173  11.991  13.656  0.1295  0.2249  0.2180
27444W        W43705   2.523   3.898   5.101 -0.2912 -0.0616 -0.0976
27445W        W43706   9.657  11.928  11.657  0.1357  0.2822  0.0630
27446W        W43707  18.628   3.281   4.970 -0.2736 -0.0678 -0.0982
27447W        W43708   2.216   2.635  14.590  0.0047 -0.2345 -0.1029
27448W        W43709   8.088  19.315   2.291 -0.0513  0.1097 -0.1272
27449W        W43710  12.781  13.138   4.149  0.1049 -0.1873 -0.2528
27450W        W43711  12.107  16.813   0.470 -0.3522  0.0639  0.0031
27451W        W43712  16.289   7.102  12.077 -0.0845  0.0031 -0.0293
27452W        W43713   3.279  10.292   1.891  0.2343 -0.1283  0.0237
27453W        W43714  13.639   4.726   0.066 -0.2083  0.0318 -0.3653
27454W        W43715  16.353   0.869  14.193  0.0632  0.1064 -0.0267
27455W        W43716   0.019  15.294  10.953 -0.3529 -0.2416 -0.0122
27456W        W43717  14.272   3.881   2.114 -0.1157  0.1138 -0.0748
27457W        W43718   4.231  10.778   3.835  0.1907  0.1388 -0.2594
27458W        W43719  15.265   6.582  12.334 -0.0616  0.2011  0.0417
27459W        W43720  10.126   3.512  13.360 -0.1765  0.0113  0.3236
27460W        W43721   8.526  13.110  12.864  0.0402 -0.0398  0.1091
27461W        W43722  10.169  10.208   5.268  0.1152  0.0322  0.3602
27462W        W43723   9.958   0.755   4.871 -0.1816 -0.2009 -0.4114
27463W        W43724   9.859  17.117  10.732  0.0698 -0.0158  0.0610
27464W        W43725  13.344   1.966  13.058 -0.0735 -0.1170  0.1747
27465W        W43726  19.158   3.171  10.617 -0.2537 -0.1118 -0.0780
27466W        W43727  13.230  14.829   0.269 -0.0464  0.2085  0.0969
27467W        W43728  13.881  15.638   2.291 -0.1944  0.0124  0.0806
27468W        W43729   3.345   3.924  11.833  0.1431  0.1781  0.2201
27469W        W43730   0.718   5.067  11.694  0.0546 -0.1915 -0.0841
27470W        W43731  13.084   4.141  13.151 -0.0620  0.1990  0.0383
27471W        W43732   9.823   0.505  13.697 -0.1645  0.0199 -0.2681
27472W        W43733   0.833   2.245  10.089  0.1450 -0.1997 -0.0216
27473W        W43734   4.443   8.360   3.733  0.2800  0.1409  0.1306
27474W        W43735  12.473  18.494   2.166 -0.0359  0.2748  0.1617
27475W        W43736  14.884   0.973  12.761  0.1190 -0.2341 -0.0263
27476W        W43737  11.644  17.309  14.523  0.0560 -0.0535  0.1757
27477W        W43738  12.473  18.115   2.482  0.3401  0.0186  0.2464
27478W        W43739  13.919   5.990  14.208 -0.1383 -0.0721 -0.0342
27479W        W43740  11.563   9.647   2.635 -0.0094 -0.0607 -0.2095
27480W        W43741  18.782  12.031   0.895  0.3120  0.0428  0.1469
27481W        W43742  18.988   1.310  12.886  0.1160 -0.1476  0.0674
27482W        W43743  10.398   9.813   9.131  0.1468 -0.0227  0.0662
27483W        W43744  11.113  18.253   3.992  0.3872  0.1013 -0.0226
27484W        W43745   7.993   6.332   3.540  0.0983  0.0732  0.2279
27485W        W43746   5.201   2.003  10.338  0.0059 -0.0227 -0.2735
27486W        W43747   9.955  18.727   4.297  0.0495  0.0656  0.3205
27487W        W43748  18.501  10.181   3.390 -0.0071 -0.3251  0.0416
27488W        W43749  18.630   7.021   2.796 -0.2757  0.3321  0.0663
27489W        W43750  10.175   1.317  13.374  0.0320 -0.1118 -0.2898
27490W        W43751  19.109  17.006   4.907 -0.1986 -0.1302 -0.0124
27491W        W43752   8.840  16.907  10.621 -0.2174  0.1876  0.1101
27492W        W43753  11.974   9.458   5.782 -0.3744  0.0064 -0.1260
27493W        W43754   8.947   4.999   1.956  0.2132  0.0720  0.1772
27494W        W43755  14.066   2.732   2.182  0.0918 -0.1585 -0.0147
27495W        W43756  15.499   5.188   3.927 -0.1382 -0.1266  0.1154
27496W        W43757   5.520  11.868  12.202  0.1799 -0.1712 -0.1188
27497W        W43758   1.828   3.255  13.362 -0.0311 -0.1291 -0.0737
27498W        W43759   7.527   8.519  12.649  0.0455  0.3246 -0.0120
27499W        W43760  13.349  16.880   2.747  0.1252 -0.0875 -0.0059
27500W        W43761  15.408  13.989  11.961 -0.1888 -0.0632  0.0239
27501W        W43762   1.122   6.434   2.763 -0.2558  0.2545  0.1810
27502W        W43763  12.355   9.774  14.371 -0.2853  0.2258 -0.0078
27503W        W43764  10.047  17.442   5.903 -0.0998  0.3197 -0.2223
27504W        W43765   0.490   9.841   1.050  0.1100 -0.1383  0.0002
27505W        W43766  17.144   5.499   2.374  0.0551 -0.0248  0.2610
27506W        W43767  16.459   4.267   3.307  0.0910  0.0800  0.0522
27507W        W43768  10.756  10.772   4.705 -0.1350 -0.0352  0.0297
27508W        W43769   2.203   0.467   3.142 -0.2389 -0.2300  0.0222
27509W        W43770  16.235  12.189   5.737 -0.0534 -0.0604  0.1866
27510W        W43771  15.631   1.485  12.183 -0.4251 -0.0843  0.1730
27511W        W43772  17.779  15.609   2.895  0.2308 -0.0610  0.3691
27512W        W43773  10.326   7.103   2.877  0.0440  0.1258 -0.0298
27513W        W43774   1.037   8.818   2.268 -0.2749 -0.2528 -0.0169
27514W        W43775   4.241   1.393   0.353  0.1230  0.0545 -0.1705
27515W        W43776  11.293   2.105  14.471 -0.1367 -0.3329 -0.3167
27516W        W43777  17.731   4.771   4.960  0.0079  0.0984 -0.0530
27517W        W43778  14.561   8.186  12.638  0.0444  0.1757  0.4730
27518W        W43779  15.476  16.701  14.285  0.0237 -0.3664 -0.3957
27519W        W43780  16.576   4.574  10.332 -0.2592 -0.0264  0.2219
27520W        W43781   4.357   1.802  12.048 -0.0486 -0.1187 -0.1669
27521W        W43782   8.866  13.066   2.704  0.0162 -0.0542  0.0706
27522W        W43783  15.800  14.907  10.922 -0.1059 -0.2702  0.1475
27523W        W43784   6.207   8.887   5.260 -0.0381 -0.0591 -0.0606
27524W        W43785   1.056   1.289   3.693 -0.3510 -0.1166  0.3790
27525W        W43786  11.316  18.054  14.136  0.1463  0.2173  0.1976
27526W        W43787  15.185  15.622  11.113 -0.1510 -0.1996 -0.2970
27527W        W43788  15.972   1.509  13.135  0.0137 -0.0591  0.3080
27528W        W43789   4.626   2.165  10.987  0.0481  0.0341 -0.2208
27529W        W43790   5.317  19.435   5.409  0.2044 -0.1083 -0.1507
27530W        W43791   7.207   0.632   1.995 -0.2321  0.0683  0.1479
27531W        W43792  17.727   4.275  13.544 -0.2422 -0.4766  0.1289
27532W        W43793  14.475   1.372  12.793 -0.0946 -0.1400  0.0838
27533W        W43794   3.274   1.730   2.005 -0.1890 -0.0819 -0.1570
27534W        W43795   7.610  13.381   0.370  0.1258  0.0903  0.2707
27535W        W43796   2.289  15.784   0.863  0.1660 -0.0627 -0.0039
27536W        W43797  16.195   0.675  12.995 -0.1678 -0.2386 -0.0953
27537W        W43798  14.252   4.497  12.881 -0.3203  0.1086  0.0311
27538W        W43799   3.807  18.627   8.922  0.0557 -0.0801 -0.2353
27539W        W43800   3.677   7.919  12.826 -0.2164 -0.0168  0.0538
27540W        W43801  15.280   2.442   4.258 -0.2567 -0.2623 -0.2729
27541W        W43802   2.423   5.773  10.733  0.1621  0.2948  0.1617
27542W        W43803   6.721  13.625  14.115 -0.1658  0.0106 -0.2127
27543W        W43804   3.718   8.185   1.184  0.2021  0.0407  0.2029
27544W        W43805  11.564  13.397  11.399  0.5565  0.2094 -0.0195
27545W        W43806  14.479  17.394   0.760 -0.1677 -0.1433 -0.0776
27546W        W43807  13.531   4.581  11.159  0.1650 -0.2773 -0.2326
27547W        W43808  10.731   0.934  14.431 -0.0946  0.1276 -0.0089
27548W        W43809   2.113  16.164   5.831 -0.1953  0.1213 -0.1200
27549W        W43810  12.391   8.758  14.325  0.0609 -0.1204  0.1664
27550W        W43811  13.318   1.209   5.477  0.0047  0.2987  0.1565
27551W        W43812   6.134  12.528  12.472 -0.1226  0.0061  0.2552
27552W        W43813  16.944   7.019  14.565  0.1449  0.0654 -0.2112
27553W        W43814  13.310   7.966   0.001  0.1678  0.1119 -0.0105
27554W        W43815   7.447  11.824   0.153 -0.1925  0.0676 -0.5581
27555W        W43816   0.604  10.409   4.554 -0.1266  0.1215  0.1533
27556W        W43817  18.529  13.695   5.794  0.0450 -0.1348  0.1514
27557W        W43818  12.399   7.394   1.995  0.0548  0.1278 -0.2339
27558W        W43819  12.521  16.536   4.710  0.1030  0.0567 -0.0699
27559W        W43820  15.887   1.743  13.612 -0.3138 -0.1117  0.2500
27560W        W43821   7.773  17.089  12.855  0.0974 -0.1456  0.0586
27561W        W43822  14.803  10.774   2.613  0.3946  0.0161 -0.2999
27562W        W43823   8.082   0.447   0.965  0.0034  0.4392 -0.1341
27563W        W43824  16.154   5.503  10.126  0.0511 -0.3490  0.1137
27564W        W43825  13.455   7.964   1.861 -0.1262 -0.4891 -0.0161
27565W        W43826  10.797   9.189  14.753 -0.2675 -0.1257  0.0810
27566W        W43827   1.338   4.033  12.317 -0.1110  0.3004 -0.1438
27567W        W43828   0.621  11.001   0.122  0.1573 -0.0097 -0.1978
27568W        W43829  18.278  15.659  12.034 -0.1410  0.3009  0.4332
27569W        W43830  15.351   7.575   5.459 -0.3262  0.1817  0.0260
27570W        W43831   7.903   7.490  12.433  0.0886 -0.2100 -0.0259
27571W        W43832  17.168   2.183   2.877 -0.0595 -0.0715  0.3745
27572W        W43833  12.296   5.233  14.427 -0.5284 -0.0466  0.1274
27573W        W43834   0.411   7.662   2.838  0.1973  0.0458 -0.1857
27574W        W43835  13.423  19.292   3.907 -0.5472 -0.2552 -0.2222
27575W        W43836   3.627  19.146  11.004  0.1893  0.1537 -0.1764
27576W        W43837   7.675   6.180  11.035 -0.1262  0.1361  0.1249
27577W        W43838   0.793   3.196   9.239  0.2372 -0.0031  0.1108
27578W        W43839  12.863  16.994  14.128 -0.2197  0.0740 -0.0970
27579W        W43840   4.278   9.506  10.846  0.2554  0.1769  0.3203
27580W        W43841   2.343  17.280  11.377 -0.0476 -0.1976  0.1364
27581W        W43842  17.683   9.895   0.161 -0.1809  0.1644 -0.3146
27582W        W43843   9.981  13.227  12.441  0.1946 -0.0518 -0.1258
27583W        W43844  11.348   1.957  11.392  0.2177 -0.1967 -0.2042
27584W        W43845   9.424   1.272   0.084 -0.0431 -0.1218 -0.1140
27585W        W43846  14.929  11.548  12.295  0.1385 -0.1021 -0.1135
27586W        W43847   5.701   3.278   2.984 -0.0070 -0.1846  0.0649
27587W        W43848   7.895  18.048  11.111  0.1039 -0.0998  0.0361
27588W        W43849   7.931  10.187   2.374 -0.0734 -0.2164  0.1736
27589W        W43850  14.394   7.020   5.142  0.2787 -0.1352 -0.0687
27590W        W43851  15.206  17.296   3.162  0.3003 -0.2187 -0.0547
27591W        W43852  12.096  15.129  12.788 -0.0976  0.0762  0.2527
27592W        W43853   9.531  13.438  14.238 -0.1214  0.3064  0.0762
27593W        W43854  11.870  18.633   3.486 -0.2913  0.2465  0.2011
27594W        W43855   9.024   4.043  12.538  0.2129  0.2832 -0.1389
27595W        W43856   6.082   2.672  10.454  0.1365 -0.1455  0.1276
27596W        W43857   1.359   1.622   4.101 -0.0124  0.0463  0.2039
27597W        W43858  13.578   3.025  13.769  0.1829  0.3007 -0.1029
27598W        W43859  16.968   7.529   0.624 -0.0064  0.2806 -0.2186
27599W        W43860  15.547   3.681  11.065  0.1011 -0.1943  0.0257
27600W        W43861   3.421   3.335  12.924  0.1756  0.1446 -0.0664
27601W        W43862  17.461   8.146   3.966  0.2779  0.0186  0.2524
27602W        W43863   8.976  14.051   0.511  0.1418  0.2192 -0.1763
27603W        W43864  15.888   2.268  12.727  0.1259  0.1570  0.1519
27604W        W43865   8.374   5.659   9.812  0.0406 -0.1534 -0.5065
27605W        W43866   9.224  17.993  13.339  0.0937  0.0730 -0.0070
27606W        W43867   0.485   7.558  11.883 -0.1279 -0.1199  0.3002
27607W        W43868   6.258   0.668  11.373 -0.2421  0.5061 -0.1577
27608W        W43869   7.030   8.429   3.081  0.1527  0.0928  0.2210
27609W        W43870  14.886  12.881  12.927  0.2215  0.1122 -0.2138
27610W        W43871  15.651  16.466   2.104  0.4325  0.2913 -0.1195
27611W        W43872  10.227  12.316   1.434  0.0817 -0.1042  0.1495
27612W        W43873   0.880  18.614   1.472  0.0807 -0.1733 -0.0699
27613W        W43874   4.450   9.073  14.583 -0.2228  0.2378  0.0500
27614W        W43875   9.970   9.364   3.657  0.2410  0.1892  0.0039
27615W        W43876   0.505  12.182  13.666 -0.0469 -0.2223  0.2316
27616W        W43877   7.916   5.732   9.564  0.1186 -0.3801  0.2168
27617W        W43878   1.952   6.502  10.544 -0.4292 -0.1069  0.2627
27618W        W43879   2.525  13.578   5.173 -0.0308  0.0782  0.0598
27619W        W43880  16.404   6.919   1.318 -0.0838  0.1328 -0.2220
27620W        W43881  18.998  11.682   4.457  0.1615 -0.0429  0.0767
27621W        W43882  13.444  11.206  10.809  0.1881  0.0734  0.3245
27622W        W43883  19.456   4.769  13.444 -0.0038  0.2871  0.0499
27623W        W43884   4.909  14.826   9.470  0.2247  0.1366  0.3186
27624W        W43885  11.780  15.070   5.164  0.1075  0.0823 -0.0609
27625W        W43886  16.611   1.553   4.278  0.0208  0.1866  0.3614
27626W        W43887  17.877   8.655  14.126  0.0022 -0.1507 -0.3076
27627W        W43888   8.295  12.692   2.220 -0.1765  0.0710  0.0221
27628W        W43889   9.149   3.063   9.988  0.0709 -0.0744 -0.0892
27629W        W43890   5.329  18.319   2.046 -0.1345 -0.1671 -0.1082
27630W        W43891   9.094   0.391  13.388 -0.0280  0.0423  0.3929
27631W        W43892  15.507   4.129   5.300 -0.2502 -0.2010  0.0685
27632W        W43893  12.070  10.660   2.148  0.0601 -0.2506  0.0307
27633W        W43894   4.029  10.648  12.191  0.0532  0.0122 -0.3053
27634W        W43895   3.355   8.725  12.459 -0.3618  0.0118 -0.1471
27635W        W43896   0.750   0.359  12.264  0.1133 -0.1095  0.0411
27636W        W43897   4.148   0.602  11.772  0.1507  0.4030 -0.0309
27637W        W43898  19.457   9.057   3.341  0.1403 -0.2402 -0.0063
27638W        W43899   2.714  11.494   2.314 -0.1801 -0.1475 -0.2869
27639W        W43900  10.591  18.569  13.481  0.2929  0.1360  0.1434
27640W        W43901   3.735   5.151   5.137 -0.0967  0.2231  0.2271
27641W        W43902  15.630   7.922   1.050 -0.1067  0.1606 -0.1027
27642W        W43903  11.649   9.321  13.779 -0.0558 -0.2309  0.0419
27643W        W43904   7.235  15.122  12.183 -0.2877 -0.0800 -0.2730
27644W        W43905  12.912   1.231  14.162 -0.0657 -0.0077  0.1231
27645W        W43906  16.383  13.696  10.862 -0.2155  0.0146  0.0251
27646W        W43907  11.050   5.210   3.299  0.1674  0.0544  0.0584
27647W        W43908   9.937   1.499   1.671  0.2464 -0.0850  0.0416
27648W        W43909  13.447  16.883   0.118 -0.0932  0.2001  0.0355
27649W        W43910   0.062   9.207  10.383  0.0061  0.0950  0.2166
27650W        W43911   1.682  12.562   4.174 -0.2035  0.0103  0.3695
27651W        W43912  17.756  15.427   4.820 -0.0972  0.0840  0.0568
27652W        W43913   8.249   6.220  13.851 -0.0950 -0.1060 -0.0752
27653W        W43914   0.216  18.316  11.623 -0.0923  0.0942  0.2444
27654W        W43915  11.310  17.500  13.132  0.0411 -0.0002  0.1600
27655W        W43916   5.887   3.759   2.990  0.0133  0.0505  0.1640
27656W        W43917  16.283  14.544   2.437  0.0145  0.3498 -0.3218
27657W        W43918   6.312   2.605   0.460 -0.0019  0.1764  0.0451
27658W        W43919   1.812  10.722  12.622  0.0536 -0.0195  0.2400
27659W        W43920   6.437   1.027   0.652  0.1315 -0.0810  0.1346
27660W        W43921   5.912  19.414   5.253 -0.1986 -0.0640 -0.0861
27661W        W43922  11.379   2.688  13.725  0.0339 -0.4314  0.1524
27662W        W43923   8.026   7.758  10.679  0.0983  0.2322  0.2142
27663W        W43924  16.988   5.082   3.137  0.1706 -0.2689  0.1252
27664W        W43925   5.141  16.286  11.369 -0.3018 -0.2821 -0.0618
27665W        W43926   4.113  18.329  11.005  0.4147 -0.2912  0.0420
27666W        W43927   7.950  15.386   2.839 -0.1016 -0.0356 -0.0973
27667W        W43928  17.944  12.999   3.754  0.0331  0.2546 -0.4592
27668W        W43929   8.142   9.311   2.780 -0.0603  0.2096  0.2562
27669W        W43930  13.000   0.778  14.474  0.0132  0.0928 -0.2006
27670W        W43931   2.409  14.473  14.794 -0.2071  0.2010  0.0084
27671W        W43932   8.582   9.349   0.397  0.4129 -0.4129  0.1666
27672W        W43933  19.441   9.702   0.255  0.0735  0.0162  0.0992
27673W        W43934   7.352   1.564   2.394 -0.1362  0.0185 -0.0805
27674W        W43935  16.189  14.625   0.661  0.0457 -0.0547  0.1585
27675W        W43936   6.695   1.128  14.027 -0.2108  0.0964  0.3197
27676W        W43937   6.269   1.718   9.694  0.0869  0.0072 -0.1249
27677W        W43938  17.760  11.030   2.182  0.0856  0.1206  0.2521
27678W        W43939   1.387   8.255  14.707  0.1776  0.2649  0.0077
27679W        W43940  11.615  17.353   0.804  0.2014  0.4225 -0.0659
27680W        W43941  18.657  14.284  11.894  0.1647 -0.1552 -0.0631
27681W        W43942  16.085   4.476  12.748  0.1176  0.0352 -0.2197
27682W        W43943  16.742  11.895  13.337  0.1124 -0.3585  0.0758
27683W        W43944  19.209   7.537  13.705 -0.1670  0.0321  0.5017
27684W        W43945  10.189  17.349   3.466 -0.0572 -0.0532  0.2153
27685W        W43946  18.595  16.651  11.142  0.1517  0.0014  0.3892
27686W        W43947   2.714  19.142  12.983  0.0090 -0.0184 -0.1153
27687W        W43948   7.558   5.162   0.372 -0.2537  0.2562  0.2473
27688W        W43949   5.011  10.179  12.644 -0.4350  0.0143 -0.0426
27689W        W43950  16.649   7.193   2.750 -0.3019 -0.2859 -0.0315
27690W        W43951  14.533   9.126  10.480 -0.1186  0.4732  0.0497
27691W        W43952   1.114  19.337   4.153  0.3989 -0.2004 -0.0615
27692W        W43953   5.013  13.731   1.990 -0.0803 -0.0591 -0.1306
27693W        W43954  11.283   6.175   2.497  0.0676  0.3623  0.2681
27694W        W43955  16.560   6.707  12.403  0.1079  0.2262 -0.3235
27695W        W43956   6.811  13.161   1.613  0.1441  0.0006 -0.0338
27696W        W43957   4.612  14.991   5.629  0.1210 -0.0519 -0.3783
27697W        W43958   5.203  11.515  11.959 -0.2402  0.0312 -0.1807
27698W        W43959  12.738   7.068  10.842 -0.6134  0.4941 -0.1558
27699W        W43960  14.853  15.247  12.158  0.1312 -0.0449 -0.0624
27700W        W43961   1.929  12.080   1.603 -0.1962 -0.0778  0.0675
27701W        W43962   7.558  13.736   4.257 -0.0547 -0.1900 -0.1520
27702W        W43963  11.168  18.320   4.767 -0.0018  0.1115  0.0109
27703W        W43964   2.504   1.753   2.011 -0.0797 -0.1434 -0.0206
27704W        W43965   8.310   5.013  13.256  0.1333  0.1879 -0.1699
27705W        W43966   1.476   7.063  10.712  0.2531  0.2109 -0.3230
27706W        W43967  18.128  14.077  10.860  0.0745  0.1499 -0.1126
27707W        W43968  19.420  16.015  11.514 -0.1722 -0.0690 -0.1841
27708W        W43969  14.756   0.875   4.886 -0.0799 -0.1504  0.0840
27709W        W43970  12.046   2.528   2.727  0.0193  0.0106 -0.0360
27710W        W43971   1.572   2.683  12.023  0.2801 -0.4397 -0.0390
27711W        W43972   4.284   1.817   3.638  0.1941  0.0532 -0.0590
27712W        W43973  19.407  17.060   1.542  0.2099  0.2282  0.0005
27713W        W43974  15.285   1.091   2.439  0.4323  0.1274 -0.0448
27714W        W43975   0.868  15.109  13.798 -0.3522  0.1017  0.0722
27715W        W43976  10.650   3.777  11.622 -0.2809 -0.1624 -0.1798
27716W        W43977   3.041  15.881  13.163  0.1981  0.1814  0.1415
27717W        W43978   4.561   8.921   3.977  0.2947  0.0620  0.2558
27718W        W43979  13.375   9.854  12.446 -0.1626 -0.1839  0.1486
27719W        W43980   2.626  12.583  13.022  0.0458  0.3101  0.1518
27720W        W43981   0.980   2.095   2.060 -0.1995  0.0721  0.1557
27721W        W43982   1.200  18.280  13.132 -0.0476 -0.1400 -0.0980
27722W        W43983   7.229  13.724   3.113 -0.1489 -0.2485  0.0131
27723W        W43984   2.163   0.413   0.150 -0.0288  0.0773 -0.2425
27724W        W43985   5.926   4.497  13.063  0.1273 -0.2944 -0.2444
27725W        W43986   0.996   9.628  12.891  0.1814 -0.2807 -0.0383
27726W        W43987   4.090  10.363  10.305  0.1545  0.0181  0.2957
27727W        W43988   0.693  19.026   2.665  0.1400  0.2180 -0.0801
27728W        W43989   5.549   1.283   3.397 -0.1183 -0.1619  0.0394
27729W        W43990  10.410   8.834   4.368 -0.0669 -0.0479  0.0240
27730W        W43991   9.977   7.473  11.932  0.2150 -0.1531  0.1955
27731W        W43992   4.276   9.263   3.549 -0.0883  0.3840 -0.1743
27732W        W43993   3.156  15.745   9.962  0.2457  0.0656  0.0008
27733W        W43994  18.668  16.501  14.429 -0.3958 -0.4668 -0.0623
27734W        W43995   5.222  18.609  10.650  0.1952 -0.2261 -0.1765
27735W        W43996   9.737   6.707  14.476 -0.3010 -0.2342  0.0723
27736W        W43997   5.350   8.291   3.087 -0.0423  0.0297  0.0485
27737W        W43998  17.301  10.437   0.111 -0.1395 -0.1116 -0.0465
27738W        W43999   7.492   4.268   2.370 -0.1911  0.0327  0.2809
27739W        W44000  13.716   0.724  12.204  0.1672 -0.1603  0.1943
27740W        W44001   1.929  12.160   4.578  0.3543 -0.1600  0.1668
27741W        W44002  19.348   7.401   0.857  0.0097  0.0031 -0.1195
27742W        W44003   9.090  13.573   0.884  0.1027 -0.0463 -0.0540
27743W        W44004   8.676  18.253  14.567  0.1362 -0.1914 -0.2300
27744W        W44005  17.313   3.881   5.006 -0.1504  0.0151  0.4037
27745W        W44006   6.863  18.196  12.093  0.2015  0.1487  0.0410
27746W        W44007  14.338  18.299   1.213  0.1322 -0.0215  0.1507
27747W        W44008  15.234   4.870   0.800 -0.0791 -0.1107 -0.2337
27748W        W44009  11.889   0.662   4.650 -0.0596  0.0748 -0.0830
27749W        W44010  19.141   1.808  13.395 -0.1153 -0.0797  0.3683
27750W        W44011   3.011   3.239   0.173 -0.1419  0.0765 -0.4965
27751W        W44012   6.513   3.335   3.843  0.0179 -0.1317 -0.1059
27752W        W44013  10.898   1.116   5.089 -0.2646  0.1743 -0.0935
27753W        W44014   7.309  19.356   1.602 -0.5154 -0.0662  0.1034
27754W        W44015  13.157  13.190  14.575 -0.3427  0.0327 -0.2263
27755W        W44016  10.858  14.448   1.665  0.2026  0.1348 -0.4016
27756W        W44017  14.618  10.955   3.104 -0.1478  0.0328  0.1119
27757W        W44018   5.314  12.259  10.978 -0.0860  0.0880 -0.3194
27758W        W44019   7.817  16.334   2.688 -0.0817  0.1312  0.0981
27759W        W44020  10.968   9.796   2.780 -0.3803  0.1153  0.1433
27760W        W44021  16.352  14.358   0.233 -0.0874 -0.3340 -0.1592
27761W        W44022   2.393  14.032   3.177 -0.2003  0.1319 -0.0845
27762W        W44023   7.535  17.808   2.751  0.1234  0.3723  0.0779
27763W        W44024   3.968  13.056   0.455  0.2307  0.3318  0.2076
27764W        W44025   7.780  13.301   0.819  0.2322 -0.1238  0.0536
27765W        W44026  17.177   7.134   2.909  0.0531 -0.0245  0.1956
27766W        W44027  16.970   4.673   2.610  0.2477 -0.0113  0.2149
27767W        W44028   1.462   5.098  10.852  0.0117 -0.3116 -0.3091
27768W        W44029  10.434  11.131  12.830  0.1947 -0.4042  0.0425
27769W        W44030  11.026  14.264   0.054 -0.1435 -0.1274 -0.1139
27770W        W44031   9.792  11.102  10.030 -0.3672  0.3001 -0.2591
27771W        W44032  10.796  13.657  11.229  0.2883 -0.0651 -0.0842
27772W        W44033  18.797  14.959   3.563 -0.0524  0.3677 -0.2660
27773W        W44034  19.236   7.048  13.246 -0.2555 -0.0481 -0.1589
27774W        W44035   1.760   1.683  12.007  0.1154  0.1302 -0.0117
27775W        W44036  10.479  11.879  10.821  0.1762  0.0278 -0.1611
27776W        W44037  11.720  14.729  11.274  0.0582  0.0319  0.3555
27777W        W44038   1.050   5.429  12.687  0.0685 -0.2104  0.1983
27778W        W44039  16.041  10.716   1.923  0.2316  0.0164  0.0196
27779W        W44040   6.798   6.117  11.057 -0.1818  0.1466 -0.0518
27780W        W44041  10.050  18.382   0.596  0.2262  0.2540  0.3855
27781W        W44042   5.169   4.993   1.490  0.3057  0.3786  0.2599
27782W        W44043   5.860  13.893  11.295  0.1283 -0.0460 -0.0764
27783W        W44044  17.034  17.114   3.940 -0.1585  0.0822  0.0389
27784W        W44045  17.586   2.303  14.643  0.1490  0.0932  0.0040
27785W        W44046   6.565   2.356   1.942 -0.1509 -0.0759  0.2058
27786W        W44047  14.667   2.828   3.494 -0.2279  0.0373  0.0220
27787W        W44048   8.268  13.993   3.898  0.3650 -0.2331 -0.2240
27788W        W44049   5.282  14.459  13.021 -0.0549  0.0451  0.0329
27789W        W44050  15.756   4.694  11.912 -0.4088 -0.0696 -0.1339
27790W        W44051   3.375   5.583  13.053  0.2354 -0.0750 -0.3070
27791W        W44052  17.322   8.323   4.856  0.1945  0.1773  0.1044
27792W        W44053  17.599  17.820  13.222 -0.1289  0.3455 -0.1560
27793W        W44054   8.087   8.438   1.921  0.1882 -0.1137  0.0675
27794W        W44055  15.128  16.450   2.484  0.0329 -0.1493  0.2895
27795W        W44056   8.356   0.521  14.185 -0.1189 -0.1061 -0.2831
27796W        W44057   8.630   7.758   2.475 -0.1911  0.1779  0.1109
27797W        W44058  10.641   3.677   1.261  0.0241 -0.0442 -0.0872
27798W        W44059   4.235   3.043   4.173  0.1588  0.2665  0.0886
27799W        W44060   8.445   1.131   3.048  0.4992  0.0535 -0.1730
27800W        W44061  11.823   4.175   5.185 -0.1714  0.1786  0.2183
27801W        W44062  16.922   9.727   0.504 -0.0081  0.1579  0.0297
27802W        W44063   1.943   5.110  12.983 -0.0360 -0.1347  0.0563
27803W        W44064  12.869  15.121   2.606 -0.1663 -0.0938 -0.0750
27804W        W44065   1.124   8.788  10.504 -0.0616 -0.3616  0.2778
27805W        W44066   8.518   5.706  10.640  0.0702  0.1045 -0.2116
27806W        W44067  12.464   5.481  10.601 -0.1976 -0.0700 -0.0053
27807W        W44068  13.341  13.731   5.762  0.0179  0.1012  0.0917
27808W        W44069   7.880   7.899   9.734 -0.2500  0.1172  0.3135
27809W        W44070  16.444  11.798  10.439  0.0483 -0.0655  0.0251
27810W        W44071  10.952  11.593  12.731 -0.3162 -0.1739  0.0174
27811W        W44072   1.264   9.118  12.266  0.1344 -0.1078 -0.5488
27812W        W44073   3.140  15.726  13.672  0.0510 -0.0932 -0.3012
27813W        W44074   6.350  12.309  14.050 -0.0956 -0.0962 -0.0300
27814W        W44075   4.110   6.112  11.664  0.2752 -0.0180  0.3886
27815W        W44076  14.622  18.458   2.751 -0.1131  0.1955  0.1841
27816W        W44077  11.948   8.412   3.287  0.0504  0.1089  0.0744
27817W        W44078   8.571   3.143   0.721  0.0600 -0.0058 -0.0198
27818W        W44079   2.962   0.831   4.775 -0.0511 -0.2473  0.0765
27819W        W44080  15.931   3.181   4.177  0.1052 -0.1414 -0.1688
27820W        W44081  16.917   6.902   3.301  0.3604  0.0314  0.0519
27821W        W44082   1.318  18.498  12.198  0.3065  0.0444 -0.0921
27822W        W44083  11.397  16.112   4.301  0.1069 -0.1447  0.0242
27823W        W44084  11.848   8.184  13.238  0.0321  0.0383  0.0846
27824W        W44085   4.604   5.071   1.614 -0.1830 -0.1728 -0.2256
27825W        W44086   4.268  14.614   4.543  0.0237 -0.0260  0.0440
27826W        W44087   7.702  14.957  12.841 -0.1650  0.2552  0.1164
27827W        W44088  15.434  16.823   9.481  0.1371 -0.2069  0.1873
27828W        W44089   1.406   8.712   2.733  0.4421  0.0083 -0.0573
27829W        W44090   8.185   0.629   4.275 -0.0907  0.0097  0.0687
27830W        W44091  19.397   0.104  12.451  0.0107  0.3093  0.0075
27831W        W44092   6.550   5.520  12.087 -0.1947 -0.2103 -0.1288
27832W        W44093   8.640   6.351  11.918 -0.2182 -0.2144  0.3670
27833W        W44094   4.851  16.791   1.775  0.0753  0.2085 -0.1583
27834W        W44095  11.375   2.239   4.014 -0.0597 -0.2750  0.1107
27835W        W44096  11.920   5.057   2.111  0.0042 -0.3363  0.0152
27836W        W44097  12.023   4.633  12.610 -0.1786  0.1621  0.2841
27837W        W44098  17.583  18.473  11.008  0.3335  0.0114 -0.1717
27838W        W44099  10.935   7.372  11.138  0.1760  0.2659  0.1571
27839W        W44100  12.861   6.866   3.532  0.3006 -0.0392 -0.0939
27840W        W44101   9.948  19.085  10.763  0.2578 -0.1826  0.1600
27841W        W44102   6.671  15.193  14.246 -0.0775  0.2666  0.0783
27842W        W44103   9.921  10.651   3.209 -0.0710 -0.0722  0.0444
27843W        W44104   3.634   8.164   2.744 -0.2385  0.2059  0.2421
27844W        W44105  13.206  13.488   2.398  0.2315  0.2692  0.1673
27845W        W44106  11.737  12.070   1.761  0.0880  0.2154  0.0645
27846W        W44107  10.064   8.493  12.033  0.4572 -0.2278  0.0342
27847W        W44108   2.825   4.884   4.104  0.1326  0.3835 -0.1030
27848W        W44109   6.231   5.244   2.825  0.1046 -0.0296 -0.1563
27849W        W44110  19.059   6.802  14.380  0.1014  0.1210  0.3474
27850W        W44111   4.277  12.949  14.343 -0.2482  0.3460 -0.0151
27851W        W44112   9.678  16.543   4.860  0.4901  0.2393  0.1870
27852W        W44113  17.304  16.856   4.816  0.2523  0.1160  0.1094
27853W        W44114   1.567  14.534   2.714  0.2760 -0.4707 -0.0313
27854W        W44115  16.067   6.061   4.555 -0.1366  0.1128  0.2822
27855W        W44116  10.389  16.681  14.805 -0.0866 -0.1812  0.0383
27856W        W44117  14.746  13.919   1.864  0.0867 -0.2004  0.0463
27857W        W44118   7.303   2.152  10.285  0.0609  0.0661  0.2383
27858W        W44119  12.099  10.643  14.363 -0.0482  0.2562  0.2710
27859W        W44120  13.130   0.092  11.686  0.1204  0.3854 -0.2577
27860W        W44121  17.708   2.592   5.319  0.1845 -0.2583  0.1777
27861W        W44122   7.523   0.395  11.633 -0.1657 -0.1510  0.0582
27862W        W44123   1.233  16.792   2.651  0.1627 -0.0313 -0.0173
27863W        W44124   4.979   1.592  10.106  0.2245 -0.1216 -0.0417
27864W        W44125   9.734  13.831  12.964 -0.3172 -0.2142 -0.0886
27865W        W44126  13.309   1.476   0.661  0.1896  0.1157 -0.1703
27866W        W44127   5.985  17.160  12.280  0.1601  0.2864 -0.0173
27867W        W44128   8.777   8.867  10.157  0.1109 -0.0143  0.1423
27868W        W44129  18.229   8.553  13.773  0.0261 -0.0583 -0.2021
27869W        W44130   3.739  11.242   0.676  0.2974 -0.0335  0.3293
27870W        W44131  18.861  12.326   0.325  0.2026 -0.1912 -0.2185
27871W        W44132   0.361   3.627   3.553 -0.1071 -0.1343  0.0583
27872W        W44133   4.035  17.189   1.316  0.1169  0.0929  0.2736
27873W        W44134  14.588  18.016  12.130  0.0938  0.2935 -0.1461
27874W        W44135  16.110   8.168  10.789  0.3375  0.0198  0.1042
27875W        W44136   8.537  14.102   3.500  0.0318 -0.1337  0.3156
27876W        W44137   9.661   1.025  11.238  0.2020  0.1718  0.4002
27877W        W44138   8.091   7.327   1.266  0.0568  0.0070 -0.3492
27878W        W44139   9.252   6.292  10.274 -0.3846  0.3432 -0.0310
27879W        W44140   3.896   3.358  13.065  0.0687  0.2948  0.3390
27880W        W44141   0.100   0.542   1.930 -0.0076 -0.0884 -0.0720
27881W        W44142  18.896  12.597   1.944  0.0843 -0.1601 -0.1498
27882W        W44143   6.779  11.240  11.273 -0.0823  0.0348  0.2782
27883W        W44144   2.948   8.158  10.758 -0.1077 -0.1139 -0.1652
27884W        W44145  11.691   5.408  11.699 -0.0543 -0.0390  0.1660
27885W        W44146  16.406  18.809   1.072 -0.0148 -0.1549  0.2058
27886W        W44147  10.514   9.113   1.856 -0.1793  0.3199 -0.1375
27887W        W44148  18.808   9.360   4.136  0.0375 -0.0139 -0.0551
27888W        W44149   2.213   9.202  14.499  0.0967 -0.1971 -0.1293
27889W        W44150  12.780   2.946   1.917  0.2484  0.0072 -0.0290
27890W        W44151   9.232  13.755  14.575 -0.1051 -0.0212 -0.2030
27891W        W44152  18.439   0.441   0.006  0.1434 -0.2135 -0.1775
27892W        W44153   2.466  15.411  13.905 -0.2379 -0.4572  0.1350
27893W        W44154   2.634  10.819   0.591  0.0056 -0.0278  0.3878
27894W        W44155   5.322   1.605   1.518 -0.0583  0.1888 -0.0329
27895W        W44156   4.463  16.341   5.701 -0.1875  0.1885 -0.1508
27896W        W44157  18.416   4.816   2.018 -0.1713 -0.1741  0.1130
27897W        W44158   9.412   3.109  13.996  0.2860  0.2143  0.2554
27898W        W44159  15.837   3.800  14.646 -0.0964 -0.0736  0.1615
27899W        W44160  19.320  17.084   2.164  0.0410  0.1789 -0.1428
27900W        W44161  15.842   4.746   4.163  0.0245 -0.0289 -0.0821
27901W        W44162   7.264   5.402  11.469  0.0025 -0.2075  0.0267
27902W        W44163   1.021  11.163   5.741 -0.1748 -0.1218  0.1069
27903W        W44164   2.014   3.061  14.418 -0.0252 -0.0875 -0.0337
27904W        W44165  14.741   3.290  10.793  0.1151  0.5587  0.3145
27905W        W44166   2.142   3.322   3.628 -0.1623 -0.1706  0.1852
27906W        W44167  11.802  18.618  14.281  0.2991  0.4006 -0.1178
27907W        W44168  12.067   1.633  12.373  0.0608  0.2070 -0.0360
27908W        W44169  11.971  12.667   0.630 -0.0795  0.1171  0.2283
27909W        W44170   5.055  17.478   2.487  0.0325 -0.0471  0.1015
27910W        W44171   7.342  12.269  14.695 -0.4266  0.3366 -0.0338
27911W        W44172   7.741  13.075  12.627 -0.3348 -0.3047 -0.4889
27912W        W44173  14.525   6.569  12.398  0.1121 -0.0281 -0.1272
27913W        W44174  14.664  17.952   5.980 -0.0105  0.0160 -0.2314
27914W        W44175  16.784   7.597   2.505  0.0599 -0.0720  0.0516
27915W        W44176   3.891   6.028  12.146  0.2893  0.3197 -0.1035
27916W        W44177   7.692   7.132  11.124  0.3805 -0.0426  0.0234
27917W        W44178  14.087   5.202  13.641  0.2216  0.1069 -0.0927
27918W        W44179  14.436   0.171  14.398  0.1005  0.0481  0.1504
27919W        W44180  16.780  17.980   1.471 -0.2906 -0.3068  0.1385
27920W        W44181  12.870  18.118   3.167  0.1660  0.3069 -0.0198
27921W        W44182   2.175   1.629   0.263 -0.0103  0.1702  0.2129
27922W        W44183   6.259  17.323   0.921  0.2290 -0.3122  0.2615
27923W        W44184  17.427  17.078   0.887 -0.0796  0.1793 -0.0407
27924W        W44185   9.985   6.499  10.957 -0.0710 -0.2552  0.1854
27925W        W44186  13.161   5.775  12.128  0.1156  0.1387 -0.2238
27926W        W44187   1.849  15.097   3.645  0.1158 -0.1030  0.1841
27927W        W44188   2.521  16.634  13.195 -0.1794 -0.0958  0.0728
27928W        W44189   2.149   2.595   2.529  0.3704  0.0656 -0.0149
27929W        W44190  15.523   9.958   5.912  0.0676 -0.3069 -0.1105
27930W        W44191   3.250   2.435   1.848 -0.0907  0.0841  0.2554
27931W        W44192  10.796   5.578  11.794 -0.1341  0.2146  0.1109
27932W        W44193   9.691   4.659   4.743  0.0974  0.3381 -0.0235
27933W        W44194  10.844  11.418   3.140  0.0111 -0.0936  0.2638
27934W        W44195   9.587  17.408   3.770 -0.1739  0.0555  0.1188
27935W        W44196   9.518   2.672   2.661  0.2487 -0.2844  0.1654
27936W        W44197  10.757  16.194   5.105  0.0028  0.0544 -0.0114
27937W        W44198   8.909   7.300   3.558 -0.0027  0.0235 -0.0502
27938W        W44199   1.595  17.967   3.135  0.1671  0.1903  0.0787
27939W        W44200   6.651  18.055   9.704  0.4990  0.3802 -0.1018
27940W        W44201   5.343   8.354   0.206  0.2558  0.1284 -0.0565
27941W        W44202   0.809   9.610   0.696 -0.1195  0.0636 -0.0897
27942W        W44203   9.077   5.690  14.190 -0.0473 -0.2189  0.1589
27943W        W44204  13.495  16.306   4.676  0.0778  0.1122 -0.2398
27944W        W44205   5.420  16.241  13.291 -0.2927 -0.1253  0.0227
27945W        W44206   7.354   5.837   3.191 -0.0535  0.0620  0.0039
27946W        W44207  15.161  19.089  14.370 -0.1105  0.0419  0.2315
27947W        W44208  10.016  11.370   3.734  0.1051 -0.6207  0.1459
27948W        W44209  13.885   8.381   3.973  0.1301 -0.0494  0.3880
27949W        W44210   2.533  16.928  11.676 -0.0643 -0.2372  0.0182
27950W        W44211   0.984   1.468   4.464  0.0572 -0.1995 -0.1278
27951W        W44212  11.280  18.590  14.174 -0.2023  0.2324  0.2298
27952W        W44213   7.478  16.779  14.628  0.0674  0.1827  0.1682
27953W        W44214   8.537   7.599   3.423  0.1205 -0.1193  0.2100
27954W        W44215  12.936   8.020  11.744 -0.0634 -0.1695 -0.0084
27955W        W44216   3.889  10.184   2.531  0.0779 -0.1261 -0.0284
27956W        W44217   3.205   4.807  13.381  0.0522  0.1161 -0.1144
27957W        W44218  19.282  11.046  11.796 -0.2190  0.0135 -0.1351
27958W        W44219  19.395  14.309  11.771  0.0542  0.0210  0.1077
27959W        W44220   7.281   2.511  13.642  0.1503 -0.0276  0.2194
27960W        W44221  11.498   3.868  10.564 -0.1186 -0.0566 -0.0968
27961W        W44222   2.190   0.995  14.209 -0.1037 -0.0692 -0.0964
27962W        W44223  10.323   0.004  10.796  0.0746  0.3045 -0.3689
27963W        W44224  16.734  14.665  14.220  0.2097  0.1082 -0.4493
27964W        W44225  16.992  12.846   4.305 -0.0361 -0.0987  0.0506
27965W        W44226   2.754   2.274  10.499 -0.1691  0.0457  0.0870
27966W        W44227  19.165   1.918   3.213  0.2170 -0.2761  0.1530
27967W        W44228  17.890   4.851   2.763  0.0083 -0.3407 -0.2013
27968W        W44229   1.440   3.202  11.913 -0.0985  0.1718 -0.0070
27969W        W44230   7.324   7.627   2.924  0.2431 -0.0285 -0.0272
27970W        W44231  16.250   0.917  12.489  0.1121 -0.1911 -0.0334
27971W        W44232  14.266   1.219   5.149 -0.1234  0.6996  0.4333
27972W        W44233  17.315  15.676  11.190  0.0524 -0.3246 -0.0544
27973W        W44234  14.646   9.685   0.570 -0.0500 -0.1465 -0.2926
27974W        W44235   3.334  10.179   5.065  0.1509 -0.2612 -0.0066
27975W        W44236   8.362  13.290  14.138  0.0236  0.0046  0.1366
27976W        W44237   6.500   8.097  12.878  0.2243  0.0102  0.0538
27977W        W44238  19.166   3.272   0.246  0.2782  0.2116 -0.0562
27978W        W44239   2.258   1.018   3.085 -0.2246  0.0652 -0.1384
27979W        W44240  16.540   0.484  12.593 -0.1786 -0.2272  0.1213
27980W        W44241   9.244   9.713   2.111  0.1219 -0.3031  0.3546
27981W        W44242   8.680  10.925   1.380 -0.2040 -0.0813  0.0178
27982W        W44243  10.053  13.556   0.022  0.1883  0.0239 -0.1355
27983W        W44244   9.636  15.662  11.181  0.1912  0.0199  0.2647
27984W        W44245   6.155  13.264   6.090 -0.0983  0.1036 -0.0327
27985W        W44246   9.657  15.458  10.440 -0.4704  0.1289  0.4258
27986W        W44247  15.060  17.428   2.356 -0.0221  0.3271  0.0459
27987W        W44248   0.543  11.988  11.990 -0.1179  0.1666 -0.2153
27988W        W44249  10.082   0.637  10.195  0.3936 -0.1636  0.2847
27989W        W44250   3.520  11.899  11.209 -0.2085 -0.0489 -0.1854
27990W        W44251   8.328   2.075  12.451 -0.3372  0.1235  0.0252
27991W        W44252  18.140  13.521  14.037  0.0459 -0.1311 -0.3833
27992W        W44253  10.665   2.571   3.701 -0.2693  0.4897  0.2453
27993W        W44254   0.846  18.421   3.393 -0.2143 -0.1625 -0.0779
27994W        W44255  10.993  12.676  10.962  0.2351 -0.0250  0.0874
27995W        W44256   4.506  11.759  13.983 -0.0792  0.1394 -0.1278
27996W        W44257  11.378  14.035   4.108  0.1204 -0.1093  0.0611
27997W        W44258   1.979   9.256  11.905 -0.1643 -0.2658  0.1416
27998W        W44259  10.324   4.449   3.392 -0.0671  0.3674  0.1246
27999W        W44260  17.651  11.328   4.952  0.0919  0.1580  0.4897
28000W        W44261  12.812   6.637   2.983 -0.2661  0.1313 -0.0479
28001W        W44262  16.432  18.226  13.682 -0.1860 -0.2784  0.0928
28002W        W44263  10.665  16.775   0.739 -0.1305  0.0995  0.0044
28003W        W44264  13.682   4.519   2.401 -0.2951 -0.1740 -0.0372
28004W        W44265  11.193   7.710  11.430  0.2009  0.0499  0.0936
28005W        W44266  17.683   4.666  10.949 -0.0587 -0.2601  0.0334
28006W        W44267   2.500  17.821  13.466  0.0496 -0.3507 -0.1595
28007W        W44268  10.242  15.309   5.054 -0.0528 -0.2255 -0.0673
28008W        W44269  11.743   7.140   1.180 -0.1274 -0.0291 -0.1708
28009W        W44270  13.532  14.137   4.141  0.0986  0.0322  0.0653
28010W        W44271  18.377   9.304   4.416  0.3397 -0.0747 -0.0018
28011W        W44272  11.957  19.112  11.363 -0.0913 -0.0241 -0.1943
28012W        W44273  12.951   8.504  12.506  0.0395 -0.1657  0.2113
28013W        W44274   1.507  13.069   0.247 -0.3220  0.0367 -0.1491
28014W        W44275  10.575  18.861  12.772 -0.1193 -0.1318  0.3366
28015W        W44276  12.248  11.386  11.856 -0.0827 -0.2211 -0.1119
28016W        W44277   7.288   3.962   0.639  0.1067 -0.1514  0.4504
28017W        W44278  15.731  14.493   2.490  0.0842 -0.0599  0.4801
28018W        W44279   3.574  19.039  13.192 -0.0852  0.0358  0.0901
28019W        W44280   9.649  19.045  11.189 -0.1541 -0.1452  0.3114
28020W        W44281   8.820   3.936  12.977  0.1807 -0.2033 -0.0736
28021W        W44282  14.500   8.067   0.863 -0.1331 -0.2020 -0.0717
28022W        W44283  13.285  12.121   3.124 -0.1619 -0.2545 -0.1169
28023W        W44284   4.884   5.503  10.473 -0.1671 -0.0733  0.3205
28024W        W44285   5.100  10.447  13.949  0.1277 -0.2976 -0.2715
28025W        W44286   5.299  11.383   1.529 -0.1092  0.0683 -0.2069
28026W        W44287  11.340   4.707   3.392  0.1789  0.2725 -0.0505
28027W        W44288  14.519  10.005   5.626  0.0834  0.3771 -0.3186
28028W        W44289   7.380   4.711  14.708  0.0813  0.0225  0.1255
28029W        W44290   7.788   6.834   8.596 -0.0319 -0.1909 -0.1986
28030W        W44291  18.392   1.309  11.364 -0.0813  0.1490 -0.3442
28031W        W44292  11.615  10.411   3.829 -0.1478  0.2050  0.1288
28032W        W44293  16.128  13.066  13.689  0.2101  0.1190 -0.0126
28033W        W44294   8.428  18.091  10.425 -0.3039  0.1328  0.3629
28034W        W44295  14.764   8.244  12.191 -0.0783 -0.1183 -0.1509
28035W        W44296  12.461   3.903   2.400  0.1132  0.0383  0.0990
28036W        W44297   4.362   7.959   4.040 -0.2478  0.0731  0.0487
28037W        W44298   0.832   9.536   3.421  0.3243  0.0737  0.3712
28038W        W44299   3.200  18.699  12.765  0.1647 -0.3751 -0.2018
28039W        W44300  10.054  17.499  11.020 -0.0960  0.1083  0.0191
28040W        W44301  13.714   1.151  13.520 -0.2142 -0.0345  0.0202
28041W        W44302   1.660  18.975   4.660  0.0911  0.1106 -0.4736
28042W        W44303  14.300   0.224  13.465 -0.0035  0.0155  0.2710
28043W        W44304  11.050   6.938   1.837 -0.1028 -0.2080  0.0036
28044W        W44305  15.638  10.628  11.509 -0.2337  0.2165  0.0779
28045W        W44306  11.596  11.724   0.143 -0.0216  0.0172 -0.0539
28046W        W44307  19.334  17.648   4.233  0.3835 -0.1738 -0.3373
28047W        W44308  14.984  18.959   9.951  0.0724  0.0883  0.1969
28048W        W44309  13.561   2.577   0.412 -0.0407 -0.5267  0.3185
28049W        W44310  10.357  14.904  10.141  0.0863  0.0726  0.3468
28050W        W44311  16.174   8.726   0.830  0.1164 -0.0873 -0.1511
28051W        W44312   8.464   3.082  14.610 -0.3077  0.1390  0.2042
28052W        W44313  17.873  13.057   2.221 -0.0059 -0.0859  0.1140
28053W        W44314  13.189   7.455  13.560  0.0576 -0.0139 -0.1599
28054W        W44315  15.878   9.576  12.638  0.0536 -0.1538 -0.0590
28055W        W44316   4.501   2.328   2.278 -0.0199  0.1647 -0.1030
28056W        W44317   1.242  10.206   9.729 -0.0001 -0.1026 -0.2047
28057W        W44318   4.393   6.160   2.666 -0.4134 -0.0873 -0.0707
28058W        W44319   4.955   4.207  10.144 -0.4495 -0.0677  0.2471
28059W        W44320   8.413   7.132   3.406  0.1639 -0.0631  0.2381
28060W        W44321   8.425   7.412   0.897  0.0006 -0.0806 -0.0869
28061W        W44322  17.394  11.261   1.648 -0.1217 -0.2475 -0.2819
28062W        W44323   8.560   2.711   0.968 -0.3104  0.1387 -0.1436
28063W        W44324  14.319   8.833  14.435  0.0682 -0.0015  0.2401
28064W        W44325   0.006  14.508   0.482  0.0627 -0.0689  0.1304
28065W        W44326   6.066  11.573   1.913  0.3132  0.0282 -0.0546
28066W        W44327   4.469  10.457  13.256 -0.2764 -0.0569  0.1044
28067W        W44328  14.635   8.662   2.245  0.2275  0.2199 -0.3073
28068W        W44329   6.343   5.746   2.613  0.2628 -0.0968 -0.2747
28069W        W44330  13.604  12.568  12.778 -0.1180 -0.1156 -0.0704
28070W        W44331   5.744   0.127   1.044  0.0490  0.2198 -0.3209
28071W        W44332  17.254  18.370   2.966 -0.1195  0.3532  0.3831
28072W        W44333   8.387   3.660   4.826  0.1829  0.3143  0.2470
28073W        W44334  15.112   9.324   3.284  0.2334 -0.0339 -0.0461
28074W        W44335  16.179  16.704  13.264 -0.2452  0.0713  0.2765
28075W        W44336  12.389   5.187   0.125  0.1794 -0.3288 -0.0226
28076W        W44337   7.070   5.440   0.191  0.0926  0.1887  0.1040
28077W        W44338   9.311  15.142   4.549  0.2027 -0.3531  0.1991
28078W        W44339   3.336   6.007   3.426 -0.2590 -0.0768 -0.1618
28079W        W44340   7.283  19.077   0.148 -0.0473 -0.3635  0.0348
28080W        W44341   9.207  18.513   0.222 -0.1085 -0.0119  0.1345
28081W        W44342  14.295  12.960   3.607 -0.0941  0.0053 -0.0638
28082W        W44343  13.971  10.378   0.067  0.3058 -0.0178  0.0329
28083W        W44344   6.371  11.765  14.056  0.1154 -0.1189  0.3691
28084W        W44345   6.304  14.542   0.073 -0.1754 -0.2267 -0.1253
28085W        W44346  18.276   5.891   3.304  0.0150  0.1024  0.1380
28086W        W44347  15.651  10.260   5.081  0.1817 -0.0784  0.1374
28087W        W44348   1.126   6.953   3.905 -0.1900 -0.0890 -0.1309
28088W        W44349   5.559  19.004   5.393 -0.0966  0.0136 -0.0519
28089W        W44350   7.905  18.048  10.615 -0.2915 -0.1754  0.2641
28090W        W44351   8.831  12.676   2.266 -0.1333  0.1018  0.0390
28091W        W44352  14.310  12.784  10.915  0.2971  0.0720 -0.2125
28092W        W44353  11.874   1.944   3.953  0.0895  0.1449 -0.1546
28093W        W44354  19.234  10.486   3.554  0.0770 -0.1137  0.1661
28094W        W44355  14.421   6.092  12.346 -0.1042 -0.1180  0.2558
28095W        W44356  17.219  12.210  14.169 -0.0252  0.0362  0.1022
28096W        W44357   5.641  11.547  13.260 -0.0578 -0.0777  0.0803
28097W        W44358  13.524   3.787   1.768 -0.0196  0.1428 -0.0124
28098W        W44359   2.413  16.710   0.209  0.1078  0.2770  0.0955
28099W        W44360  13.026   8.832   0.383  0.0485 -0.2406 -0.2900
28100W        W44361   3.739  11.722   4.139 -0.3681  0.0849  0.1935
28101W        W44362  14.872   6.611   4.495 -0.0529  0.1119 -0.4005
28102W        W44363  16.126   3.599   1.664  0.2858  0.0913  0.0441
28103W        W44364   6.927   9.310   2.586 -0.0750  0.0325  0.0019
28104W        W44365  18.354  10.972  11.455  0.2546 -0.0346 -0.2865
28105W        W44366  15.936   7.890   4.511 -0.2434 -0.1454  0.2584
28106W        W44367  17.695  14.622  14.096  0.1368  0.1599 -0.2919
28107W        W44368  11.973   8.708  12.109  0.0184  0.1717  0.1127
28108W        W44369   9.366  16.618   4.492 -0.1860 -0.0367  0.1081
28109W        W44370  14.410   3.088   3.155  0.2557 -0.2325  0.0756
28110W        W44371   8.238  11.485  10.328  0.1658 -0.0404  0.0743
28111W        W44372  15.050  17.376  12.263  0.0327 -0.0103  0.0423
28112W        W44373  13.142  13.419   1.879 -0.3490  0.2550 -0.1628
28113W        W44374  12.169   8.502   2.761 -0.0925 -0.1726 -0.1406
28114W        W44375   2.762  18.015  10.554  0.0588 -0.0322  0.2776
28115W        W44376   0.617  17.038   4.495 -0.1664 -0.0199 -0.0079
28116W        W44377   6.950  18.298  10.813  0.0458 -0.2484 -0.0877
28117W        W44378   8.975   7.977   0.345  0.0157  0.4110  0.0289
28118W        W44379  18.359  18.370  11.256 -0.0314 -0.1647  0.4478
28119W        W44380  18.310  14.597   4.261 -0.1276 -0.0760 -0.1254
28120W        W44381   4.977  16.350  11.907 -0.2746 -0.0520 -0.1515
28121W        W44382   4.347   6.973  14.500  0.0345  0.1845 -0.1960
28122W        W44383   0.846  19.177   5.452  0.0837  0.1357  0.2791
28123W        W44384   2.974   2.184  14.115  0.1542  0.1163  0.1921
28124W        W44385   7.574  16.589  12.709  0.2945  0.5552 -0.1639
28125W        W44386   7.058  14.927  14.005 -0.2535 -0.1051 -0.0580
28126W        W44387   0.371   2.538   0.069  0.1278  0.0775  0.3691
28127W        W44388  13.635  12.980  13.152  0.1678  0.1200 -0.0339
28128W        W44389   6.261   3.797   3.753  0.0764 -0.2559  0.1411
28129W        W44390   8.189   8.028  13.730  0.2915 -0.1593  0.3971
28130W        W44391   6.695  14.932  13.183 -0.0034 -0.2379  0.2333
28131W        W44392  15.059   8.148  13.645 -0.0599 -0.0374  0.0355
28132W        W44393  12.829  10.191   1.341  0.1492  0.3202  0.4677
28133W        W44394   9.061   9.117  11.904  0.1601  0.1247  0.0117
28134W        W44395   5.615  13.136   1.499  0.1906 -0.1989 -0.0100
28135W        W44396   5.293  12.993   4.833  0.0824 -0.1975 -0.0071
28136W        W44397   8.786  15.424  12.969 -0.0529  0.3812  0.0023
28137W        W44398   0.007  15.914   5.810 -0.0803  0.3098 -0.0244
28138W        W44399   4.506  15.739   4.355  0.2458  0.3180  0.1092
28139W        W44400  16.208   3.557   3.288 -0.0804 -0.1335  0.0895
28140W        W44401  16.144   1.938   4.684 -0.1287 -0.1759  0.2675
28141W        W44402   0.282  13.959  10.065 -0.1876 -0.2246 -0.1491
28142W        W44403   2.672   0.368   0.790  0.2603 -0.5200 -0.0965
28143W        W44404  11.580   4.256   3.266  0.3029  0.1252  0.0234
28144W        W44405  18.514  18.493   2.878  0.1343 -0.2634 -0.0920
28145W        W44406   4.569  12.375   1.842 -0.2050  0.1656  0.0140
28146W        W44407  12.208   1.454  10.219  0.0433 -0.2329 -0.1557
28147W        W44408   8.483   5.582  13.157  0.0384  0.0155 -0.1337
28148W        W44409  18.703   0.791   4.770 -0.0917  0.2487 -0.1251
28149W        W44410   6.255  17.161   2.444 -0.1661 -0.0928  0.0961
28150W        W44411  11.731   9.299  13.233 -0.1224  0.2880 -0.3317
28151W        W44412   9.334  12.456   3.483 -0.1784  0.1058 -0.2734
28152W        W44413   3.580   5.747   2.519  0.1005 -0.1628 -0.1087
28153W        W44414  14.182  14.283   4.241 -0.1388 -0.1422 -0.1456
28154W        W44415  12.286   7.982  11.528  0.0027  0.1488 -0.1815
28155W        W44416  18.246   8.982  14.282 -0.2154  0.2827  0.4588
28156W        W44417   3.423  15.165  11.258  0.1960 -0.1930 -0.0312
28157W        W44418  13.063   6.646  10.717 -0.3164  0.2435  0.1573
28158W        W44419   9.704   0.051   3.212  0.3598  0.1582  0.1514
28159W        W44420  10.680  13.651  11.886  0.0029 -0.0628 -0.0101
28160W        W44421  16.549   8.001  10.594  0.1542  0.1053  0.0855
28161W        W44422   2.130  10.588  10.764  0.0248 -0.1418 -0.1321
28162W        W44423   1.751  16.572   3.878 -0.1703  0.2697  0.0201
28163W        W44424  10.151   3.380  12.870 -0.0721  0.0830 -0.0813
28164W        W44425   1.903   2.142   2.359  0.1866 -0.1989 -0.0698
28165W        W44426  13.987   0.417  14.040 -0.2652 -0.1669 -0.0593
28166W        W44427  13.306   9.101   2.147 -0.0264  0.2894 -0.0736
28167W        W44428   6.327  17.180   2.963 -0.2690  0.0342  0.2464
28168W        W44429   7.791  13.618  12.586  0.2044 -0.2315  0.3281
28169W        W44430   6.409   6.413   3.523  0.0547 -0.0406 -0.2305
28170W        W44431   3.428   1.802   0.990 -0.0961  0.1372  0.2353
28171W        W44432   4.261   4.328  11.792  0.0805  0.0415 -0.0567
28172W        W44433   1.139  14.292  14.177 -0.0223  0.1046  0.1049
28173W        W44434   3.210   2.785  13.245  0.0934 -0.1047 -0.2887
28174W        W44435   6.355   2.355   3.523  0.2710  0.1974  0.2348
28175W        W44436   7.988  11.293  13.238 -0.1461 -0.2582 -0.1505
28176W        W44437  17.004   0.333  11.686  0.1709  0.1218 -0.0065
28177W        W44438   9.577  15.980   0.738 -0.2947  0.0667  0.1578
28178W        W44439  16.064  15.786  14.184 -0.0498  0.2931  0.1652
28179W        W44440   4.314  16.045  12.217 -0.0511  0.1621 -0.0496
28180W        W44441  15.781  15.140  11.799 -0.1378  0.2041  0.0208
28181W        W44442   5.952   7.122   0.960  0.1155 -0.2189  0.0043
28182W        W44443   7.467   2.285  12.098  0.3344  0.0321  0.2116
28183W        W44444   8.822   5.418  11.330  0.2359 -0.2204  0.0509
28184W        W44445   9.338  14.845  11.357 -0.1578 -0.0507 -0.2067
28185W        W44446   1.400   9.686   0.864  0.2270  0.0085  0.3761
28186W        W44447   8.006  13.153   1.245 -0.1654  0.2805  0.1595
28187W        W44448  12.869  11.744   0.820 -0.2667  0.2347  0.2487
28188W        W44449  16.211   0.941   2.102 -0.1141 -0.1875  0.0497
28189W        W44450  18.299  16.068  13.201  0.1269 -0.2327 -0.1271
28190W        W44451  13.567  15.836   0.700  0.1437 -0.2381  0.4070
28191W        W44452   0.637   7.607  13.241 -0.3026  0.0183  0.0203
28192W        W44453   0.527   6.685   0.603  0.0943 -0.3846  0.3941
28193W        W44454   0.282  15.483  13.160  0.5520 -0.0354  0.1671
28194W        W44455  18.562  16.978   0.506 -0.1005  0.1032  0.1356
28195W        W44456  11.049   0.625  11.113  0.2927 -0.1965 -0.0780
28196W        W44457   8.011   5.531   9.015  0.2814 -0.1061 -0.1290
28197W        W44458  17.020  12.959   1.354 -0.0371  0.3391  0.1038
28198W        W44459   6.629  17.626   3.101  0.1367  0.0956 -0.2083
28199W        W44460   1.044  10.537  12.932  0.2460  0.0208  0.1327
28200W        W44461   1.422   4.416  14.372  0.3186  0.0216 -0.1769
28201W        W44462  12.887  15.199   3.561 -0.1006 -0.1174 -0.1806
28202W        W44463   8.716   3.857  11.096  0.0299 -0.3159 -0.0366
28203W        W44464  17.094   7.978   2.233 -0.1293  0.0516  0.0637
28204W        W44465   1.087  17.745  12.749  0.1137  0.3015 -0.1725
28205W        W44466   7.406  13.656  11.594 -0.2264 -0.0142  0.1016
28206W        W44467  15.890  19.138  14.308  0.1799 -0.0844  0.2582
28207W        W44468  11.750   6.734  12.166 -0.0216  0.2352  0.1502
28208W        W44469  12.177  11.242   1.786 -0.0408  0.0369 -0.2538
28209W        W44470   3.416  18.731  10.595 -0.3170  0.0182 -0.0863
28210W        W44471  13.790   0.666   5.392  0.1796  0.3114 -0.1692
28211W        W44472   3.313  14.114  12.038 -0.2786  0.2526 -0.2021
28212W        W44473  11.741   1.246  12.443  0.0329  0.0366 -0.0038
28213W        W44474   7.566   3.130  11.266 -0.4909 -0.1744  0.0134
28214W        W44475   3.888   2.425  14.228 -0.0426 -0.0206 -0.2255
28215W        W44476  15.308   0.805   2.886 -0.1098 -0.2345  0.1102
28216W        W44477  18.257  15.185  11.935  0.0506  0.2582  0.0939
28217W        W44478  19.463  15.062  13.835  0.2402 -0.3247 -0.0393
28218W        W44479  10.325   0.315   4.832 -0.0478  0.0111  0.1629
28219W        W44480  15.012   8.539  12.699  0.1343  0.1227 -0.1552
28220W        W44481   8.143   5.829  14.139 -0.0338 -0.1915 -0.0788
28221W        W44482  15.075   2.140   3.863  0.1178  0.2495 -0.2648
28222W        W44483  11.805   4.626   0.427  0.1406 -0.4005 -0.5343
28223W        W44484   1.864   9.962  14.718  0.1369 -0.0421  0.1623
28224W        W44485  17.870  19.222  10.843  0.4871 -0.0486 -0.3757
28225W        W44486  17.738  10.902   4.473  0.1569 -0.0997  0.0247
28226W        W44487   6.991  10.687   2.675  0.1664  0.0341 -0.0923
28227W        W44488  12.533  10.319  14.306 -0.0786  0.0111 -0.1285
28228W        W44489   1.432  11.652  11.624  0.1373 -0.1025 -0.0342
28229W        W44490  11.466  14.235  12.418 -0.1314  0.1785  0.0055
28230W        W44491   3.307   5.485   0.872  0.2491 -0.1359  0.2636
28231W        W44492   5.717   7.076  10.101 -0.1380  0.0230 -0.0209
28232W        W44493   0.102  14.204   2.019  0.1082  0.1375  0.1835
28233W        W44494  17.014  11.905   0.453 -0.2959 -0.2200  0.4424
28234W        W44495   2.360   3.575   4.660  0.0035  0.3844 -0.1726
28235W        W44496  17.147  10.108  11.088 -0.0576  0.0056  0.1737
28236W        W44497   9.511   2.251   2.935  0.1254  0.1114  0.1327
28237W        W44498  16.884   9.421  14.757 -0.0669 -0.0262 -0.1594
28238W        W44499   8.256  17.174   3.765 -0.0901  0.2773  0.0264
28239W        W44500   0.155  14.177   3.657 -0.0027 -0.0051 -0.1704
28240W        W44501   8.818   9.920   3.545 -0.1901 -0.0538 -0.3167
28241W        W44502   8.714   8.423  13.348  0.3864 -0.2478 -0.0409
28242W        W44503   9.751  10.648   2.756 -0.0351  0.0931 -0.0721
28243W        W44504  12.467   6.831  10.522  0.1448 -0.0864  0.2416
28244W        W44505   6.494  18.148   0.935 -0.3419 -0.2861  0.0691
28245W        W44506   9.346   1.801   1.697 -0.0794  0.1166 -0.3190
28246W        W44507   8.965  12.541  12.244  0.1043  0.4043  0.3461
28247W        W44508   5.725   9.822   2.597  0.1452 -0.1462 -0.2580
28248W        W44509   5.918  13.249   1.104  0.3856  0.1037 -0.0804
28249W        W44510  13.534  14.416   0.350  0.3124 -0.0589  0.0810
28250W        W44511   1.210  14.123  11.204 -0.0914  0.3911  0.1245
28251W        W44512   8.439   4.859  10.381 -0.0376 -0.2942  0.3262
28252W        W44513  15.168  10.566  11.396 -0.0689  0.1962 -0.2162
28253W        W44514   9.246   6.951   2.856  0.1286  0.0273 -0.1367
28254W        W44515  13.969   4.557   1.380 -0.1436  0.1536 -0.1367
28255W        W44516   9.485  12.415  12.457  0.3301 -0.1114  0.1890
28256W        W44517   1.383   9.646  14.167 -0.2241  0.2817  0.3234
28257W        W44518   9.284  16.959  10.298  0.2004 -0.1104  0.5024
28258W        W44519  11.564   2.435   2.787  0.2898 -0.1206 -0.0474
28259W        W44520  12.950   4.645  11.969  0.4032 -0.0131  0.0822
28260W        W44521   6.290  11.488   2.495  0.4114 -0.3042  0.2872
28261W        W44522  12.860   4.064   2.183  0.1627 -0.0741  0.1170
28262W        W44523   8.839   0.739  12.945  0.1593 -0.0439  0.3186
28263W        W44524   4.441  14.679  11.545 -0.3291  0.0488  0.1041
28264W        W44525   5.155   8.178   4.569  0.0351 -0.0621 -0.2849
28265W        W44526   9.044   2.700   9.221 -0.1080  0.0120  0.1997
28266W        W44527  13.482  15.767   1.524  0.0011 -0.2798 -0.1932
28267W        W44528  18.931  18.073   2.172  0.1857  0.2364  0.1675
28268W        W44529   0.119   5.605   0.338 -0.0629  0.1888  0.3172
28269W        W44530   6.828   9.523   3.037 -0.0116 -0.1244  0.3059
28270W        W44531   6.787  17.800   2.474  0.3159 -0.1564 -0.1602
28271W        W44532  12.157   6.059   1.681 -0.0053 -0.0872 -0.1780
28272W        W44533   9.828  14.896  12.410  0.3741 -0.1839 -0.4106
28273W        W44534  17.687   5.609   3.388  0.1634  0.1714  0.1247
28274W        W44535  14.549  10.227  12.809  0.0429  0.3860 -0.1042
28275W        W44536  12.883   0.529  11.766  0.0732  0.2770  0.0211
28276W        W44537  18.569  10.796  14.398  0.0826 -0.2038 -0.0214
28277W        W44538  13.573  14.036   1.059  0.1866  0.1848  0.0063
28278W        W44539   4.107   9.170  12.795 -0.0969  0.0175 -0.1147
28279W        W44540  16.426   6.058   0.471  0.5537  0.0055  0.0034
28280W        W44541  11.163  18.424   1.670  0.0322  0.5884  0.3277
28281W        W44542   1.295   8.374  11.245 -0.1314  0.1054 -0.1370
28282W        W44543  14.222   6.576   2.669  0.0839 -0.0127  0.0470
28283W        W44544  12.396   4.805   0.686  0.0403  0.1714 -0.0896
28284W        W44545  13.886   2.226  14.414  0.1953  0.0765  0.1999
28285W        W44546  17.234   1.547  11.734 -0.4119 -0.1393  0.0009
28286W        W44547   9.726  12.814  12.156 -0.1693  0.1915  0.0670
28287W        W44548  16.127   5.352  13.023  0.0830  0.1521 -0.0824
28288W        W44549   5.344  19.370   3.186  0.3051 -0.2171  0.2951
28289W        W44550  10.665  13.110   5.950 -0.0881 -0.0415  0.0871
28290W        W44551  15.996   1.563  14.535 -0.1449  0.1494 -0.3026
28291W        W44552  17.387   9.484   2.215 -0.0677  0.1763  0.2503
28292W        W44553  10.351  13.356  14.486  0.1428 -0.1317 -0.0336
28293W        W44554   7.665   1.496   3.989  0.0001  0.2490 -0.0465
28294W        W44555   0.653  17.649  14.508  0.0511  0.0320  0.1808
28295W        W44556  19.367  12.764   3.758  0.1267  0.3181  0.2698
28296W        W44557   5.825  12.571   0.273  0.0754 -0.1315 -0.0779
28297W        W44558  14.744  17.882  12.615  0.1501 -0.1589  0.1322
28298W        W44559  16.983  17.217  10.644  0.1081  0.0946 -0.2298
28299W        W44560   7.659  10.549  10.386  0.0682  0.0220  0.0755
28300W        W44561  17.925   3.112  10.676 -0.0523  0.3133 -0.2210
28301W        W44562   9.102  11.426   1.053 -0.0953  0.0474 -0.1010
28302W        W44563   2.484  12.935   1.520 -0.1555 -0.0314  0.2241
28303W        W44564  15.821  15.451  13.830  0.1938 -0.3165 -0.3082
28304W        W44565   9.766   8.961  12.757  0.2494  0.1685  0.0984
28305W        W44566   5.437  18.759   4.982 -0.2760 -0.1039  0.2004
28306W        W44567  11.607  18.022  10.519  0.0291 -0.1597 -0.0903
28307W        W44568  10.574  14.061  12.256  0.0820 -0.2490  0.2887
28308W        W44569   4.765   2.140  13.165  0.1867 -0.1207  0.3211
28309W        W44570   3.738   2.070   3.602  0.0708  0.1676 -0.0805
28310W        W44571   1.459  11.914  10.433  0.2723  0.0931 -0.0811
28311W        W44572   5.874  12.039   5.337 -0.0503 -0.1214  0.2657
28312W        W44573   5.872  10.248   1.953 -0.3470 -0.0536 -0.2252
28313W        W44574   9.864   1.413   0.771  0.0189 -0.3546 -0.4027
28314W        W44575  17.602  15.158   2.780 -0.1041  0.2709 -0.0225
28315W        W44576   7.527  12.736   0.312 -0.3707 -0.1177 -0.1362
28316W        W44577  16.362   2.696   4.839 -0.3273 -0.0824  0.0231
28317W        W44578   2.434   2.868  12.153 -0.0301 -0.0369 -0.0121
28318W        W44579   5.633   4.106  11.477  0.2410  0.1103 -0.1871
28319W        W44580  15.616   0.862   0.795  0.1301  0.1674 -0.3343
28320W        W44581   5.832   3.001  14.236 -0.2724  0.0585 -0.1799
28321W        W44582   6.896  10.414   2.195  0.1150 -0.0459  0.1941
28322W        W44583  16.692  10.144  10.577  0.1570  0.1568  0.0302
28323W        W44584  19.247  10.374   2.990 -0.1444  0.0553  0.0751
28324W        W44585  14.529  17.657   2.352 -0.2759  0.2146 -0.1081
28325W        W44586   4.433  14.501   2.349 -0.1805 -0.0776  0.2790
28326W        W44587   7.401  13.158  10.750  0.1655 -0.0980  0.1433
28327W        W44588   7.011   6.019  14.329 -0.1066 -0.3048  0.1186
28328W        W44589  11.236  16.939   0.835 -0.1562 -0.0795 -0.0507
28329W        W44590  16.262   2.883   9.645 -0.1968 -0.1551  0.0704
28330W        W44591  14.360  10.184   5.195 -0.0009 -0.1497  0.2733
28331W        W44592  15.360   8.895   1.544 -0.3869  0.2499  0.0711
28332W        W44593   6.424  17.523   2.097 -0.0007  0.1415  0.2859
28333W        W44594   7.096  13.149   2.178 -0.0204 -0.1421  0.1176
28334W        W44595  10.501   0.115  11.575  0.1963  0.1281  0.1817
28335W        W44596  13.013   7.948   2.579 -0.2910 -0.0764  0.0753
28336W        W44597   5.271  18.202  13.697 -0.4100  0.0491  0.0708
28337W        W44598  13.523   3.946   9.511 -0.1113 -0.4097 -0.1110
28338W        W44599   9.570   4.701   3.830  0.1534 -0.0300  0.2726
28339W        W44600   1.406  19.328   5.430  0.0299  0.1862 -0.2580
28340W        W44601  18.939  14.172   0.582  0.0033  0.0276 -0.1550
28341W        W44602   2.838  17.150   0.213 -0.2850 -0.0288 -0.0966
28342W        W44603  18.444   1.153   3.515 -0.4010  0.1089 -0.0156
28343W        W44604  17.690  10.257   2.863  0.3317 -0.1532 -0.3706
28344W        W44605  17.992   7.577   4.539 -0.1372  0.1071  0.0106
28345W        W44606   7.725   3.310  13.324 -0.1056  0.1449  0.1153
28346W        W44607   9.318  14.910   1.868 -0.2493  0.1727 -0.0510
28347W        W44608  14.293   6.486  14.295  0.0070  0.0812  0.0705
28348W        W44609   0.091  11.017   4.314 -0.2221 -0.3723  0.0299
28349W        W44610  14.136   5.097   3.074  0.1669  0.1116  0.3568
28350W        W44611   9.996   1.649  12.365 -0.1275  0.3159  0.3128
28351W        W44612   5.462   4.636  12.259  0.3886  0.2428  0.1117
28352W        W44613  13.458  11.134   5.867 -0.0146  0.1225 -0.0201
28353W        W44614  13.426   3.671   0.189 -0.0028  0.4405  0.1012
28354W        W44615   6.295   6.681  10.648  0.1376 -0.0495 -0.0174
28355W        W44616   9.502   9.171   0.315  0.3966 -0.0480 -0.0255
28356W        W44617   8.560   7.029  12.693  0.0092 -0.1443 -0.1964
28357W        W44618  12.365  17.881  11.201  0.1338 -0.2081  0.0043
28358W        W44619   0.653   7.049  13.400 -0.1176 -0.2621  0.0347
28359W        W44620  12.112   4.548   5.368  0.0268 -0.0523  0.0835
28360W        W44621   7.419   4.322   3.950 -0.1024 -0.1569 -0.2112
28361W        W44622  16.100  16.058   1.353  0.1441  0.1106 -0.1680
28362W        W44623  10.334   2.252   4.135 -0.0019  0.3856  0.0241
28363W        W44624   9.467   8.970   3.565 -0.2841  0.0347  0.2900
28364W        W44625  11.795  11.741   2.868 -0.1626  0.1607 -0.0311
28365W        W44626  15.657   3.886   4.913  0.0868  0.1603 -0.1417
28366W        W44627  18.162  17.542   3.876 -0.2031  0.1760  0.1285
28367W        W44628   9.760  11.307  13.939 -0.4051 -0.0467 -0.0675
28368W        W44629   2.232   6.733   2.795 -0.1653 -0.0268 -0.0246
28369W        W44630   5.967   7.768   3.243 -0.0951 -0.3125  0.0330
28370W        W44631   3.687  16.671   1.998  0.0348  0.0270  0.3403
28371W        W44632   5.778  12.394  11.135 -0.1363  0.0983 -0.2694
28372W        W44633  12.911  18.351   0.525  0.0425 -0.1399  0.2820
28373W        W44634   9.751  14.014  13.461  0.0650  0.4531 -0.1307
28374W        W44635   2.386  14.825   1.829  0.2321  0.1057 -0.5243
28375W        W44636  14.017  14.016   0.251 -0.3682 -0.1996  0.0097
28376W        W44637   2.622  10.067  14.297 -0.1513 -0.0277 -0.0275
28377W        W44638   8.534   7.906  12.240  0.0138  0.0643  0.2779
28378W        W44639   6.262   8.845   0.044  0.1361 -0.5150 -0.1886
28379W        W44640   5.085  17.092   5.630 -0.0430  0.2459  0.0405
28380W        W44641  12.442   9.949   5.166 -0.1575 -0.1227  0.1386
28381W        W44642  16.996   1.138  11.348  0.0429  0.0985  0.0030
28382W        W44643  13.189   9.740   1.155  0.0179 -0.2082 -0.1789
28383W        W44644  13.022  11.593  12.421 -0.0530  0.2464 -0.1942
28384W        W44645  18.475  19.380   3.413  0.1982 -0.1008 -0.4550
28385W        W44646  15.744   2.970  13.140 -0.0689  0.1408  0.0888
28386W        W44647  16.729  14.514  13.275 -0.0788 -0.1830 -0.1324
28387W        W44648   2.301  15.737  10.854 -0.3999  0.0622 -0.0177
28388W        W44649   3.736  18.340  12.803 -0.0122 -0.2416 -0.1907
28389W        W44650  17.432   3.308  11.519 -0.1299 -0.1630 -0.2667
28390W        W44651   7.201  14.496  11.063  0.2690 -0.0401  0.2580
28391W        W44652   5.176   2.025  14.425 -0.1042 -0.0121 -0.0109
28392W        W44653   7.994  10.865   2.479 -0.0870  0.1923 -0.1894
28393W        W44654  13.969  10.525  12.688  0.1041  0.0759 -0.1856
28394W        W44655   4.296  13.416  12.106  0.1118 -0.1112 -0.0112
28395W        W44656  16.199   7.592  11.932  0.2338 -0.2303  0.0925
28396W        W44657   0.972   6.341   8.789  0.0627 -0.0230  0.2533
28397W        W44658   0.871   4.781   3.332 -0.0502  0.0546 -0.3808
28398W        W44659  17.489  14.577  13.625  0.3250  0.0085 -0.1781
28399W        W44660   4.882   6.470   8.810  0.2539  0.0389  0.1545
28400W        W44661  16.390   4.308   0.571  0.0386  0.0634  0.1380
28401W        W44662  10.593  11.146   5.597 -0.0139 -0.2441 -0.0970
28402W        W44663  14.934   6.584  11.930 -0.0312  0.4107  0.1133
28403W        W44664   2.276   3.339  12.209 -0.1553  0.0249 -0.0312
28404W        W44665  19.272  18.730   4.963  0.3441 -0.1203 -0.1895
28405W        W44666   4.241  18.429  10.422  0.2912  0.5941  0.0220
28406W        W44667  18.259   8.773   1.628  0.1595 -0.0738  0.1566
28407W        W44668   5.796  18.686  14.673  0.2232 -0.1916 -0.1632
28408W        W44669  12.940   9.277  11.160  0.0100 -0.1547  0.0830
28409W        W44670  12.868   3.064  14.332 -0.1570 -0.0596  0.1254
28410W        W44671  11.189   9.244   4.711  0.0677 -0.0667 -0.2514
28411W        W44672  17.277  17.636   3.720  0.2444  0.0709 -0.0217
28412W        W44673   4.780   3.535   1.912  0.1691 -0.0039  0.1540
28413W        W44674   1.324   2.986  10.355 -0.1593  0.2082 -0.1367
28414W        W44675   1.715   4.905  12.545  0.0999  0.1482 -0.1328
28415W        W44676  12.658  19.054   1.781 -0.3315 -0.0542 -0.0143
28416W        W44677  11.074  15.578   2.737  0.0124 -0.0437 -0.1193
28417W        W44678  17.125  17.967  13.141  0.1551 -0.3071 -0.0613
28418W        W44679   1.193  16.020  13.782 -0.3662 -0.2226 -0.0809
28419W        W44680  10.689  18.613   1.596 -0.0222 -0.2060  0.1302
28420W        W44681  13.572   8.968  13.853  0.1888  0.0947  0.0040
28421W        W44682  11.988   2.570  11.500  0.0746 -0.1239  0.1028
28422W        W44683  17.785  18.395   5.300 -0.1199  0.1103 -0.0800
28423W        W44684   3.795  14.718  12.407  0.1095 -0.2245  0.5526
28424W        W44685  16.879  10.792   4.620  0.1206 -0.0223 -0.1223
28425W        W44686   5.242  12.033  11.846  0.2920  0.1896 -0.0758
28426W        W44687  18.359  14.076   4.087  0.1061 -0.1832 -0.0346
28427W        W44688   1.629  19.102   2.612 -0.0359  0.3390 -0.0911
28428W        W44689  18.708   1.336   2.529 -0.0001 -0.2086 -0.0361
28429W        W44690  13.276  18.269   2.896  0.1696  0.2523 -0.1754
28430W        W44691  15.308  18.177  12.899  0.1113 -0.4202  0.2910
28431W        W44692   8.719  10.928  12.287  0.0684 -0.0282  0.1821
28432W        W44693   9.425   5.123  13.661 -0.0159  0.4319 -0.2031
28433W        W44694  14.197  19.421   2.828 -0.0221  0.4671 -0.0764
28434W        W44695  18.685   9.987  11.968  0.3314 -0.1438  0.0343
28435W        W44696   1.156   7.166   4.379 -0.0479  0.0266  0.0564
28436W        W44697  16.663  16.118   9.604 -0.1949 -0.0507  0.0507
28437W        W44698  17.685   2.536   3.825  0.1869  0.0893 -0.0666
28438W        W44699  17.642  16.563  12.961  0.1136  0.0268 -0.2530
28439W        W44700   1.224  18.149   0.542 -0.2570 -0.2783 -0.1611
28440W        W44701   2.336   2.378  11.401 -0.0753  0.3482 -0.4117
28441W        W44702   1.025   5.258   2.220 -0.1246 -0.2255  0.1464
28442W        W44703  18.791   1.496   4.951  0.1414  0.0982  0.0542
28443W        W44704   3.144   8.231   0.838  0.1062  0.1216  0.1288
28444W        W44705  12.501  12.200   2.088  0.0584  0.0622 -0.0998
28445W        W44706  12.585  14.151   0.561  0.1132 -0.1573 -0.3068
28446W        W44707   4.679   1.426   2.379  0.0877 -0.1728 -0.1664
28447W        W44708  16.528   2.110   9.983 -0.1015 -0.1623  0.1859
28448W        W44709  15.236  10.133   2.172 -0.1165  0.2853 -0.0523
28449W        W44710   3.641  10.705   3.257 -0.0113  0.2530 -0.3839
28450W        W44711  18.602  18.703   1.903  0.0251 -0.1519 -0.0408
28451W        W44712   1.246   3.490   1.326  0.3601 -0.1067  0.2037
28452W        W44713  14.460  19.221  13.401 -0.1633 -0.0176 -0.0321
28453W        W44714   3.359  16.538   1.634  0.0523  0.1518  0.0160
28454W        W44715   5.652   5.539  13.547 -0.2070  0.1356  0.0871
28455W        W44716  14.828  13.070  13.370 -0.0166  0.1512 -0.2849
28456W        W44717  14.158  17.230  14.209 -0.1097  0.0696  0.0228
28457W        W44718  17.010   6.923   2.429  0.2990  0.1343  0.1884
28458W        W44719   4.068  14.785  13.324 -0.0226 -0.1264 -0.0866
28459W        W44720  13.579   4.104   0.483  0.0100  0.1599 -0.1640
28460W        W44721  11.084   9.916   1.968  0.2410 -0.2178  0.1400
28461W        W44722   1.345   1.842  12.955  0.0320 -0.0975 -0.0990
28462W        W44723   6.242   1.881   3.065  0.1443 -0.0660  0.6121
28463W        W44724  14.005  15.973   1.995  0.0139 -0.1209  0.1386
28464W        W44725   1.408   7.228   0.485 -0.0827 -0.2334  0.0529
28465W        W44726   4.379  19.335  12.483 -0.1144 -0.1748 -0.0564
28466W        W44727  17.405  11.527  10.376  0.0427  0.3270 -0.1429
28467W        W44728  11.095  10.315   4.759 -0.0225  0.0054  0.2757
28468W        W44729  12.535   4.141   3.013  0.3676  0.5274 -0.2251
28469W        W44730   7.991   8.908   1.427  0.1318  0.1430 -0.1973
28470W        W44731   7.472   1.979   3.078  0.0389  0.0692  0.4655
28471W        W44732   0.708  11.476  14.557  0.0676 -0.2914  0.0438
28472W        W44733   9.634   0.932  12.740 -0.0207 -0.0502 -0.0667
28473W        W44734  11.419  13.741  12.516  0.0472 -0.1103 -0.1805
28474W        W44735  18.310  16.031  12.420 -0.0529 -0.0526  0.0832
28475W        W44736  10.858  15.124  11.136  0.1431  0.0714  0.1658
28476W        W44737  10.853  13.918   2.903  0.0753  0.0227 -0.3672
28477W        W44738   5.741   0.134  14.185  0.0395 -0.0610 -0.0315
28478W        W44739   6.444   0.214   3.066  0.1183  0.0412 -0.1242
28479W        W44740   5.598  13.824  10.791 -0.0027  0.2556 -0.2199
28480W        W44741   8.141   2.446  13.971 -0.3127 -0.2073  0.2297
28481W        W44742   7.576  16.250   3.343 -0.1992  0.0835  0.1624
28482W        W44743  17.911  18.882   0.580  0.0031  0.2061 -0.1025
28483W        W44744   6.520  18.487   3.273 -0.3166 -0.3546  0.1739
28484W        W44745  16.541  13.664   1.008  0.0558 -0.1506  0.0066
28485W        W44746   7.618  17.147  10.155 -0.0535  0.2149 -0.0464
28486W        W44747  18.657   9.024  14.794 -0.0427 -0.1590 -0.1658
28487W        W44748   4.707  12.795  14.024 -0.0405 -0.1202 -0.0456
28488W        W44749   9.683  16.579   3.953  0.1516  0.0598 -0.1684
28489W        W44750  14.521   5.610   4.914  0.0960 -0.0716 -0.4200
28490W        W44751   8.928  17.943  10.713 -0.0550  0.4238 -0.3654
28491W        W44752  19.141   5.749   3.461 -0.1300  0.1675  0.1468
28492W        W44753  13.445   3.322  10.586  0.0760  0.3674  0.0963
28493W        W44754   9.817  13.749   3.656 -0.3083 -0.0511 -0.1386
28494W        W44755  15.001   4.128  10.323  0.3283 -0.0386 -0.0198
28495W        W44756   7.806  18.763  14.654  0.1665  0.1239  0.3416
28496W        W44757   5.124  18.148   3.810 -0.3216  0.1286  0.2237
28497W        W44758  18.436  17.719  12.664 -0.2417  0.0450  0.2365
28498W        W44759  16.449   8.959  10.605  0.0733  0.0708 -0.3978
28499W        W44760   5.648   7.391   1.365  0.0808  0.2895 -0.0132
28500W        W44761  10.482  13.117  12.550  0.2470  0.1644  0.2603
28501W        W44762   8.609   1.289   1.153  0.0134  0.2488  0.1438
28502W        W44763   3.801   4.909  13.765  0.1500 -0.2016  0.1851
28503W        W44764  16.223   4.538   4.393 -0.0388 -0.2444 -0.2304
28504W        W44765   7.675   7.007   1.332  0.0188 -0.0192  0.0086
28505W        W44766  10.074   8.985  12.131  0.2046 -0.0639  0.2064
28506W        W44767   4.120   3.036   2.852 -0.0776  0.4217 -0.0836
28507W        W44768  15.960   5.169  14.674  0.2570  0.0456  0.2360
28508W        W44769   0.597   4.487  10.229 -0.0287 -0.2246  0.0655
28509W        W44770  13.016   5.756   5.375  0.2366 -0.0586  0.0075
28510W        W44771   2.222   7.021  12.802 -0.1375  0.0359 -0.0957
28511W        W44772   1.368  16.107   2.708  0.0258 -0.4291  0.1732
28512W        W44773   0.401  17.399   5.167  0.0056  0.1778  0.1637
28513W        W44774  17.545   5.320  11.975  0.2077 -0.2830 -0.2567
28514W        W44775  15.106  17.119   3.651 -0.1947  0.2281  0.1446
28515W        W44776   3.265   6.820  13.561 -0.2029  0.0524  0.4711
28516W        W44777   3.845   1.087   1.483  0.1758  0.2363 -0.4004
28517W        W44778  10.586  16.770  12.115 -0.4551  0.3423  0.2386
28518W        W44779   9.132  15.259  14.071  0.3000 -0.1099 -0.2989
28519W        W44780   6.043  11.898  12.044 -0.1425  0.2248  0.0908
28520W        W44781  10.389  10.032   2.824  0.0577  0.0535  0.1482
28521W        W44782   3.395  11.854  14.159  0.1073  0.1632 -0.0254
28522W        W44783   1.246   3.881   1.894  0.0566 -0.1636 -0.4050
28523W        W44784   7.598   7.437   0.432 -0.1839 -0.2923 -0.0526
28524W        W44785   7.681  19.084  12.410  0.0394 -0.3035  0.0246
28525W        W44786  18.077   7.363   5.413 -0.1074 -0.2930  0.0623
28526W        W44787  10.832   4.476   3.322  0.2769  0.1265  0.1810
28527W        W44788   1.269  10.125  14.397  0.0387 -0.2173 -0.0310
28528W        W44789  18.516  17.248   4.618 -0.1244 -0.1300 -0.3045
28529W        W44790   9.246  12.604  14.398  0.3339  0.2485  0.0084
28530W        W44791   6.780  13.828   4.622 -0.1430 -0.3201 -0.3018
28531W        W44792   4.771   5.612  13.544  0.1673 -0.0500  0.0583
28532W        W44793  15.805   0.255   3.104  0.0113 -0.0560  0.1060
28533W        W44794   8.806   3.687  10.624 -0.0653 -0.2183 -0.1060
28534W        W44795   7.604   5.106   2.843  0.1529 -0.1592  0.1275
28535W        W44796   4.933  15.741   3.157 -0.1711  0.0352  0.0019
28536W        W44797   5.436   7.872   0.069 -0.2959 -0.1842 -0.1631
28537W        W44798   8.515   6.761  12.273 -0.0518  0.2685 -0.0353
28538W        W44799  15.240  11.570  14.394 -0.2509  0.0157 -0.0432
28539W        W44800   1.754  16.083   4.614  0.2170 -0.0363  0.2340
28540W        W44801   4.484   5.233   3.331 -0.2374 -0.4479  0.0387
28541W        W44802  19.319   0.234  10.165  0.0180  0.1836 -0.0339
28542W        W44803   3.174   3.468  11.992 -0.0434 -0.1120 -0.0630
28543W        W44804   6.129  16.125  12.019  0.2408  0.0444 -0.1386
28544W        W44805   6.568  13.053   2.040 -0.0862  0.2330  0.0320
28545W        W44806  14.131  12.988   4.749  0.0976  0.1035 -0.1151
28546W        W44807   5.888   1.968  12.671 -0.0113 -0.0982 -0.0267
28547W        W44808  19.243   6.504  10.169 -0.1539 -0.1440 -0.1431
28548W        W44809  16.769   3.810   4.014 -0.0288 -0.1485  0.0055
28549W        W44810   7.613   0.983   3.082  0.1010  0.0202  0.1498
28550W        W44811   3.158  16.551   4.452 -0.0943 -0.0010  0.3865
28551W        W44812   1.641   3.219  12.755 -0.1182  0.1032 -0.3203
28552W        W44813   0.626  15.496  14.790  0.2235  0.1069  0.3088
28553W        W44814   8.940  17.785  14.294 -0.0421 -0.3240  0.0786
28554W        W44815   2.311   6.260  14.101  0.0401 -0.0935 -0.0989
28555W        W44816   8.027   8.415  14.608  0.1650  0.3214 -0.2401
28556W        W44817  15.197   0.219  12.911 -0.0192  0.1653  0.2038
28557W        W44818  10.827  18.181  13.673  0.0403 -0.2804 -0.2052
28558W        W44819  18.350   1.846   2.131 -0.2069  0.1193 -0.0803
28559W        W44820  12.128   2.441  13.728 -0.0308 -0.0161  0.0845
28560W        W44821   7.714  16.749   1.357  0.0324 -0.0390 -0.0744
28561W        W44822  12.206   8.594  10.696  0.0157  0.0738 -0.2385
28562W        W44823   9.692   3.845   4.869  0.1889  0.1805 -0.3204
28563W        W44824  16.591   9.824  13.305  0.0053  0.0647  0.0329
28564W        W44825  17.902  10.403  10.405  0.1979 -0.1063  0.1190
28565W        W44826   0.818   2.761   4.473  0.1694 -0.1379 -0.1117
28566W        W44827  17.542   4.814   4.124 -0.1324 -0.3690 -0.0702
28567W        W44828   7.169   5.923   1.902 -0.1669  0.0764 -0.2198
28568W        W44829  15.930  16.900   0.138 -0.2146  0.0108  0.0851
28569W        W44830   2.598   2.808  10.663  0.0172 -0.3420  0.0477
28570W        W44831  19.168   2.860   3.213  0.0036  0.1469  0.1229
28571W        W44832  18.697   5.924   3.585 -0.0932  0.3345 -0.1457
28572W        W44833  10.996   3.474   2.142  0.0566 -0.0080  0.2740
28573W        W44834  13.141  13.644  11.392 -0.2436 -0.3165 -0.0809
28574W        W44835  15.668  14.656   1.634  0.0722  0.4966  0.0653
28575W        W44836   5.616  18.972   3.215 -0.4442 -0.0005 -0.2333
28576W        W44837  11.461  17.807   3.125 -0.2426  0.0959 -0.0618
28577W        W44838   4.942   2.876   2.330 -0.1524 -0.0773 -0.2716
28578W        W44839  14.902   0.311   1.219 -0.1304 -0.2918  0.3412
28579W        W44840   4.336  14.244  13.151 -0.1158 -0.0961 -0.0187
28580W        W44841   4.408   2.848   8.816 -0.0605 -0.0870 -0.1795
28581W        W44842   9.762   9.949  13.640 -0.0830 -0.2444 -0.0264
28582W        W44843   8.356   9.458  12.503 -0.0215 -0.0363 -0.0477
28583W        W44844  10.067   6.154   1.405 -0.0560 -0.1098  0.4105
28584W        W44845  17.980   3.404  12.869 -0.1156  0.3165 -0.0572
28585W        W44846  13.191   0.642   0.793  0.0676  0.0135  0.1133
28586W        W44847   5.543   5.610  11.284  0.0163  0.1163  0.0974
28587W        W44848   8.683   6.326  13.387  0.0414  0.0158 -0.2444
28588W        W44849  12.422   8.870  13.591 -0.2157  0.2493 -0.1908
28589W        W44850   2.042   2.114   0.387  0.3688  0.0867  0.1714
28590W        W44851   3.589  17.572   2.850 -0.0144 -0.4116 -0.0542
28591W        W44852  15.713  18.732  14.060 -0.2709  0.2251  0.1415
28592W        W44853   6.013   1.053   2.098 -0.1156 -0.2001 -0.1913
28593W        W44854   0.180   2.824  10.175 -0.1744  0.0765  0.3170
28594W        W44855  12.090   6.738   2.393 -0.0042  0.0652 -0.0655
28595W        W44856   3.669   9.243   2.987 -0.2307  0.2098  0.1231
28596W        W44857   8.988   4.992  10.342 -0.0623 -0.0196 -0.2855
28597W        W44858  14.462   2.564   3.124 -0.0262  0.2871  0.0006
28598W        W44859  11.116   3.879  11.878  0.3197  0.3635  0.3297
28599W        W44860  14.263   8.700  11.433  0.0634 -0.0488 -0.0379
28600W        W44861   1.481   8.828   3.243 -0.1039 -0.1210 -0.1698
28601W        W44862   3.542   7.077  13.255 -0.1068 -0.1256  0.0002
28602W        W44863  11.547  13.374  13.559 -0.2368  0.0017 -0.0295
28603W        W44864   8.974  16.570   3.414  0.1396  0.1123  0.1724
28604W        W44865  11.007   4.007  10.792  0.1201  0.0758  0.1905
28605W        W44866  13.462   8.571   3.815  0.3437  0.3574 -0.0918
28606W        W44867  16.374  15.748   4.347  0.0711  0.0386 -0.0593
28607W        W44868  11.757   6.913   0.032  0.1181 -0.1682 -0.0469
28608W        W44869  15.647   4.980   4.533  0.2917 -0.1006  0.1939
28609W        W44870   9.758   4.819  11.346  0.1814 -0.1610  0.0952
28610W        W44871   5.583   8.599   2.263  0.2423 -0.0452  0.0114
28611W        W44872   0.542   0.693   2.475  0.0131 -0.2322  0.3847
28612W        W44873   0.501   1.440   2.962 -0.0564  0.2594 -0.0380
28613W        W44874  19.484  13.988   1.547 -0.0190 -0.0117 -0.2136
28614W        W44875  14.807   3.675  14.133 -0.1501  0.0815 -0.1547
28615W        W44876  19.401  17.450   4.915 -0.0224 -0.2703  0.2117
28616W        W44877   4.366   8.220  14.519 -0.0241  0.2191 -0.0615
28617W        W44878  16.369  12.710  14.013 -0.0319 -0.0676 -0.3806
28618W        W44879   1.718   4.470   5.010  0.3669  0.1696  0.1200
28619W        W44880  16.631   2.228  14.005 -0.0093 -0.0558  0.0508
28620W        W44881   4.930  16.349   4.931 -0.0406  0.4677 -0.0318
28621W        W44882  16.837   6.709   2.837  0.0059 -0.1408  0.0536
28622W        W44883   1.788  18.175   1.518  0.1778 -0.2098 -0.0308
28623W        W44884  11.211   1.900   1.624 -0.0851  0.1458  0.0620
28624W        W44885  17.773  15.349   0.562 -0.0396 -0.1606  0.0766
28625W        W44886   7.900  10.520   0.895 -0.2426  0.0442 -0.3111
28626W        W44887  15.019   1.575   3.917 -0.3172  0.3682 -0.0170
28627W        W44888  11.678  14.254   3.531 -0.0407 -0.0310 -0.1638
28628W        W44889  16.614  13.986  12.126  0.0848 -0.0872 -0.1183
28629W        W44890  14.537   0.347   1.589 -0.3150 -0.3116  0.0079
28630W        W44891   0.196   6.524   2.398 -0.3736 -0.0324  0.0259
28631W        W44892   3.080  14.597   2.060  0.2009  0.1003 -0.2057
28632W        W44893  10.341   9.022  13.939 -0.1258  0.2710  0.2203
28633W        W44894   0.068  18.632  12.593  0.0981 -0.1304 -0.1562
28634W        W44895   2.100  11.019  11.260  0.2751  0.2786 -0.2379
28635W        W44896  12.107   9.255  11.174  0.0184  0.1021 -0.0268
28636W        W44897  14.772   1.172  12.252 -0.0291 -0.2012 -0.2000
28637W        W44898   2.294   3.248  13.666 -0.1475 -0.1997  0.2251
28638W        W44899   1.097   2.523   2.497  0.4653  0.0429 -0.2412
28639W        W44900  14.831  15.288  12.657  0.0670 -0.0204  0.1710
28640W        W44901  13.802   0.001  13.850 -0.3065 -0.0001 -0.0636
28641W        W44902  19.070  12.084  13.912 -0.1245  0.1085  0.2730
28642W        W44903   3.533   7.714   4.868 -0.1188 -0.0138 -0.1393
28643W        W44904  13.248  15.499   3.265 -0.3550 -0.0543  0.1804
28644W        W44905  11.919   1.230   1.004 -0.0000  0.0244  0.1996
28645W        W44906  10.563  14.547   1.143 -0.1863 -0.3170 -0.1777
28646W        W44907  16.915  13.002   3.811 -0.1282 -0.2605 -0.1968
28647W        W44908   7.101   5.420  13.702  0.3361  0.1719 -0.1239
28648W        W44909  10.346  18.988  12.320  0.2252  0.1793  0.0228
28649W        W44910  17.671  16.404   3.461  0.1494  0.0136  0.2568
28650W        W44911  12.549  16.410   3.208  0.3713 -0.1585 -0.3779
28651W        W44912   0.083  15.205   4.077  0.2189  0.2665 -0.1966
28652W        W44913  10.375   5.744   1.441 -0.4628 -0.0155  0.0820
28653W        W44914   4.661  10.694   3.164  0.0739 -0.3648 -0.1573
28654W        W44915   0.214  18.866  11.102  0.1492  0.0781 -0.2331
28655W        W44916   9.978   0.738  13.209 -0.1919 -0.3876  0.0198
28656W        W44917   8.271  18.798   2.510  0.1686  0.1773  0.2694
28657W        W44918   2.935   3.495  12.919 -0.0272  0.0263 -0.2708
28658W        W44919  13.972  17.372   5.990  0.2222 -0.0908 -0.0015
28659W        W44920  12.459   6.276   1.345  0.0187 -0.2501  0.0667
28660W        W44921  18.254  11.058  12.456 -0.0866  0.0095  0.2182
28661W        W44922  16.415  15.021   3.583 -0.2721 -0.0224  0.0662
28662W        W44923   6.722  16.835  12.616 -0.1567 -0.0985  0.2566
28663W        W44924   4.680  16.247  10.673 -0.0547  0.0531 -0.2554
28664W        W44925   7.549  16.044  12.425  0.0844 -0.1271  0.2324
28665W        W44926  14.021   0.886  12.560 -0.1879 -0.0606 -0.0979
28666W        W44927   5.614   1.226  12.090  0.0059  0.3377  0.0742
28667W        W44928   1.393  14.209   5.267  0.0277 -0.2544  0.3172
28668W        W44929   9.649   8.266   1.008  0.0832  0.1441 -0.1365
28669W        W44930   8.862  14.132   4.452  0.0644 -0.0380 -0.2226
28670W        W44931  18.426   4.405  12.369 -0.0015  0.1384 -0.0563
28671W        W44932   7.011   4.249   0.961 -0.2080 -0.3441  0.0363
28672W        W44933   7.210  15.868  10.200 -0.0981 -0.2032  0.0180
28673W        W44934  15.563   3.970   1.060 -0.0079 -0.1597 -0.0621
28674W        W44935  19.394  16.507  14.025  0.1533  0.3490  0.1761
28675W        W44936   1.316   9.963  10.718 -0.2816 -0.1111 -0.1292
28676W        W44937  18.384   3.598   2.241  0.0478  0.0982  0.0361
28677W        W44938   8.267   2.651  11.739  0.2082  0.0362 -0.4650
28678W        W44939   1.228   0.986  11.782  0.0651 -0.0020 -0.0998
28679W        W44940  19.367   1.101   1.274  0.1321  0.0400  0.2545
28680W        W44941   6.591   4.037   2.230  0.1428  0.2165  0.0607
28681W        W44942  13.231   7.643   0.524 -0.2632 -0.1978 -0.0597
28682W        W44943   8.470  11.811  10.060 -0.0428 -0.0388  0.2775
28683W        W44944  14.735   3.175  13.231 -0.4673  0.1841 -0.3220
28684W        W44945   3.230  12.971  10.236 -0.0495 -0.2809 -0.3428
28685W        W44946   5.216  13.452   2.316 -0.1126  0.1112  0.2994
28686W        W44947  18.221   9.230  14.759 -0.1524 -0.0634  0.1297
28687W        W44948   9.113   9.044   2.031 -0.0387 -0.4131  0.0156
28688W        W44949   9.679  17.501  14.035  0.2427 -0.0511 -0.2862
28689W        W44950  10.707  18.583  13.985 -0.1621  0.0161  0.2267
28690W        W44951  16.720  13.344   4.279  0.2247  0.2681 -0.4540
28691W        W44952   0.093  12.348   3.325  0.2530  0.2662 -0.0709
28692W        W44953   9.377   6.385  12.428  0.0599 -0.0169  0.1615
28693W        W44954  12.720   2.664   1.515  0.1584  0.2391 -0.0085
28694W        W44955   0.963  12.788   1.045 -0.2899 -0.0453  0.0049
28695W        W44956  19.408   0.545  13.869 -0.0412 -0.0007  0.0568
28696W        W44957   9.097   9.666  13.631  0.2379  0.0005  0.2336
28697W        W44958  10.033  16.708  12.362  0.0232 -0.0089 -0.3119
28698W        W44959  11.288  18.320  12.238 -0.2079  0.0321  0.1185
28699W        W44960   7.587   6.087   2.798  0.2042 -0.0262  0.2553
28700W        W44961   6.852  10.589   3.967  0.0492  0.1147  0.0457
28701W        W44962   5.090  14.084   3.779 -0.0130 -0.1833  0.0184
28702W        W44963  11.647   1.528   1.690  0.0171  0.0985 -0.3886
28703W        W44964  17.619   8.968  11.913 -0.2032  0.0467 -0.2811
28704W        W44965   4.638   8.540   1.479 -0.0444 -0.2630  0.0395
28705W        W44966  17.403  11.643   1.932  0.0515 -0.1887  0.1159
28706W        W44967  11.555  18.941   3.667 -0.1789  0.2137  0.0774
28707W        W44968   1.620   4.721   2.971  0.1485  0.2799 -0.0158
28708W        W44969  12.590   7.685  12.886 -0.0733  0.1504  0.1448
28709W        W44970  18.878   0.879   3.316  0.3642 -0.2987 -0.0220
28710W        W44971  15.217   4.533  14.585  0.0508 -0.0336  0.2860
28711W        W44972   6.954   3.535  14.576 -0.1046 -0.2205  0.0612
28712W        W44973  19.369   1.976   0.360 -0.2989  0.0590 -0.1034
28713W        W44974   8.524  16.690   3.354 -0.0520 -0.1772 -0.1217
28714W        W44975  13.368  18.135   1.312 -0.0819  0.0141  0.1245
28715W        W44976  14.107  17.826   2.468  0.0757 -0.0329  0.0040
28716W        W44977  11.849   0.967  13.925 -0.0361 -0.3656  0.3280
28717W        W44978   6.277  18.915   3.193 -0.1549  0.0322 -0.2205
28718W        W44979  14.422   5.109  11.863 -0.0971 -0.2447  0.2236
28719W        W44980   7.767  10.714   1.411 -0.0439  0.1177  0.0820
28720W        W44981   5.617   8.966   2.867  0.0472  0.0029 -0.3702
28721W        W44982   0.364  10.217   3.675 -0.0240 -0.3689  0.4804
28722W        W44983  15.039  18.845  12.894  0.1128  0.2755 -0.0531
28723W        W44984   8.679  15.483  13.898  0.1640  0.2305 -0.0784
28724W        W44985   1.964   4.983  10.913  0.1581 -0.0561  0.2701
28725W        W44986   9.871   5.244  11.583 -0.1681  0.0086 -0.2255
28726W        W44987   2.657  11.443   5.200  0.5375  0.3065 -0.0681
28727W        W44988   2.201  11.302   2.474 -0.1398 -0.1749  0.1368
28728W        W44989   3.000   9.105  13.820  0.0930 -0.2175  0.3429
28729W        W44990  17.839   0.272   1.008 -0.0866 -0.0542 -0.3798
28730W        W44991   3.449   2.167  11.679  0.0341 -0.0293 -0.0727
28731W        W44992   4.832  12.260   3.528 -0.0243  0.3039  0.1004
28732W        W44993   9.630   9.883   1.731 -0.3113 -0.1926 -0.3125
28733W        W44994   8.504   8.153  12.885 -0.0029 -0.2266 -0.1777
28734W        W44995  16.449   7.510  10.678  0.1487  0.3451 -0.1458
28735W        W44996  17.749   0.781   1.917 -0.3265  0.1303 -0.1174
28736W        W44997  15.056   6.746   3.683 -0.1497 -0.0333  0.2154
28737W        W44998   3.776   4.096   0.640  0.1516  0.0192 -0.1178
28738W        W44999  17.548   0.720   3.729 -0.2412 -0.2244  0.1865
28739W        W45000   4.964   6.500   1.166  0.2344 -0.0352  0.0688
28740W        W45001  12.207  17.874   5.315  0.1419  0.4002  0.3133
28741W        W45002  10.465   5.613   2.060 -0.1046  0.0567 -0.1008
28742W        W45003  16.610  14.411  12.477 -0.1208  0.0866  0.1090
28743W        W45004   3.268   3.878  10.290  0.0111 -0.0289 -0.2081
28744W        W45005  13.094  15.250  11.487  0.1757 -0.0336  0.0543
28745W        W45006   0.873   5.149  14.634  0.3469 -0.3393 -0.0922
28746W        W45007   9.084  13.311   0.490  0.2931 -0.0936 -0.2113
28747W        W45008  16.553   0.767   4.825  0.2156 -0.1418  0.5333
28748W        W45009   3.294  12.894   5.050  0.1710 -0.0075  0.0418
28749W        W45010  15.573  16.056   4.859 -0.1057 -0.2543 -0.1504
28750W        W45011  15.155   6.398   4.894 -0.0540 -0.0610  0.0571
28751W        W45012  15.116  15.619   2.277 -0.2027 -0.1033 -0.0215
28752W        W45013   3.601   9.507   1.526  0.2251  0.1423 -0.0815
28753W        W45014   0.180  19.270   2.704  0.0841 -0.2560 -0.0170
28754W        W45015   1.044   0.600   9.054 -0.0165 -0.0182  0.2091
28755W        W45016  10.458  16.928  12.559  0.1018  0.5325  0.0418
28756W        W45017  11.237   5.653   2.347 -0.1489  0.1027 -0.2080
28757W        W45018   9.411  16.111  14.152 -0.0589  0.0672 -0.0317
28758W        W45019  18.464   9.940  11.505 -0.2742  0.3090  0.4904
28759W        W45020   6.252  19.265   2.344 -0.3863 -0.3064  0.0629
28760W        W45021   6.753   2.122  12.944  0.4883  0.1209 -0.1605
28761W        W45022  18.132  16.548  13.274  0.1747  0.1780 -0.0175
28762W        W45023  12.997  18.657   2.093 -0.1310 -0.2615  0.3304
28763W        W45024  17.295  19.354   2.735  0.0977  0.1172  0.0869
28764W        W45025   4.910  18.106  14.597  0.0062 -0.1007 -0.2085
28765W        W45026   9.593   2.407   1.295  0.1478 -0.1911 -0.1876
28766W        W45027  16.864  13.135   4.712 -0.2373 -0.0750 -0.3958
28767W        W45028  17.721  19.366   2.974 -0.2714 -0.0184  0.2902
28768W        W45029   8.827   6.295  12.349 -0.0552  0.1660  0.0375
28769W        W45030   9.535  11.378  12.975  0.0975  0.4867  0.0551
28770W        W45031  13.042   8.488   4.206 -0.1030 -0.0730  0.2515
28771W        W45032   5.760  15.418   1.602 -0.3598  0.3577  0.2120
28772W        W45033   5.186  10.389   0.567 -0.2592  0.0491 -0.3319
28773W        W45034   7.289   9.478  14.753 -0.3013  0.1709 -0.1054
28774W        W45035   9.708  18.262  13.434  0.2750 -0.0081 -0.3797
28775W        W45036   3.183  16.814   2.892 -0.0065 -0.1367  0.2529
28776W        W45037  14.190   7.393   2.905 -0.0049  0.0398 -0.2911
28777W        W45038  13.346   6.724   3.285  0.1078  0.1483  0.3916
28778W        W45039  12.239   8.081   1.299  0.1456 -0.2217 -0.0522
28779W        W45040   2.119  19.428   1.514 -0.3464  0.2387  0.0148
28780W        W45041   9.263  12.345   4.263 -0.0805  0.1250  0.1536
28781W        W45042  17.643   2.397   2.439  0.5884 -0.1585 -0.1041
28782W        W45043   3.441  11.499   2.523  0.0499 -0.4349 -0.0740
28783W        W45044   5.909   8.175   4.094 -0.2444  0.1104  0.1293
28784W        W45045   3.001  11.896   3.551 -0.4048 -0.0480  0.0114
28785W        W45046   8.642   5.815  11.118  0.1338  0.0350 -0.0609
28786W        W45047   1.471  12.020   1.392 -0.1622  0.0299 -0.3656
28787W        W45048   9.989  11.870  11.040 -0.1092 -0.0221  0.0337
28788W        W45049   0.459   7.243  14.471  0.4062  0.4455 -0.0168
28789W        W45050  12.613   4.402   3.799 -0.2785  0.2968 -0.1539
28790W        W45051   9.883   6.633   0.586 -0.2199 -0.2716 -0.0126
28791W        W45052  13.395  17.849  14.568  0.0387 -0.1668  0.0927
28792W        W45053  13.819  14.554   2.333  0.1014  0.0293  0.1148
28793W        W45054  13.800  16.360  12.997 -0.0124  0.0224  0.0680
28794W        W45055   2.798  16.742  12.090 -0.3891 -0.0256 -0.0622
28795W        W45056  18.253  14.172  13.474 -0.2554 -0.1583 -0.1697
28796W        W45057   4.962  18.844  11.792  0.2813 -0.2149 -0.5141
28797W        W45058   1.907   4.876   1.916 -0.1281  0.0064  0.2196
28798W        W45059  14.718  11.516  14.449  0.0187 -0.1594  0.0492
28799W        W45060   6.291  10.135  10.780 -0.0397 -0.2683 -0.0271
28800W        W45061   8.099   8.154  10.206 -0.2251 -0.1722 -0.0998
28801W        W45062  18.948  16.986   5.858 -0.0026 -0.0070 -0.0575
28802W        W45063  15.081   6.940  10.320  0.2647 -0.0109  0.2899
28803W        W45064  13.675   6.204   0.678 -0.3352  0.0335  0.2531
28804W        W45065   6.585   3.726  12.284  0.1821 -0.1715  0.2865
28805W        W45066  17.087   3.565  13.398  0.1837  0.3201  0.3238
28806W        W45067   2.312   1.566  13.886 -0.0094  0.0183  0.0970
28807W        W45068  10.003   3.209   0.915 -0.0987 -0.0235  0.1802
28808W        W45069   1.576  18.932   1.968  0.1757  0.0784 -0.0618
28809W        W45070   2.717  12.863  11.889 -0.0776  0.0212 -0.0446
28810W        W45071   2.624  12.190   0.557  0.1468  0.1951  0.4171
28811W        W45072  14.897  19.364   4.981 -0.0710 -0.4573 -0.2873
28812W        W45073  15.668  17.952  13.668  0.3152  0.1225 -0.1825
28813W        W45074  16.761   3.860  11.392  0.1857 -0.1019 -0.0486
28814W        W45075  11.065  18.497   2.668 -0.1927 -0.2114  0.0117
28815W        W45076   5.546  18.865   0.292 -0.0173  0.1678 -0.0189
28816W        W45077   6.162  13.139  11.778 -0.1732  0.3082  0.0972
28817W        W45078  11.913   5.444   1.810 -0.1088 -0.0203 -0.1153
28818W        W45079   8.973  15.047  12.569 -0.1335 -0.0122 -0.2486
28819W        W45080  13.597  16.449  13.532  0.2841  0.0224  0.0439
28820W        W45081  16.992   1.036  13.407  0.2143 -0.0147 -0.0408
28821W        W45082   2.144  12.455  14.669  0.3136 -0.0159 -0.1301
28822W        W45083  10.612   5.480  11.307  0.1831  0.0155 -0.3706
28823W        W45084  19.116   0.567   5.056  0.2228  0.2687 -0.0916
28824W        W45085   5.579  11.042   3.060  0.1493 -0.1550 -0.1693
28825W        W45086   4.298  19.077   2.406  0.0748  0.0016 -0.2077
28826W        W45087   9.926   6.545  13.102 -0.0816 -0.0572 -0.2217
28827W        W45088   9.085   5.931   4.802  0.2137 -0.1341 -0.0114
28828W        W45089   2.661  10.488  11.966 -0.0829  0.0504 -0.3127
28829W        W45090   4.711   3.747   2.687  0.2393  0.0223  0.0316
28830W        W45091   6.557  16.880   4.365  0.1734  0.1964 -0.3035
28831W        W45092   4.684  19.230   4.827  0.3115  0.1566  0.3572
28832W        W45093   0.996  17.599   0.426 -0.0901  0.3723  0.4055
28833W        W45094  13.532   7.221  12.792 -0.1493  0.1668  0.0418
28834W        W45095  17.397  13.204  11.433  0.3578 -0.0253 -0.0845
28835W        W45096   6.534   8.829  11.226  0.3372  0.1989 -0.0754
28836W        W45097  14.394  14.853   1.207 -0.3094  0.1779 -0.1340
28837W        W45098  14.169   2.969   0.525  0.1029  0.2939 -0.0896
28838W        W45099   8.663  11.633   1.913  0.1446 -0.0365 -0.2625
28839W        W45100  19.347   0.000  11.014 -0.0054 -0.1631  0.2463
28840W        W45101  10.612   9.841   2.287  0.2034 -0.1142  0.0053
28841W        W45102  15.339  15.771   3.063  0.0066  0.0533 -0.2707
28842W        W45103  11.308   1.626  10.600 -0.1717 -0.2518 -0.1190
28843W        W45104   1.005   7.024   1.738  0.0211  0.1155 -0.1288
28844W        W45105   2.720   7.971  10.014  0.3746  0.0422  0.0411
28845W        W45106   3.999  15.030   4.691  0.1054 -0.2059 -0.0998
28846W        W45107   4.690  18.364   3.258  0.0889  0.0401  0.0378
28847W        W45108  17.161   7.437  14.679  0.1919 -0.0746  0.1907
28848W        W45109   3.933  12.199   3.351  0.2497  0.0428 -0.0281
28849W        W45110  11.264  15.804  14.575  0.0383 -0.0672  0.0330
28850W        W45111   7.440  17.454  14.054 -0.1720 -0.0900  0.2460
28851W        W45112   6.085   7.107  14.108 -0.1724 -0.2280 -0.0866
28852W        W45113  17.872   9.263   4.278  0.2813 -0.0794 -0.3067
28853W        W45114   7.885   0.983   4.080 -0.0774  0.0300 -0.1591
28854W        W45115  17.466   4.745   3.244 -0.0364  0.1658  0.0227
28855W        W45116   2.108  11.481   0.045 -0.2596 -0.0692  0.4019
28856W        W45117  11.414  13.473  10.922  0.1202  0.4017  0.0645
28857W        W45118   4.181  12.380   2.622  0.2546 -0.2381  0.1492
28858W        W45119  16.123   6.553   3.334 -0.0771 -0.0871  0.0133
28859W        W45120  10.197   7.700  12.825  0.1491 -0.0316 -0.3176
28860W        W45121   7.903  19.302   2.874  0.3222  0.1275  0.1151
28861W        W45122   5.146  15.478  11.360  0.1506 -0.5944 -0.0293
28862W        W45123   9.170  11.402  14.638  0.1598 -0.1502 -0.0236
28863W        W45124  13.373   0.038  14.224 -0.0433 -0.3520 -0.1909
28864W        W45125  19.439   0.590  12.673 -0.2652  0.3584 -0.1952
28865W        W45126  14.311   8.002   3.414  0.0414  0.3352 -0.2220
28866W        W45127   9.794   1.032  13.666 -0.1466 -0.2532  0.3809
28867W        W45128   8.428  13.280   2.920 -0.0877 -0.0786  0.1554
28868W        W45129   5.793   1.914  11.254  0.1347  0.3667  0.1672
28869W        W45130   5.827   6.317   0.810  0.1674 -0.0104  0.0253
28870W        W45131  13.735  11.148   2.813  0.3016 -0.3501 -0.1373
28871W        W45132  12.735   0.943  10.950 -0.1035  0.0624 -0.2718
28872W        W45133   7.994  10.347   5.187  0.0092 -0.2930  0.4124
28873W        W45134   4.378  10.297   0.722 -0.0313  0.0903  0.0488
28874W        W45135   4.096   2.168  12.912 -0.2388 -0.0269  0.0695
28875W        W45136   9.170   0.977   1.352  0.1465  0.3213  0.0791
28876W        W45137  18.525   7.462  10.842  0.0983  0.1391 -0.1977
28877W        W45138  17.170   9.646   3.990  0.1449  0.0083  0.0012
28878W        W45139  12.606  15.239   0.182 -0.3523 -0.0004  0.1003
28879W        W45140  11.419   9.285   9.434  0.0814 -0.4090 -0.1408
28880W        W45141  14.217  16.889   1.407 -0.2416  0.2386 -0.1454
28881W        W45142   0.598   1.275  11.095  0.0739  0.2886  0.2081
28882W        W45143  10.133  15.690  12.801  0.0467  0.0353 -0.1617
28883W        W45144   3.863  17.920  12.158  0.1466 -0.0245  0.0954
28884W        W45145  10.161   1.882   5.242  0.0321  0.1700 -0.1467
28885W        W45146  16.550  10.891   1.879 -0.1313  0.1662  0.4659
28886W        W45147   6.674  15.848   2.351 -0.0232  0.0478 -0.0112
28887W        W45148  16.737   4.284   1.466  0.1170 -0.0194  0.1185
28888W        W45149   8.256   0.960   3.618  0.0569  0.0690 -0.1269
28889W        W45150  10.977  17.396   4.780  0.0248 -0.0616 -0.3035
28890W        W45151   7.675   5.373  12.051  0.1349 -0.1632 -0.2038
28891W        W45152  14.601   5.049   4.321  0.0071  0.3024  0.2481
28892W        W45153   0.471   3.862   1.152 -0.2630  0.1542  0.1596
28893W        W45154  12.305   6.962   0.028 -0.1175  0.3196  0.2482
28894W        W45155   9.926   7.280  14.553 -0.1161 -0.0573  0.0087
28895W        W45156   7.542  14.697  14.045  0.0401 -0.0355  0.0171
28896W        W45157   2.815  16.295   2.176 -0.0068 -0.0169 -0.0324
28897W        W45158  14.559   5.236  13.865 -0.1391  0.2261 -0.0977
28898W        W45159  15.371   3.797  13.531  0.1046 -0.0438  0.1947
28899W        W45160  16.769  18.745  10.479 -0.0866 -0.0792 -0.1022
28900W        W45161   1.344   6.402   1.528 -0.1286  0.1208 -0.0501
28901W        W45162  19.091   1.502   2.038 -0.4077 -0.0138 -0.3130
28902W        W45163  13.900  13.175   3.470  0.2953 -0.2685 -0.0658
28903W        W45164  17.777   2.802  10.994 -0.0567  0.0296  0.0992
28904W        W45165  11.974  16.696   1.931 -0.2616  0.2771  0.0350
28905W        W45166   6.796   8.791   0.820  0.2584  0.2017 -0.2104
28906W        W45167  11.160   0.046  10.946 -0.3971  0.1033  0.2056
28907W        W45168  18.359  14.022  14.030 -0.0598  0.0810  0.1204
28908W        W45169  15.057  14.796   3.439 -0.0165  0.0184  0.2966
28909W        W45170   0.727  11.999   4.321  0.1532 -0.0962  0.0364
28910W        W45171   9.618   1.721  14.271  0.2144  0.0099  0.4357
28911W        W45172   6.977   6.433   2.136 -0.2261 -0.0739 -0.0819
28912W        W45173  16.759  10.474  12.484  0.0364  0.2222  0.1871
28913W        W45174  14.910   3.935   0.826  0.2243  0.1675 -0.2669
28914W        W45175   0.007   5.491   3.788  0.0489 -0.2354 -0.0110
28915W        W45176  11.571   1.747  10.169 -0.2935 -0.0539 -0.0445
28916W        W45177   9.987  11.741   4.037  0.2137 -0.2371 -0.1620
28917W        W45178   0.272  10.111  14.119  0.0278  0.2850 -0.3872
28918W        W45179  16.793  12.955  13.878  0.3307  0.3753 -0.1119
28919W        W45180   0.277   5.369  10.926  0.1012  0.1805  0.0373
28920W        W45181  16.920  13.753   1.895  0.2498 -0.1697  0.3032
28921W        W45182   1.102   6.385   4.740 -0.3165 -0.0196  0.0897
28922W        W45183  18.437  14.952   9.785  0.0147 -0.0375  0.0109
28923W        W45184   7.461   9.098  13.430 -0.1640 -0.0526 -0.0433
28924W        W45185  12.205  15.095   1.400  0.5043 -0.0466  0.2030
28925W        W45186  12.110   6.173  13.467 -0.1804 -0.3587  0.2772
28926W        W45187  16.659   5.414   1.223  0.0909  0.2275  0.2301
28927W        W45188  19.117  12.091   2.546 -0.0333  0.1344 -0.2970
28928W        W45189  12.159  12.010   0.232 -0.0835 -0.1197 -0.0044
28929W        W45190  16.271  12.065   0.236  0.2016  0.2784  0.3418
28930W        W45191  14.334  15.638  11.054  0.2267  0.0763 -0.1099
28931W        W45192  14.882   9.460  12.162 -0.0649  0.2181  0.0458
28932W        W45193   6.543   2.614  10.916 -0.3493  0.1192 -0.1963
28933W        W45194  15.971  18.839  11.440 -0.0917 -0.0491 -0.1622
28934W        W45195   0.440   2.877  14.534  0.4965 -0.0363 -0.1498
28935W        W45196   6.975  13.979   3.547  0.1040 -0.2965 -0.3091
28936W        W45197  11.471   9.391   1.157 -0.0689 -0.2724 -0.1752
28937W        W45198  14.977   1.107   1.999  0.0978 -0.0769  0.0577
28938W        W45199   0.431  18.059   1.631  0.1244  0.2583  0.2051
28939W        W45200   1.685  11.881  13.772 -0.3212  0.0150 -0.0041
28940W        W45201   9.709  13.549   2.693  0.0639 -0.1042 -0.0220
28941W        W45202   8.314  17.835  10.966  0.1153 -0.1088 -0.0146
28942W        W45203  13.670   7.459   2.637  0.1802  0.1943 -0.0969
28943W        W45204   9.571   8.109   4.990 -0.3757 -0.0652 -0.5876
28944W        W45205   1.773  13.798  11.360  0.1414  0.1284  0.0562
28945W        W45206  18.995  13.509  13.150 -0.1676 -0.1955 -0.3070
28946W        W45207  19.165   9.363  14.059  0.0259  0.0901  0.0613
28947W        W45208   5.556   6.834   0.046 -0.4122  0.1462  0.0382
28948W        W45209   6.207  17.630  12.359 -0.1128  0.5433  0.2480
28949W        W45210   7.668  16.904   3.818  0.0386 -0.0787  0.0115
28950W        W45211   9.138  16.212  11.644  0.0325 -0.1135  0.0799
28951W        W45212   8.074   1.871   2.091 -0.3430  0.6040  0.1857
28952W        W45213  14.990   6.816   0.129  0.1452 -0.1231  0.1363
28953W        W45214  13.841   2.233  11.141  0.0921  0.1399  0.1804
28954W        W45215  19.202  18.452   3.677  0.0049  0.0658  0.0052
28955W        W45216   1.944   9.647  12.664  0.1513 -0.0391  0.0324
28956W        W45217   9.587  19.447  11.875 -0.2495  0.2147 -0.2118
28957W        W45218   7.493  14.924  11.310  0.0745  0.0105 -0.1705
28958W        W45219   4.216  18.494  12.744 -0.2453  0.1328 -0.1192
28959W        W45220   7.954   9.706   2.546 -0.2982  0.0019 -0.1871
28960W        W45221   4.550   8.361  11.921 -0.0445  0.2592  0.3664
28961W        W45222   2.337   7.139  10.141 -0.1991 -0.1760 -0.2688
28962W        W45223   6.364  13.762   9.492 -0.0421  0.4902  0.0959
28963W        W45224   1.438  12.560   0.391  0.2387 -0.1176 -0.1946
28964W        W45225  10.033  14.415   2.400 -0.1206 -0.0613 -0.2547
28965W        W45226  11.628   3.843  11.903 -0.0668 -0.1998 -0.1284
28966W        W45227   1.092  18.246   5.350  0.0272  0.1401 -0.0706
28967W        W45228   6.203  14.274  12.722  0.0470  0.2171 -0.0287
28968W        W45229   2.541  15.925  11.910 -0.1264 -0.2651  0.3673
28969W        W45230  14.536   3.522   4.727  0.1231 -0.4275 -0.0596
28970W        W45231   0.259  18.235   2.126 -0.1010 -0.2997 -0.2203
28971W        W45232  17.961  15.080  11.482 -0.2450  0.3305 -0.2475
28972W        W45233  19.107   2.847   5.406  0.0186  0.1214  0.0208
28973W        W45234  13.012  13.975   0.115  0.2800  0.0276 -0.1774
28974W        W45235   2.797  12.164   1.985 -0.0430 -0.0193  0.0036
28975W        W45236  10.874  16.275   4.266 -0.1003 -0.0589  0.3220
28976W        W45237  15.386  11.632   3.569 -0.0076  0.1355 -0.1480
28977W        W45238   4.750  12.567   1.107  0.1244  0.1237 -0.0333
28978W        W45239   9.776   8.098   4.088 -0.1542  0.1048  0.1398
28979W        W45240   8.748  14.983  14.156 -0.1276  0.2773 -0.3102
28980W        W45241   1.585   4.341   3.393 -0.1509 -0.0053  0.0883
28981W        W45242  15.643   4.537   0.950  0.0361  0.3865  0.1533
28982W        W45243   6.064   4.516   0.585 -0.0688  0.0755 -0.0386
28983W        W45244  18.336   9.319   1.287  0.1298 -0.2334  0.0017
28984W        W45245  12.781  18.175  11.245  0.0589  0.1245 -0.1782
28985W        W45246   9.686   5.221   2.018  0.2152 -0.0740  0.0446
28986W        W45247  13.921  14.355  13.190  0.0632  0.0781  0.0363
28987W        W45248  15.884   9.430  11.307 -0.4496  0.2136 -0.1527
28988W        W45249  16.461  18.891   5.475  0.3393  0.2050  0.3563
28989W        W45250   7.177   0.745   3.367  0.3412 -0.0634  0.0333
28990W        W45251  12.647  14.339  13.021 -0.0431 -0.1699  0.1373
28991W        W45252  19.306   0.612   1.096  0.0265 -0.2982  0.0952
28992W        W45253   8.544  11.149  12.731 -0.1834  0.2952 -0.0545
28993W        W45254   0.458   3.885   2.460  0.3902 -0.1502  0.3271
28994W        W45255   0.631  17.947  10.148  0.1328 -0.2152  0.0547
28995W        W45256   0.712  11.442  12.809 -0.0692  0.0463 -0.2002
28996W        W45257  13.780   4.776  10.628 -0.1334 -0.0473 -0.1226
28997W        W45258  10.560  18.595  11.899 -0.0272  0.0721  0.3896
28998W        W45259  12.709   9.012   4.662 -0.2784  0.3126 -0.2094
28999W        W45260  10.254   3.193  10.451  0.1849 -0.1099  0.0868
29000W        W45261   7.656  14.435  12.662  0.1445  0.2116  0.4121
29001W        W45262   2.770  10.868  14.352 -0.0492 -0.1211  0.2765
29002W        W45263   1.413   4.567   4.376  0.2010 -0.0074  0.4646
29003W        W45264  15.976   9.399   2.241  0.1753  0.0812  0.2144
29004W        W45265  15.527  13.041   5.113 -0.2552  0.2184  0.1678
29005W        W45266  12.945  15.406  11.995  0.2550  0.1421 -0.3459
29006W        W45267  10.518   9.738   4.250 -0.3177 -0.0823  0.0149
29007W        W45268   2.756  10.731   3.739  0.0788  0.1391  0.1206
29008W        W45269  10.536   3.408   3.448 -0.1682 -0.0813  0.4218
29009W        W45270   1.394  13.556  11.164  0.0514 -0.2236  0.0779
29010W        W45271  12.220   6.987  13.884  0.3847  0.0563  0.1223
29011W        W45272   1.293  12.906  13.470 -0.2078  0.0262  0.0102
29012W        W45273  19.022  18.166   0.841  0.2175  0.2496 -0.0395
29013W        W45274   9.744   6.862   9.728  0.0584  0.0391  0.0769
29014W        W45275  11.409   7.735   2.841 -0.0125  0.3232 -0.0943
29015W        W45276   7.110   4.717   1.290  0.0602 -0.3210  0.4734
29016W        W45277   8.251   9.511   3.186  0.0313 -0.3336  0.1387
29017W        W45278   3.565  14.600  13.916  0.4070  0.0008  0.1958
29018W        W45279   5.977  14.091  14.648  0.3778  0.1275  0.2879
29019W        W45280   7.936   7.971   2.955  0.0991 -0.1350 -0.0367
29020W        W45281  14.637   7.009   0.522 -0.1898 -0.0244 -0.1918
29021W        W45282  11.167  12.191   4.134 -0.0311  0.2263 -0.2033
29022W        W45283   6.277  17.038  13.080  0.3448 -0.2357  0.1273
29023W        W45284   6.035   4.357   3.867  0.2295  0.1403  0.2002
29024W        W45285   6.081  14.185   2.466  0.2338 -0.1234 -0.0755
29025W        W45286   7.237  16.595  12.336  0.0667 -0.2581  0.1460
29026W        W45287   4.338  10.403  10.740 -0.1272 -0.0506 -0.3081
29027W        W45288  17.279   4.512   4.392  0.0589  0.0745 -0.2204
29028W        W45289   7.598  12.671  14.561 -0.1637 -0.1073  0.2205
29029W        W45290  13.091   0.471  13.024 -0.4639  0.0838 -0.1791
29030W        W45291   5.195  18.789  11.192 -0.1778 -0.3488 -0.1389
29031W        W45292   0.933   3.961  11.488 -0.0931 -0.4095  0.0255
29032W        W45293  12.828  13.340  13.325  0.1416  0.0809 -0.0567
29033W        W45294   7.449  11.903   0.660  0.1694  0.2046  0.0889
29034W        W45295  18.903  15.878   1.049 -0.1384 -0.1072  0.0273
29035W        W45296  12.401   8.018  12.015 -0.2653 -0.3435  0.0325
29036W        W45297   4.200   8.128  12.679 -0.0250  0.2054  0.0634
29037W        W45298   3.268  17.867  11.132  0.4756 -0.1879 -0.4321
29038W        W45299  15.525  17.475   5.698 -0.0103 -0.3062 -0.3758
29039W        W45300   4.438  12.126  11.626  0.0905  0.0824 -0.0489
29040W        W45301  18.548   4.128   5.189  0.0358  0.1097 -0.1919
29041W        W45302   4.928  18.889   4.614 -0.1519  0.1649  0.5134
29042W        W45303  18.301   6.541  12.229  0.2733 -0.1347  0.1239
29043W        W45304   1.738   3.245  10.161 -0.0629 -0.0601  0.1468
29044W        W45305   3.610  16.302   4.603 -0.0348  0.3501 -0.0475
29045W        W45306  10.782  15.740   0.074  0.0301 -0.0297 -0.1545
29046W        W45307  13.633   8.095   4.769  0.1578  0.2193  0.1681
29047W        W45308   6.085   8.852   3.025 -0.1345 -0.3391 -0.0005
29048W        W45309  16.827   0.974  12.920 -0.0685 -0.0212 -0.0579
29049W        W45310   3.136  15.576   0.355 -0.0465 -0.1727  0.0860
29050W        W45311   0.545  15.075   3.185  0.2358 -0.1463 -0.1883
29051W        W45312  10.203   8.700  10.183  0.0246 -0.2636  0.1482
29052W        W45313   3.091  11.674  12.551  0.0453  0.0791 -0.1648
29053W        W45314   3.051  13.750   2.910 -0.0885  0.0100 -0.3122
29054W        W45315   4.225  17.593   1.087 -0.1641  0.0447  0.5372
29055W        W45316   2.489  13.928  12.911  0.0961 -0.3115 -0.2933
29056W        W45317  15.338   4.914  13.568 -0.1509 -0.0634  0.0651
29057W        W45318  11.024  18.171  14.521  0.1456  0.0126  0.1859
29058W        W45319  19.453   9.294  13.153 -0.4854  0.1377 -0.0109
29059W        W45320   2.046  10.741   4.590 -0.1705 -0.0663  0.1507
29060W        W45321   5.956  14.269   5.878 -0.1027 -0.4339  0.0109
29061W        W45322   8.583  18.838  11.254 -0.0430  0.1067 -0.3822
29062W        W45323   5.145   3.012   3.255  0.0786  0.1162 -0.1154
29063W        W45324  15.213  17.239   1.794  0.0370 -0.1601  0.0215
29064W        W45325  14.439   8.304   4.356  0.1539  0.3688  0.1762
29065W        W45326  14.800  17.641   0.500 -0.1633  0.2631 -0.1513
29066W        W45327  17.352   3.548  12.444 -0.3847 -0.1349 -0.2176
29067W        W45328  14.022  13.824  11.594  0.2791  0.2483  0.0139
29068W        W45329   6.023  17.100  10.574 -0.1159 -0.2420  0.2654
29069W        W45330   3.102   8.150  13.922 -0.1726 -0.0838 -0.0681
29070W        W45331  13.370  12.093  12.710 -0.0955  0.2097 -0.1429
29071W        W45332   3.092   8.284   4.099  0.1112 -0.0978  0.0030
29072W        W45333   8.317  15.236  14.364  0.1928 -0.0645  0.0732
29073W        W45334   9.742  11.338   5.182  0.0951  0.0375  0.1133
29074W        W45335  18.438   9.241   1.752 -0.4920  0.1255  0.2586
29075W        W45336   5.945  10.233  13.695 -0.0540 -0.2479  0.0621
29076W        W45337  10.780   8.421   4.434 -0.0055 -0.0805  0.3102
29077W        W45338  11.439  13.690   1.530  0.2549 -0.1709 -0.0206
29078W        W45339   6.302   6.940  11.066  0.2580  0.0530  0.1416
29079W        W45340   8.379  17.676   4.787  0.5494  0.3200 -0.0578
29080W        W45341  12.591  16.082  13.223 -0.2243  0.2294  0.0028
29081W        W45342   0.111  12.770  12.252  0.2448 -0.0945 -0.0140
29082W        W45343  15.117  11.716  12.725 -0.1492  0.1581  0.1385
29083W        W45344   8.403   0.632   2.933  0.0528 -0.1524  0.0017
29084W        W45345   8.725  15.137  13.419  0.1527 -0.1279  0.2360
29085W        W45346  11.818  13.040   3.844 -0.0665 -0.1037  0.2416
29086W        W45347   7.038   9.473  10.709  0.3615  0.1052 -0.0904
29087W        W45348   4.172  11.648  11.617 -0.2894 -0.0487  0.0639
29088W        W45349  10.177  13.611   3.957  0.2950  0.4874 -0.1549
29089W        W45350   6.251  14.401  13.302 -0.1191 -0.0654 -0.1847
29090W        W45351  18.499  17.492  14.063  0.4709 -0.2460  0.1310
29091W        W45352   3.086  12.850  13.079 -0.0166  0.0529  0.2268
29092W        W45353   6.069  14.008  13.557 -0.2849  0.0375 -0.0225
29093W        W45354   9.807   0.540  14.596 -0.0293  0.0935  0.1894
29094W        W45355   9.195  16.589   1.275 -0.1047  0.2457 -0.0494
29095W        W45356  18.754  17.297   3.679  0.0036 -0.3120 -0.2788
29096W        W45357   6.505   1.806   2.048  0.0651  0.0918 -0.0800
29097W        W45358   7.633   9.923  14.502 -0.0400 -0.2038 -0.0666
29098W        W45359  13.272  12.711  11.154  0.1886 -0.0835 -0.0059
29099W        W45360   6.739  12.774  11.698  0.1957 -0.1099 -0.3414
29100W        W45361   4.588  11.819  12.719 -0.0305  0.2041  0.0979
29101W        W45362   4.571   3.836   0.462  0.0681 -0.1446 -0.1462
29102W        W45363  19.357  16.509  11.360 -0.0454 -0.3701  0.0875
29103W        W45364  13.250  12.347   5.489  0.1943 -0.1270  0.1413
29104W        W45365   2.669   3.217  10.329  0.2032 -0.0414 -0.0538
29105W        W45366  10.973  17.675  14.444  0.4148  0.2297 -0.0126
29106W        W45367  13.881  18.852   1.745  0.2872  0.0726  0.1708
29107W        W45368  17.185   6.468   2.537 -0.0440  0.1500 -0.1747
29108W        W45369  17.608  10.858  14.022  0.1935 -0.1439 -0.0379
29109W        W45370  14.414  14.361   1.064 -0.0774 -0.2754  0.2280
29110W        W45371   3.169  10.946   3.945 -0.3293  0.1005 -0.3269
29111W        W45372   3.358   6.443   9.898 -0.1797 -0.2116  0.1462
29112W        W45373   0.790  17.268  11.490 -0.2385 -0.1020  0.2652
29113W        W45374  13.054  14.058   0.688 -0.1909 -0.2300 -0.0660
29114W        W45375  19.305   2.923  11.640 -0.0959  0.1032  0.0106
29115W        W45376  14.445   6.036  14.200  0.1186 -0.0804 -0.0323
29116W        W45377  11.097   7.146   0.448 -0.1082  0.0620 -0.1060
29117W        W45378   4.914   5.379   1.857  0.0375 -0.3375 -0.1949
29118W        W45379  17.950   9.830   2.819  0.2310 -0.0856 -0.2680
29119W        W45380   0.299   8.210   3.553 -0.4207 -0.0433 -0.1356
29120W        W45381   4.326  13.077   1.297  0.3515 -0.3335  0.0131
29121W        W45382  19.125  11.258   4.157  0.0696  0.2019  0.1109
29122W        W45383   3.354   7.577  10.822  0.0300  0.0410 -0.3278
29123W        W45384  10.077   5.376  11.112  0.0604  0.0018 -0.0409
29124W        W45385  13.881   7.658   5.090  0.4020  0.2046  0.0326
29125W        W45386   8.056  11.007   1.645  0.0531 -0.2871 -0.0515
29126W        W45387  18.355  12.871   2.993  0.2992 -0.0581 -0.1512
29127W        W45388   1.911  18.856  14.087 -0.0884 -0.1521 -0.1877
29128W        W45389  17.236  11.786  11.290 -0.2675  0.0739 -0.1526
29129W        W45390   7.118   7.301  14.287  0.0687  0.2313  0.0002
29130W        W45391  14.223   7.137   3.389  0.0127 -0.1149  0.1331
29131W        W45392   9.664   2.723  11.713 -0.0747 -0.0934 -0.1620
29132W        W45393  17.887   8.983   1.081 -0.2095 -0.2607 -0.2353
29133W        W45394   6.421   4.300   0.193  0.0132  0.1745  0.1655
29134W        W45395  17.819   2.421  10.621 -0.0804 -0.3914  0.0709
29135W        W45396  11.200   3.345  11.795 -0.0487  0.2020  0.1897
29136W        W45397   4.770  11.172   3.304 -0.3344  0.1781  0.1056
29137W        W45398   8.761  11.669   4.772  0.0450 -0.1151  0.0059
29138W        W45399  13.364  11.378   4.977  0.0334 -0.2821  0.0781
29139W        W45400  10.325  16.026   2.370 -0.4453  0.4584  0.4200
29140W        W45401  12.158  12.515   2.304  0.2012  0.3286  0.0905
29141W        W45402  14.141   1.538   0.199  0.1347  0.0082  0.0084
29142W        W45403  12.472   3.305   3.244 -0.0945 -0.1448  0.0956
29143W        W45404   0.689  10.301   5.882  0.1222 -0.1071 -0.2088
29144W        W45405   3.982   8.763  11.450  0.1820 -0.0502 -0.0187
29145W        W45406  13.432  12.318   4.561  0.2210  0.2458  0.1837
29146W        W45407   7.403   2.241  14.487 -0.2374  0.1478  0.0373
29147W        W45408  12.364  15.001   2.464 -0.0593  0.3693 -0.0926
29148W        W45409  19.008  17.930   3.938 -0.0946  0.1968  0.0735
29149W        W45410  11.115  14.910   3.469 -0.0799 -0.0839 -0.2679
29150W        W45411  16.606  15.032  14.577  0.0881 -0.1000  0.2236
29151W        W45412  18.192  11.080   0.630 -0.0457  0.1053  0.2048
29152W        W45413  13.063  10.930   1.720  0.0064  0.2143  0.0686
29153W        W45414  12.754  18.368  14.487  0.3279  0.0422 -0.0173
29154W        W45415  11.226   2.209  13.551 -0.1852  0.2288 -0.1636
29155W        W45416   4.727  18.796  12.239  0.0050  0.4356  0.1730
29156W        W45417   6.162   9.341  11.551  0.1002  0.1517  0.0569
29157W        W45418  13.203   0.892  12.069  0.0127  0.0141 -0.1836
29158W        W45419   2.915  19.200  11.987  0.3016 -0.0905 -0.1461
29159W        W45420   0.626  11.568   0.322 -0.1834 -0.3013  0.0466
29160W        W45421  15.361   8.389  11.903 -0.3423 -0.0108 -0.0227
29161W        W45422   3.459  13.810  14.246  0.2168  0.3151  0.2819
29162W        W45423   9.716  11.813   4.905 -0.2813 -0.3975 -0.0617
29163W        W45424   8.127  17.091   2.170 -0.1960 -0.2155 -0.1936
29164W        W45425   9.360  10.777  10.926  0.2776 -0.0477  0.2383
29165W        W45426  18.885   5.633   9.371 -0.2105 -0.0362  0.3483
29166W        W45427  12.876  17.926   2.705  0.2667 -0.0442 -0.2674
29167W        W45428  19.370   7.807   1.296  0.2716  0.2176  0.3160
29168W        W45429  19.376   3.077  12.839  0.0282  0.2854 -0.3356
29169W        W45430  15.789   5.860  13.683 -0.0397 -0.0757 -0.1024
29170W        W45431   0.280   7.960  11.287 -0.2710 -0.2546 -0.0330
29171W        W45432   0.146  11.028   2.273  0.0143 -0.1022 -0.1607
29172W        W45433   3.658  15.468   0.406 -0.0855 -0.0824  0.0633
29173W        W45434   5.044   4.398   0.916 -0.0634 -0.1585 -0.0967
29174W        W45435   4.009  14.634   1.520  0.0141  0.2687  0.1371
29175W        W45436  14.919  13.246  10.769 -0.2316  0.3831  0.0652
29176W        W45437  15.626  17.268  14.084 -0.3923 -0.0042 -0.0841
29177W        W45438   1.696   7.315   5.284  0.0165 -0.2278  0.0410
29178W        W45439  15.151   0.330   3.065 -0.1656 -0.1761 -0.2554
29179W        W45440  14.312  19.048   1.483 -0.3204 -0.1329 -0.0247
29180W        W45441  17.485   9.366   3.060 -0.1219  0.0617 -0.1694
29181W        W45442   9.332  12.331   0.581  0.1474  0.0699 -0.0171
29182W        W45443  15.572  12.170  10.858  0.0584  0.0226  0.1620
29183W        W45444   0.166  10.434   5.848  0.0094  0.2506 -0.0029
29184W        W45445  18.442   8.943   3.943  0.2205 -0.2461 -0.1221
29185W        W45446   0.247  16.984  12.131  0.1320  0.2943 -0.1859
29186W        W45447   7.327  11.413   0.560  0.0568  0.0945  0.0140
29187W        W45448   5.023  13.060   0.210  0.1589  0.4775  0.0132
29188W        W45449  11.830   4.974   4.112 -0.2149 -0.1707 -0.2513
29189W        W45450  18.871  17.270  11.894  0.3435  0.0421 -0.0848
29190W        W45451   3.655  19.219   4.485 -0.1336  0.0989 -0.0928
29191W        W45452  13.130  12.762   1.074  0.0329 -0.2317  0.0378
29192W        W45453  13.717  18.736   3.599  0.3709 -0.6956  0.1214
29193W        W45454  16.356  13.445   0.501 -0.0500 -0.2934 -0.3935
29194W        W45455   6.582  16.451  14.603  0.2643  0.5343 -0.1429
29195W        W45456   9.620  18.231  10.656 -0.0506  0.2180  0.3363
29196W        W45457   8.298   0.312  12.199  0.1526  0.0356  0.1914
29197W        W45458  10.405  11.370  11.847 -0.1910 -0.0770 -0.1443
29198W        W45459   6.029   9.752   2.001 -0.2107 -0.0766 -0.0360
29199W        W45460  11.454   0.685  11.463  0.0386 -0.0792 -0.0974
29200W        W45461  18.052  12.199   4.527 -0.1369 -0.1701 -0.1633
29201W        W45462   6.705  11.253   2.349  0.3366  0.1162  0.0372
29202W        W45463  13.325   3.494  12.011 -0.1900 -0.3068  0.0030
29203W        W45464   2.258  10.158   3.230 -0.1654  0.0003  0.1015
29204W        W45465   4.903   8.636   0.998 -0.2387  0.3662  0.1936
29205W        W45466  16.776   3.463  14.324  0.0868  0.3398 -0.2047
29206W        W45467   4.094   7.176   4.697 -0.3744 -0.1699 -0.0089
29207W        W45468   4.217   9.839   2.014  0.0577  0.2114  0.3708
29208W        W45469   4.981  13.893   1.462 -0.0659 -0.3388 -0.2997
29209W        W45470   0.756   3.872   2.061 -0.0232  0.3237 -0.4504
29210W        W45471  18.537   6.773  11.432  0.0931  0.1652 -0.0361
29211W        W45472   6.000   8.533  13.972 -0.0205  0.0440  0.0971
29212W        W45473   6.662   7.636   3.936  0.3744  0.2353  0.0733
29213W        W45474   4.834   0.390  12.941  0.3219  0.1038 -0.0624
29214W        W45475   3.361   2.632  12.729 -0.1409  0.3594 -0.0710
29215W        W45476  11.273   2.682   5.144  0.2836 -0.0111  0.1053
29216W        W45477   3.818  11.229  13.558  0.0031 -0.0578 -0.0325
29217W        W45478  11.053   6.879  12.478 -0.3684 -0.2706 -0.1460
29218W        W45479   5.123   1.304   0.146 -0.2219  0.0346 -0.1429
29219W        W45480   7.164  13.676   3.915  0.0591 -0.2386 -0.2314
29220W        W45481   5.330   1.628  13.385 -0.1864  0.0891 -0.3088
29221W        W45482   1.471   1.430  13.671 -0.3866 -0.3337  0.3833
29222W        W45483   3.500  13.807   1.880 -0.3064 -0.1921  0.0673
29223W        W45484  13.594  18.773   5.870 -0.2155  0.0090  0.1392
29224W        W45485   8.202   6.468   0.023  0.3605 -0.0356 -0.0185
29225W        W45486   5.541   2.781   1.105  0.0754  0.1673 -0.0994
29226W        W45487   1.657   0.595   1.149  0.3652  0.0259 -0.0460
29227W        W45488  18.241  13.398  11.967 -0.0331  0.2156  0.0499
29228W        W45489   9.515  14.668  14.633  0.0382  0.1638 -0.0281
29229W        W45490  17.237   7.782   4.198  0.3382  0.2283  0.2205
29230W        W45491  11.384   6.006   0.037  0.1485 -0.2072 -0.4338
29231W        W45492   2.249   2.952   1.056 -0.0605 -0.1165  0.2050
29232W        W45493   9.376  16.745   2.342 -0.1224 -0.0668 -0.2850
29233W        W45494   4.276   4.829   4.054  0.4454  0.1038  0.0191
29234W        W45495  17.029  11.481  13.923  0.1055  0.2311 -0.1799
29235W        W45496  12.382  17.561   2.027 -0.3628  0.0857  0.1924
29236W        W45497  16.512  10.707   3.184 -0.0510 -0.0415 -0.0907
29237W        W45498  12.745  15.968   5.443  0.1850  0.0651 -0.4937
29238W        W45499  15.943  13.768   4.659 -0.1351 -0.3041 -0.0668
29239W        W45500   6.019  13.283   9.604  0.2157 -0.2207  0.3923
29240W        W45501  18.833   9.022  12.487  0.0625  0.0285 -0.0283
29241W        W45502  11.265   7.031  11.364 -0.2726  0.1310 -0.1033
29242W        W45503   7.221  11.146   4.465  0.0269  0.0466 -0.3209
29243W        W45504   9.669   9.230   4.034 -0.0846 -0.0040  0.0593
29244W        W45505  16.880  12.558  13.485 -0.3484 -0.3689  0.1604
29245W        W45506   2.237   2.877  10.210  0.0737  0.2700  0.3028
29246W        W45507   8.601   4.502   0.113 -0.3066  0.1444  0.1497
29247W        W45508   4.250  17.945  14.353  0.0169 -0.0082  0.1885
29248W        W45509   0.561   2.894  10.915  0.1101 -0.0318  0.0396
29249W        W45510   9.919   7.776  10.524  0.2543  0.2375  0.1520
29250W        W45511  13.797  16.568  10.975 -0.2906  0.1640  0.0828
29251W        W45512   4.764   9.083  11.494 -0.0139 -0.0667  0.0055
29252W        W45513   2.538  15.314   3.777 -0.0476 -0.0316  0.0991
29253W        W45514  19.408   5.048   3.033  0.0354 -0.1786  0.0393
29254W        W45515   9.855   0.467  12.740  0.2002  0.1943 -0.3301
29255W        W45516  13.439   7.861   0.982  0.3051 -0.0963  0.1228
29256W        W45517   4.459  18.598  13.173 -0.3215 -0.2157 -0.0292
29257W        W45518   0.972  15.801   4.016  0.2661 -0.1695  0.1132
29258W        W45519  11.285  10.804   0.165 -0.0389 -0.0438 -0.1051
29259W        W45520  10.142   4.242  10.733  0.1450  0.0148 -0.0842
29260W        W45521  16.218   9.927   3.115 -0.0715 -0.0695  0.0972
29261W        W45522   6.688   7.079   3.072  0.5011 -0.0085  0.1484
29262W        W45523  12.712   3.698   2.859 -0.2748 -0.0212  0.1283
29263W        W45524   4.124   3.743  13.700  0.1422 -0.0042  0.0988
29264W        W45525   1.222  11.122   3.425  0.0482  0.0236  0.0386
29265W        W45526   5.602  13.610  12.183 -0.0268  0.3413 -0.1820
29266W        W45527   1.115   8.979   4.549 -0.1358  0.0115 -0.1076
29267W        W45528   1.248   6.176  11.402  0.2540  0.1710 -0.0921
29268W        W45529  16.997  10.615   3.357 -0.1050  0.1223  0.2462
29269W        W45530   5.824  19.173  10.683  0.0303  0.0336 -0.0331
29270W        W45531  11.172  14.933   1.805 -0.1430 -0.1710  0.1974
29271W        W45532  16.429   6.705   1.781 -0.0349 -0.3651  0.2075
29272W        W45533   9.753   4.526   1.972  0.1006  0.0048 -0.2325
29273W        W45534  13.942  10.903  11.551  0.0468  0.1328  0.2545
29274W        W45535   4.450   0.566   3.947 -0.2458 -0.3974 -0.0793
29275W        W45536  16.170  11.513  14.601 -0.2197 -0.0317  0.0120
29276W        W45537   6.712  14.478   1.627 -0.0160  0.1385  0.1469
29277W        W45538   8.504  14.247   1.904 -0.2111  0.0335  0.0914
29278W        W45539  14.531  16.904  14.254  0.0450  0.3266  0.4704
29279W        W45540  10.095   9.381   9.090 -0.0883  0.3754 -0.0304
29280W        W45541   0.585   2.964   0.168  0.0159 -0.3285 -0.0914
29281W        W45542   4.909  10.538   1.730 -0.3703 -0.1588 -0.2286
29282W        W45543   7.094  14.808   1.830 -0.1556 -0.0134 -0.2648
29283W        W45544   0.999  12.231   1.272  0.0460 -0.0489 -0.2684
29284W        W45545  10.803  10.918  14.386  0.3532 -0.0534  0.2410
29285W        W45546  17.654   0.064  11.088  0.2410  0.0655  0.1132
29286W        W45547   5.615   8.607  11.729  0.0434  0.2033 -0.0970
29287W        W45548  12.939   2.350  13.823  0.0743  0.1749 -0.2229
29288W        W45549   5.920  12.748   1.280 -0.1142  0.1080 -0.0128
29289W        W45550   5.471   8.455  14.048 -0.2963 -0.0994  0.0488
29290W        W45551  11.394   1.350   1.069  0.1037  0.0804  0.2366
29291W        W45552  19.240  12.729   3.288  0.3568 -0.1160 -0.1780
29292W        W45553  18.656   8.481   0.917 -0.0715  0.0445 -0.0371
29293W        W45554  18.111   2.119  14.617  0.0381 -0.2215 -0.0126
29294W        W45555   9.462  16.322   2.657 -0.0573  0.1253  0.0032
29295W        W45556  15.516   3.396  12.754 -0.0167 -0.1964 -0.0316
29296W        W45557  16.089   2.514  14.396 -0.3253 -0.0327 -0.0474
29297W        W45558   7.253  15.117   4.964 -0.0481 -0.1352  0.4200
29298W        W45559  10.487   5.493  13.877 -0.1534  0.1894 -0.2292
29299W        W45560   8.178   2.367  10.379 -0.1446  0.0325 -0.1556
29300W        W45561  16.737  16.276  11.247  0.4312 -0.1004 -0.3574
29301W        W45562   5.381  15.163   1.335 -0.0035 -0.0150 -0.0131
29302W        W45563  12.291   2.891  14.123  0.1968  0.1009  0.1735
29303W        W45564   0.183  11.133  13.432  0.2105  0.0377  0.2528
29304W        W45565   1.695   9.305   3.930  0.0016 -0.1273 -0.0028
29305W        W45566  11.021  10.788  11.462 -0.0955  0.1311  0.2036
29306W        W45567  16.676  17.202   3.167  0.2714  0.1425  0.1604
29307W        W45568   2.795  18.130   1.165 -0.0679 -0.0131 -0.3124
29308W        W45569  12.019   1.208   4.302  0.1705  0.2169  0.5248
29309W        W45570  12.716  13.425  11.806 -0.2008 -0.0868 -0.0141
29310W        W45571   5.755  18.482   4.663  0.1363 -0.1907  0.1737
29311W        W45572   5.176  14.790   1.666  0.0677  0.0644 -0.0306
29312W        W45573   4.029  11.061   1.838 -0.0335  0.0561 -0.0476
29313W        W45574   4.027   5.405  12.957  0.1490  0.1796 -0.0125
29314W        W45575   4.406   2.804  14.190  0.0441  0.1070 -0.0700
29315W        W45576   3.245  11.633  14.771  0.4168 -0.1991  0.0301
29316W        W45577  12.827   6.144  12.193  0.3211 -0.3305 -0.2208
29317W        W45578   1.556  17.316  12.176  0.1644  0.1544  0.1673
29318W        W45579  11.550   8.911  12.839  0.0435  0.1969  0.0971
29319W        W45580  14.712   8.440  13.870 -0.2101 -0.1246 -0.1353
29320W        W45581   3.502   7.366   0.195  0.1015  0.2299 -0.0939
29321W        W45582  11.327   4.750   4.060  0.0477 -0.0490 -0.1237
29322W        W45583  11.508   2.931  10.789 -0.2025  0.0222  0.0872
29323W        W45584   1.863   1.125  11.561 -0.1509  0.1095 -0.0859
29324W        W45585  15.469   1.410   0.690  0.0580  0.3728  0.0303
29325W        W45586  17.356  13.242   5.064 -0.2034 -0.0974 -0.0663
29326W        W45587  19.325  13.249   3.897 -0.2353 -0.0516  0.2449
29327W        W45588  14.166   0.932  11.569 -0.0291 -0.0749  0.1291
29328W        W45589   6.996  17.646  11.401 -0.4002 -0.0921 -0.0799
29329W        W45590  11.642   9.116  11.267  0.0977 -0.0750 -0.3070
29330W        W45591   6.197   0.112   1.121  0.2685 -0.0696 -0.2367
29331W        W45592   5.773   6.013   0.400 -0.0052 -0.1438 -0.0650
29332W        W45593   4.961  13.360   4.797 -0.0434 -0.0201 -0.2378
29333W        W45594  16.725  18.865   4.625  0.1108  0.1052  0.2283
29334W        W45595   2.119  19.142   2.532 -0.1734  0.0149  0.0864
29335W        W45596   3.205   7.891   3.101  0.2006 -0.1288  0.1744
29336W        W45597   6.863   1.168  12.916 -0.1662  0.1024  0.3676
29337W        W45598   2.248   1.884  11.400  0.1912  0.2700  0.0084
29338W        W45599  13.095  18.678   0.211 -0.1581  0.1213 -0.0447
29339W        W45600  13.876  12.223  13.065  0.1589  0.1813 -0.0593
29340W        W45601  11.634  11.314   3.742 -0.1455  0.0412 -0.3696
29341W        W45602   3.338  10.760   1.285  0.1052 -0.2661  0.5114
29342W        W45603  11.980  14.580   3.198  0.2238 -0.2090  0.0809
29343W        W45604   5.155  13.244  12.115  0.1974 -0.0482  0.0532
29344W        W45605  10.098   0.768   2.224 -0.1446  0.0257 -0.0672
29345W        W45606   4.766   2.714   3.761 -0.0989  0.2463  0.1513
29346W        W45607   8.095  10.245   0.467 -0.0018 -0.1221 -0.0869
29347W        W45608   1.782   2.865   1.194  0.1152 -0.0618 -0.1526
29348W        W45609   0.779   1.660  11.322 -0.0679  0.0935  0.2328
29349W        W45610  16.693  11.194   3.537  0.2376  0.0511 -0.0607
29350W        W45611   6.362  13.721   2.726  0.2474  0.1594 -0.0119
29351W        W45612  11.843   2.673  10.509 -0.1147 -0.0451  0.1356
29352W        W45613  18.578   1.861   3.190 -0.4274 -0.1030  0.0692
29353W        W45614  18.572   9.304   2.243 -0.3843  0.1678 -0.0484
29354W        W45615   6.438  11.629   0.454  0.2223 -0.0247  0.0273
29355W        W45616   7.947  14.545  13.104 -0.1512  0.1527  0.1908
29356W        W45617  10.431  17.309  10.676  0.0114 -0.2512 -0.3081
29357W        W45618   7.120   9.120   1.068 -0.0968  0.1317 -0.1557
29358W        W45619   3.326  18.733   9.763  0.0619 -0.0988  0.3947
29359W        W45620  16.907   4.157   4.953 -0.1913  0.1392 -0.0954
29360W        W45621   4.834  18.137   9.715 -0.1085 -0.3011  0.0444
29361W        W45622  16.020   4.908  12.959  0.2384  0.2711 -0.0663
29362W        W45623  13.257  10.715   4.259 -0.0395 -0.0045  0.0176
29363W        W45624   4.254  15.734   1.723 -0.0890  0.0623  0.3889
29364W        W45625   7.265   8.322  10.197 -0.1135  0.0457 -0.1292
29365W        W45626  18.364  11.161  11.945  0.0170  0.1235 -0.1357
29366W        W45627   2.396  13.306   0.039 -0.3021 -0.2791  0.1104
29367W        W45628   5.240   5.942  10.479  0.0160  0.3538  0.1899
29368W        W45629  17.887  16.999  13.075 -0.0333  0.0597  0.0444
29369W        W45630   3.275   0.185  11.820  0.0654  0.1660 -0.0382
29370W        W45631   3.661  10.616   1.696 -0.0965  0.4651  0.0755
29371W        W45632  18.970  10.690   2.713 -0.1178  0.1844 -0.0959
29372W        W45633   1.110   1.935  11.695 -0.0889  0.1224 -0.0105
29373W        W45634  17.810   0.988   2.731  0.0606  0.1270  0.1218
29374W        W45635  16.447  16.517   1.954  0.1820  0.4294  0.0496
29375W        W45636   0.082  14.478   5.047  0.0041 -0.0361  0.0701
29376W        W45637   0.460  15.351  12.684  0.2788 -0.3148 -0.2086
29377W        W45638  18.130  19.006   4.199  0.2046 -0.2835 -0.0239
29378W        W45639   9.241   6.607  12.975 -0.0828 -0.0448 -0.0179
29379W        W45640   8.739  17.617  12.733 -0.2136 -0.3934  0.2397
29380W        W45641  14.992  16.251  13.723 -0.1157 -0.0131  0.0159
29381W        W45642  16.830   3.509  11.693 -0.0247  0.0428 -0.1088
29382W        W45643   8.646   2.833   4.509  0.0215 -0.1920 -0.1045
29383W        W45644   7.113   3.685   4.525 -0.0205 -0.2607 -0.4530
29384W        W45645   5.252   7.267   4.086 -0.0866 -0.3713  0.5960
29385W        W45646  10.085  11.774  13.601  0.0956  0.2745 -0.4162
29386W        W45647  10.389  14.726   5.725 -0.0249  0.1576  0.0892
29387W        W45648   5.620  10.281  14.099 -0.0131 -0.2609  0.1443
29388W        W45649   6.749   6.317   2.546  0.0426 -0.6583  0.5297
29389W        W45650  14.408   3.065   1.939  0.3774 -0.1309  0.0956
29390W        W45651  16.003  17.670   6.098  0.0832 -0.1383 -0.0783
29391W        W45652   4.654  15.690   0.672 -0.1758 -0.1388  0.1352
29392W        W45653  16.888   6.308  13.948 -0.3409 -0.1157  0.1561
29393W        W45654  18.870   3.304   1.315 -0.0848 -0.0350 -0.2179
29394W        W45655   5.389   6.702  12.251  0.0794  0.0912  0.1562
29395W        W45656  16.955  16.834  12.194  0.1362  0.0474 -0.4231
29396W        W45657   3.243  15.665   5.391 -0.0163 -0.0900 -0.1643
29397W        W45658   1.080  17.529   5.322  0.0713 -0.3477 -0.2417
29398W        W45659  14.677  15.403   0.325  0.1499  0.1248  0.0034
29399W        W45660  17.394   8.365  11.072  0.3030 -0.0972  0.0894
29400W        W45661   6.135  14.117   3.322 -0.0265  0.0464 -0.0537
29401W        W45662   7.070  10.919  10.932  0.1750  0.2543  0.1266
29402W        W45663  16.793   3.837  12.579 -0.1118  0.0153  0.0359
29403W        W45664   9.330  10.999   2.420 -0.1254  0.0586 -0.2433
29404W        W45665   2.497  10.914  12.583 -0.0170 -0.0131  0.5329
29405W        W45666   3.163   9.730   0.297 -0.0003  0.0855 -0.2413
29406W        W45667  18.510  15.222  11.528  0.2238 -0.1626 -0.0400
29407W        W45668   7.047   7.177  10.048 -0.1827 -0.1091  0.1206
29408W        W45669  14.753  16.108  14.112  0.0408 -0.1309 -0.2797
29409W        W45670   6.316  13.861   2.090  0.1809  0.2045 -0.2256
29410W        W45671  10.684   1.448   9.810 -0.0963 -0.0574  0.0608
29411W        W45672  12.538   9.532   0.604 -0.2887 -0.3858  0.1089
29412W        W45673   6.834   4.893   0.855 -0.1424  0.4104 -0.1644
29413W        W45674   3.412   8.605  11.561  0.0490  0.0169  0.0131
29414W        W45675   6.501  19.154   1.902 -0.2360  0.2531  0.1164
29415W        W45676   3.412  10.026   3.409 -0.0502  0.1410  0.0450
29416W        W45677   9.164   3.490  14.161  0.2641 -0.1653  0.2050
29417W        W45678   1.372  12.961   0.714 -0.1416  0.4649 -0.0137
29418W        W45679   4.478  10.879  12.185  0.1752  0.2991 -0.1301
29419W        W45680  18.720   8.681   5.287 -0.3097  0.0626 -0.2650
29420W        W45681   0.926  19.463   0.840  0.3255 -0.3283 -0.1471
29421W        W45682  17.468  15.309   2.262  0.3180 -0.1458 -0.0130
29422W        W45683   9.282   1.638  14.587 -0.3135  0.0049 -0.3752
29423W        W45684   1.417   6.937  14.460  0.2412 -0.2039 -0.2993
29424W        W45685   3.061  19.328   1.413  0.0010  0.1013  0.0855
29425W        W45686  15.986   1.248  11.369 -0.0322  0.2886  0.6253
29426W        W45687   4.285  15.947   0.345  0.0635  0.0762 -0.0395
29427W        W45688  14.656   0.640   3.874 -0.0965  0.0386 -0.2849
29428W        W45689   9.270   1.324  12.505  0.0907 -0.0623 -0.0644
29429W        W45690   3.202  13.682  11.744  0.1552 -0.0726  0.2792
29430W        W45691  12.925  17.982  12.907  0.1465 -0.0242  0.3125
29431W        W45692  11.141   5.756  10.075  0.0455  0.1028  0.1811
29432W        W45693   3.674   0.111   1.320  0.4473  0.0619 -0.3695
29433W        W45694   0.486  13.249  13.476  0.2139  0.0277 -0.3077
29434W        W45695  15.488   9.985   2.621 -0.4081  0.0344 -0.2070
29435W        W45696  15.096   2.831  12.415  0.0934  0.1618 -0.0499
29436W        W45697  14.735  14.361  10.863 -0.0134  0.0033 -0.1564
29437W        W45698   2.519  13.988   0.850 -0.1047  0.0148 -0.3253
29438W        W45699  17.652  10.817  10.783  0.4275  0.1010 -0.1910
29439W        W45700   4.920   4.009  10.566 -0.1051  0.4075  0.0058
29440W        W45701  14.477  17.545  12.963 -0.1632  0.1086  0.0248
29441W        W45702   1.486   0.833  13.685  0.0780  0.1693 -0.1385
29442W        W45703  16.213   7.996  11.673 -0.0855 -0.0963 -0.3590
29443W        W45704   5.849  15.720  10.243 -0.1252 -0.0480 -0.3632
29444W        W45705  12.465  18.683   3.362  0.0340 -0.1587 -0.4101
29445W        W45706   8.008   1.137   4.561 -0.1038  0.0838  0.6376
29446W        W45707  17.303  15.450   3.119 -0.1532 -0.0801  0.1715
29447W        W45708   6.713  11.976   4.234  0.3619  0.1263  0.1323
29448W        W45709  17.558   1.107  13.121 -0.0631  0.2281 -0.0210
29449W        W45710  13.257  18.508  12.065  0.0347  0.0512 -0.1682
29450W        W45711   5.078   2.172   4.061  0.0632 -0.0479 -0.0688
29451W        W45712  12.123  17.732  11.835 -0.4069 -0.1140 -0.3361
29452W        W45713  14.698   1.091   0.622  0.0018  0.0459 -0.1711
29453W        W45714  17.835   8.645   1.968 -0.1699 -0.1107  0.0838
29454W        W45715  12.338   6.653   3.876 -0.0866 -0.3318  0.1873
29455W        W45716   0.840   0.586   4.692 -0.2151 -0.1714 -0.2871
29456W        W45717   5.220   0.277   1.006 -0.2378 -0.2842 -0.0532
29457W        W45718   8.954   9.250  10.916  0.0916 -0.1918 -0.0148
29458W        W45719   2.665   5.899  12.718 -0.3600  0.1917 -0.2624
29459W        W45720  18.622   2.462   1.950 -0.1312  0.1002  0.2436
29460W        W45721  18.601   5.397   1.335 -0.4855 -0.0442 -0.1464
29461W        W45722  17.317   4.730   9.257 -0.1140  0.0149  0.3534
29462W        W45723   8.348   0.128  12.905  0.1773 -0.0814 -0.0777
29463W        W45724   1.737   1.697  11.542  0.1569 -0.1037  0.1127
29464W        W45725   3.963   1.223  12.144 -0.0285  0.2247  0.1840
29465W        W45726  14.460  13.438   3.272  0.2106  0.3092 -0.0276
29466W        W45727  10.697  14.383   2.726  0.1828 -0.0183  0.2736
29467W        W45728   6.061  15.895  11.614 -0.2056  0.1779  0.3642
29468W        W45729   5.251   5.099  10.449 -0.3158 -0.0599  0.0720
29469W        W45730  12.456   2.958   4.801 -0.0244  0.1148  0.1714
29470W        W45731  15.934   3.952  10.829  0.1371 -0.2311 -0.1954
29471W        W45732   3.676   9.171  11.470  0.2162  0.3348 -0.0721
29472W        W45733  10.908  18.943   2.374 -0.1816  0.0477  0.1004
29473W        W45734   1.610   5.757   0.388  0.1573 -0.0312  0.1091
29474W        W45735   7.989  15.803  10.315  0.2812 -0.1149 -0.0254
29475W        W45736   5.956  13.080  12.727 -0.1201  0.1510 -0.0175
29476W        W45737   2.190  16.597  14.097 -0.2235  0.0734 -0.0144
29477W        W45738   8.056   4.984   2.623 -0.0442 -0.0742 -0.1803
29478W        W45739   5.765   9.075  12.909  0.3441  0.0718 -0.0106
29479W        W45740   9.726  14.903   1.309 -0.3173  0.1317  0.0994
29480W        W45741  18.494  17.887   1.485 -0.2355 -0.0526  0.2158
29481W        W45742   4.432   6.360  12.115 -0.1292  0.1593 -0.1719
29482W        W45743  14.567   6.662  11.528 -0.3737  0.2983  0.0236
29483W        W45744  11.548  11.890   1.253  0.0637 -0.1225  0.1188
29484W        W45745  18.220  17.337  12.835 -0.0099 -0.1031  0.1361
29485W        W45746   0.552   7.008  11.425  0.0581 -0.0682 -0.1087
29486W        W45747  14.407   5.458  13.283 -0.1986  0.0567  0.0548
29487W        W45748   5.546  14.766  11.372  0.4993 -0.0888 -0.1204
29488W        W45749  14.673  12.580   3.588  0.1454  0.0176  0.2162
29489W        W45750  14.813  15.916  11.310 -0.1237 -0.0504  0.0464
29490W        W45751   4.627  14.055   2.649 -0.0789 -0.0352  0.1066
29491W        W45752   3.993   5.431  10.267 -0.1642  0.0907 -0.1567
29492W        W45753   5.325  13.293   3.364  0.1079 -0.1336 -0.1989
29493W        W45754  12.417  17.208  10.575 -0.0017 -0.0070  0.1427
29494W        W45755  11.980  16.124  13.094 -0.0108 -0.0025  0.1311
29495W        W45756  10.155  12.213   3.980 -0.1479  0.0780  0.2173
29496W        W45757   0.062   7.163  10.170 -0.0511  0.0437 -0.1877
29497W        W45758   8.467  12.821  13.391  0.2543  0.0122 -0.1410
29498W        W45759   7.117  16.716   3.086  0.0926 -0.0353 -0.1924
29499W        W45760  13.286  12.053  14.233  0.2794  0.0452 -0.4157
29500W        W45761  12.352  13.920   5.805 -0.0337  0.1731 -0.1370
29501W        W45762   4.222   0.973   3.689 -0.2212  0.1747 -0.2286
29502W        W45763   3.244   8.808  12.005  0.0175 -0.3217 -0.2195
29503W        W45764   6.972   6.301   0.832 -0.2231  0.3164 -0.1402
29504W        W45765   7.478   5.929  10.321  0.1083 -0.1847 -0.1452
29505W        W45766  10.846  18.359  11.479 -0.0668  0.0641  0.0356
29506W        W45767  14.491  14.474   4.619 -0.0796  0.1702  0.1670
29507W        W45768  19.120   4.959   4.819 -0.3340 -0.0765  0.2959
29508W        W45769  12.028  16.729   0.972  0.0793  0.0144 -0.2528
29509W        W45770  13.806   6.347  14.552 -0.2609  0.0651 -0.1178
29510W        W45771  15.547   3.299   3.933  0.1776 -0.1493  0.1954
29511W        W45772   8.803  10.340  13.618 -0.0428  0.3059  0.3967
29512W        W45773  14.009   7.768  11.855  0.0070 -0.0628  0.0373
29513W        W45774   7.048  13.343   1.165  0.0538  0.0193 -0.1116
29514W        W45775   3.509   6.729   0.889  0.3657  0.0735  0.1421
29515W        W45776  19.306   2.123  11.177  0.1360 -0.3061 -0.0294
29516W        W45777   7.854   6.708  10.405  0.0542  0.0080  0.1741
29517W        W45778   5.897  16.278  13.386 -0.1431 -0.2344 -0.1475
29518W        W45779   5.111  10.603   9.554  0.1082 -0.1434  0.2679
29519W        W45780  17.730  18.423   1.789  0.2352 -0.0052  0.1361
29520W        W45781   9.377  15.794   2.797 -0.6266 -0.3964  0.4019
29521W        W45782   6.463   4.681   3.789  0.2081 -0.0509  0.1908
29522W        W45783   5.642   6.602  10.063 -0.2238 -0.2359  0.3774
29523W        W45784   3.528   0.807   1.798 -0.2990 -0.4191  0.1752
29524W        W45785   8.939  11.402   3.351  0.2121 -0.2832 -0.1547
29525W        W45786   3.132  13.615  10.257  0.0168  0.2871  0.2691
29526W        W45787   1.771   2.255  13.163 -0.2310 -0.0778 -0.0746
29527W        W45788   1.658   8.123  10.941 -0.1762  0.2913 -0.0368
29528W        W45789   2.975   7.659  11.671  0.2325  0.2250 -0.0298
29529W        W45790  18.738  10.964  13.871  0.1269 -0.2855  0.0459
29530W        W45791   0.161   1.000  10.222 -0.3356 -0.2262 -0.1470
29531W        W45792  15.516  13.658   3.745 -0.3351 -0.0695 -0.2118
29532W        W45793  16.510  13.488  11.411 -0.0001  0.1153 -0.0939
29533W        W45794   8.532   4.017  10.098 -0.1759  0.1234 -0.1480
29534W        W45795  13.650   9.581   3.977  0.1943 -0.5336 -0.1084
29535W        W45796  17.124  13.979  12.058 -0.1298  0.0243 -0.2612
29536W        W45797   7.976  11.448   2.737 -0.2565  0.3867  0.3320
29537W        W45798   1.486  18.175   2.638 -0.1090 -0.0424  0.0950
29538W        W45799   3.247  16.154   2.474  0.0336  0.1224  0.0648
29539W        W45800  11.795   3.076  11.188 -0.0020 -0.1210  0.3085
29540W        W45801  12.763  10.542   1.667  0.1033 -0.1228 -0.0426
29541W        W45802   5.075  16.205   3.256  0.0082  0.5485  0.0587
29542W        W45803  13.583  13.061   4.997  0.1471  0.3599  0.0885
29543W        W45804   3.846  12.554  11.993  0.0029 -0.2623 -0.2478
29544W        W45805   3.839  16.385   0.982  0.0988  0.0346 -0.1491
29545W        W45806   1.378   8.320   1.405  0.4675 -0.0746 -0.3573
29546W        W45807   2.753   2.446   0.203 -0.1069 -0.0058 -0.3262
29547W        W45808  16.636   0.607  13.268  0.3955  0.2477  0.0335
29548W        W45809   0.236  12.196   4.253 -0.1182 -0.1137 -0.0210
29549W        W45810  19.145   0.455  11.366  0.2317 -0.1338 -0.1064
29550W        W45811  17.424   3.525   5.345 -0.2069  0.2718  0.0625
29551W        W45812   1.448   7.285  12.291 -0.0316 -0.0137 -0.3455
29552W        W45813   2.928  14.421  11.561 -0.3583  0.0675 -0.3170
29553W        W45814   2.061  17.888   1.892 -0.1852  0.1081 -0.1194
29554W        W45815  19.202  11.196  13.694  0.0387  0.2346  0.0053
29555W        W45816   1.445  19.242   1.185  0.4426 -0.0783 -0.0750
29556W        W45817  11.493  17.111  14.027 -0.0692  0.0263 -0.2290
29557W        W45818  13.790   2.848   3.023  0.1657 -0.1752  0.1091
29558W        W45819  16.801   7.989  13.113 -0.0162  0.1889 -0.1166
29559W        W45820   9.057  14.346  10.776  0.0186  0.1714 -0.0189
29560W        W45821  14.474  13.683  11.282 -0.0230  0.1571  0.0005
29561W        W45822  10.480   5.962   4.907 -0.1719  0.1973 -0.0504
29562W        W45823  17.584  16.664  13.446  0.4283  0.1778 -0.0818
29563W        W45824   1.335  15.988   0.961 -0.0673 -0.0596 -0.0147
29564W        W45825  19.424  14.770   4.480 -0.3348  0.0095 -0.1415
29565W        W45826  11.238  13.265   3.116 -0.1949  0.1236 -0.0971
29566W        W45827  11.151  11.891   3.231 -0.0246 -0.0722 -0.0799
29567W        W45828  14.173   6.740  11.181 -0.0950  0.0030 -0.0498
29568W        W45829   8.259   7.526  14.149 -0.2199  0.0119 -0.3039
29569W        W45830  19.298  11.893   2.109 -0.3023 -0.0463  0.0490
29570W        W45831   8.145   2.928  14.165  0.2057  0.2355 -0.0008
29571W        W45832  19.373  16.808   2.617  0.1706  0.0993 -0.2913
29572W        W45833  11.069  18.919   3.786  0.2483  0.0421  0.0038
29573W        W45834  12.442   2.171   4.626 -0.3566  0.0033  0.0494
29574W        W45835   7.660  10.243  11.670 -0.1656  0.3524 -0.0945
29575W        W45836   8.279   4.083   2.708  0.0018 -0.3229 -0.0752
29576W        W45837   4.165  15.476   0.607  0.2070  0.0040 -0.0231
29577W        W45838  17.724  13.018  12.266 -0.1450  0.0188  0.2642
29578W        W45839   1.330   5.882   0.021  0.0001 -0.1652  0.0869
29579W        W45840  17.467  19.433   1.356  0.1739 -0.2890 -0.3202
29580W        W45841  14.461  18.864  13.905  0.0643 -0.2733  0.0665
29581W        W45842   0.756   9.635  11.481 -0.2615  0.0777 -0.1869
29582W        W45843   8.240   7.937   0.782  0.0787 -0.0881  0.2364
29583W        W45844   3.173  12.816  14.421  0.0117  0.3078 -0.3324
29584W        W45845   2.535   8.932   0.116  0.0666  0.0893 -0.1895
29585W        W45846   4.638   7.011   8.576  0.2938  0.0381 -0.3412
29586W        W45847  13.554   1.091   2.534 -0.3569  0.0456  0.0428
29587W        W45848   0.845   8.027   2.167 -0.1779  0.1474 -0.0236
29588W        W45849  17.754  11.047  14.593  0.0146 -0.0220 -0.3877
29589W        W45850  15.266   7.681  13.062 -0.0194 -0.1253  0.2302
29590W        W45851  18.706  19.080   0.334  0.1964 -0.2806  0.3473
29591W        W45852  10.121  16.717   4.815  0.0061 -0.0337 -0.0251
29592W        W45853  18.174   5.051  14.003  0.0380  0.1528 -0.1923
29593W        W45854   6.217  18.657   0.217  0.0556  0.0463  0.0546
29594W        W45855  17.367  14.920   1.978  0.0820  0.1586 -0.1084
29595W        W45856  12.634  14.663   2.778  0.1127  0.0451  0.2843
29596W        W45857  16.948   9.988   5.633  0.0227  0.1453  0.0219
29597W        W45858  16.319  18.540  11.228 -0.2262 -0.0779  0.5580
29598W        W45859   1.811   5.727   1.206 -0.0535 -0.3903  0.0134
29599W        W45860  10.630  15.157   2.804  0.0445  0.1156 -0.2558
29600W        W45861  14.848  15.894   3.131  0.1523  0.0046 -0.0775
29601W        W45862   3.659  12.705   3.648  0.2047  0.0150  0.2384
29602W        W45863   2.353   5.364  13.777  0.2049 -0.0878 -0.1607
29603W        W45864  13.645  17.228   2.045 -0.3411  0.1157  0.1106
29604W        W45865   8.613   7.120   1.236  0.1006 -0.0850 -0.2245
29605W        W45866  18.853   2.531  12.730  0.2373  0.0674  0.0008
29606W        W45867  13.706  15.580   5.624 -0.3320  0.2939  0.0732
29607W        W45868   6.492  10.809   0.931 -0.1522  0.0021 -0.0573
29608W        W45869  10.484  16.628  13.504 -0.1555 -0.2051  0.1541
29609W        W45870   7.574   2.278  13.995 -0.0856  0.0616 -0.2455
29610W        W45871  15.783   8.556   3.481  0.2284 -0.2551  0.0646
29611W        W45872   9.382  10.118   3.961  0.0818 -0.0517  0.1160
29612W        W45873  18.552  11.772  10.314  0.1708 -0.0683  0.2170
29613W        W45874  15.972   1.414   4.881  0.0176  0.3321  0.0725
29614W        W45875   6.734  11.635  14.426 -0.1185  0.1695 -0.0112
29615W        W45876  14.603  10.468   5.555 -0.5460  0.0674 -0.2172
29616W        W45877   4.730  17.110  11.791 -0.2479 -0.0299 -0.0338
29617W        W45878  13.499  14.099  13.197 -0.3175  0.0210 -0.0361
29618W        W45879   4.172  12.687  13.935 -0.0253 -0.0836 -0.2755
29619W        W45880   9.213   8.156   0.711 -0.0245 -0.0056 -0.2672
29620W        W45881   8.084  18.281  11.786  0.0613  0.0905 -0.1436
29621W        W45882   2.630  14.353   3.872  0.2062 -0.2521 -0.2373
29622W        W45883  16.151   6.608  10.795  0.2620  0.1482 -0.0927
29623W        W45884   8.735   9.911  11.404 -0.0996 -0.0009  0.2775
29624W        W45885  14.623   0.725  11.903 -0.2859 -0.2751 -0.2656
29625W        W45886  13.364  10.034   0.724  0.1417  0.1050 -0.0140
29626W        W45887  10.214   3.527  10.044  0.1895  0.2483 -0.2257
29627W        W45888  17.542  17.963   2.863 -0.0959 -0.4095 -0.1685
29628W        W45889   7.545  16.278   0.600  0.2339 -0.0616 -0.1255
29629W        W45890  11.609  12.922  11.544 -0.0345  0.2510  0.1334
29630W        W45891  12.639   0.333   3.223 -0.1150 -0.0066 -0.2669
29631W        W45892   9.257  13.344   2.570  0.2458  0.1009  0.0451
29632W        W45893  16.974  19.292  13.623 -0.1703  0.2979  0.1556
29633W        W45894   4.167  15.576  11.019 -0.1099 -0.2421 -0.0925
29634W        W45895  17.172   3.329   4.232 -0.1684 -0.0666  0.2305
29635W        W45896   4.648   6.354   1.687 -0.0846  0.0526  0.1395
29636W        W45897  13.118   2.390   1.297  0.1299  0.1636 -0.3498
29637W        W45898   3.852   0.238  10.459  0.0368 -0.1238  0.3516
29638W        W45899   3.323  14.841  10.233  0.0125 -0.1275 -0.1907
29639W        W45900  11.828  18.103   1.224 -0.1137  0.0558  0.1759
29640W        W45901  14.215  11.220  14.436  0.1644  0.1640  0.1739
29641W        W45902  13.190  13.621  13.580 -0.1596 -0.3684 -0.1019
29642W        W45903  16.196   7.347   5.391 -0.3101  0.1192 -0.2867
29643W        W45904  12.624   4.991  11.644  0.3679  0.2055  0.0924
29644W        W45905   0.545   2.493  10.372 -0.0762  0.3128  0.1731
29645W        W45906   0.215   4.138  12.503 -0.0214  0.3693 -0.0671
29646W        W45907  16.100   1.881   9.972  0.4735  0.2123 -0.1292
29647W        W45908   0.639   8.578   1.342 -0.1361 -0.1158  0.2128
29648W        W45909   1.645  10.046   5.000  0.1404 -0.2669 -0.0880
29649W        W45910   2.408   8.195  14.574 -0.1143 -0.0192  0.0915
29650W        W45911   8.733   7.577  11.907 -0.1999 -0.3394  0.1330
29651W        W45912  17.413   4.784  12.516  0.2613 -0.2844 -0.0783
29652W        W45913  12.411   4.532  12.287 -0.2185 -0.2921  0.1764
29653W        W45914   2.057  16.601  11.841  0.1367 -0.0832  0.2445
29654W        W45915   8.692  19.060  13.885  0.1714  0.2443 -0.4102
29655W        W45916  19.172  14.502  13.855  0.1161 -0.1763 -0.0529
29656W        W45917   1.085  13.157   3.532 -0.0858 -0.0252 -0.0932
29657W        W45918  14.597  15.556  11.747  0.3112  0.0844 -0.3336
29658W        W45919   5.831   4.949   0.667  0.0581  0.0279  0.1511
29659W        W45920   2.445   8.272   9.141  0.2727  0.0631 -0.1691
29660W        W45921  14.752  10.729   1.750 -0.0507 -0.1673  0.1214
29661W        W45922   8.178  16.159   0.173 -0.4211 -0.3015  0.2591
29662W        W45923   7.426   3.669  12.424  0.1392 -0.4011  0.0679
29663W        W45924   8.245   7.114  10.984 -0.2164 -0.2052  0.1508
29664W        W45925   6.914  11.596  11.872  0.1941 -0.3296  0.1297
29665W        W45926  15.720  19.385  13.473  0.0637 -0.0892  0.2313
29666W        W45927  14.893  13.970   3.433  0.0318 -0.1088  0.1596
29667W        W45928  14.725  17.574  11.818  0.0936 -0.4237  0.1866
29668W        W45929   6.509   5.908  13.328 -0.2818  0.0681 -0.1067
29669W        W45930   8.055   9.286  11.841  0.0130  0.0668 -0.0992
29670W        W45931   7.221  13.831  14.426 -0.0242  0.0357  0.4531
29671W        W45932   6.994  17.895   0.947  0.2953 -0.0723  0.0948
29672W        W45933  12.737  16.422   1.591 -0.0714  0.1372  0.1201
29673W        W45934   7.904  18.603  12.256  0.0418 -0.2173 -0.1820
29674W        W45935   9.273  18.540   1.130 -0.0158 -0.1366  0.1372
29675W        W45936   1.433   5.946  13.949 -0.4839 -0.0855  0.1847
29676W        W45937   2.785   3.998  13.989 -0.3370 -0.2558 -0.4827
29677W        W45938  19.475   2.897   2.592 -0.2662 -0.3598  0.3000
29678W        W45939  15.691  13.465  11.320  0.0423  0.1364  0.0171
29679W        W45940  18.693  14.571   1.997 -0.1258 -0.1805  0.2007
29680W        W45941  19.138   5.392   2.185 -0.2140  0.2450  0.3257
29681W        W45942   3.266   2.243   1.300  0.1373  0.0776 -0.0097
29682W        W45943  18.078   2.420  13.911  0.4810  0.1387 -0.0030
29683W        W45944  16.490   9.658   5.255  0.3685 -0.0494 -0.3227
29684W        W45945   6.001  10.559  12.504 -0.0357 -0.0449  0.1023
29685W        W45946   0.753   0.823  12.057  0.0692  0.0019  0.1749
29686W        W45947   2.347   6.996   1.526  0.2865  0.1287  0.2410
29687W        W45948   2.119   6.105  11.615  0.2735 -0.2331 -0.3423
29688W        W45949   6.217   9.151   1.260  0.0907  0.0486  0.2761
29689W        W45950  15.381  14.560   3.742  0.1879 -0.0197 -0.2917
29690W        W45951  17.108   5.380  10.080 -0.2084  0.3413  0.2359
29691W        W45952   4.443  13.211  12.557  0.3125  0.1044 -0.2618
29692W        W45953  15.006  16.606   5.185 -0.3347 -0.2680 -0.1834
29693W        W45954   5.093  14.522   0.767 -0.2220  0.1118 -0.1975
29694W        W45955   8.656  14.875   3.582 -0.0451 -0.2702  0.0912
29695W        W45956  12.002  15.581   1.683 -0.0449 -0.0139 -0.0288
29696W        W45957  13.516   0.632   2.812  0.4545 -0.0134  0.0569
29697W        W45958   2.753   6.559  11.204 -0.0522 -0.1529  0.6354
29698W        W45959   4.508  17.073   3.671  0.0159  0.0782  0.0956
29699W        W45960  17.723  14.872   2.334 -0.1353 -0.1141  0.0433
29700W        W45961  11.324   5.538   9.568 -0.1682  0.3127  0.0120
29701W        W45962  18.648   2.937   4.071  0.0314  0.0311 -0.0340
29702W        W45963  19.427   4.878   1.388  0.0417 -0.2538  0.0377
29703W        W45964  13.759   1.311  14.298  0.2095 -0.2254  0.0965
29704W        W45965   0.968  15.062  11.303  0.3652  0.2932 -0.1068
29705W        W45966   3.495  13.535   3.032 -0.0066  0.0800 -0.0418
29706W        W45967   6.498   3.584  12.936  0.2524 -0.1562  0.0799
29707W        W45968  11.652  14.846   4.747 -0.1439 -0.1139 -0.0822
29708W        W45969  10.280  10.941   3.484  0.3731 -0.2058  0.2785
29709W        W45970   2.587   0.167  13.045 -0.7300 -0.1876 -0.1480
29710W        W45971   8.157   5.382  12.034 -0.1710 -0.2647  0.1493
29711W        W45972   1.496  14.244   3.720  0.3000  0.0406  0.1537
29712W        W45973   9.331   9.774   1.321 -0.2037 -0.1223  0.0815
29713W        W45974   1.682   1.105  10.136  0.2527  0.0460 -0.3472
29714W        W45975   9.568   9.065  11.932  0.0590 -0.1129  0.0077
29715W        W45976  13.035   8.041   3.943 -0.1457 -0.0943 -0.1350
29716W        W45977   6.703  17.712   9.341  0.1036  0.2740 -0.0206
29717W        W45978   0.518   2.205   2.441 -0.3172 -0.4226 -0.0589
29718W        W45979   4.214   9.745   3.799 -0.0521  0.1388 -0.1202
29719W        W45980   9.757   3.732  10.105 -0.0518 -0.2144  0.0468
29720W        W45981  12.282  16.724  10.536 -0.2765  0.0910  0.0939
29721W        W45982   1.670   2.189  14.501 -0.0986  0.2534 -0.2332
29722W        W45983   5.987   7.213  13.593  0.0922  0.1699  0.3099
29723W        W45984   9.241   4.076   4.682 -0.0499 -0.0536  0.2211
29724W        W45985  10.700  15.131   3.415  0.1895 -0.0811  0.2576
29725W        W45986  12.738  11.380  13.936  0.0061 -0.1727  0.3210
29726W        W45987  18.298  13.362   3.147 -0.2816  0.0248 -0.1117
29727W        W45988   3.120   5.920   1.327 -0.0250  0.3439 -0.2482
29728W        W45989  14.728   5.681  12.251 -0.2564  0.3177 -0.1616
29729W        W45990  10.012  10.854   3.932 -0.2480 -0.2131 -0.0635
29730W        W45991   4.434   3.446  11.004 -0.1472  0.1682  0.0913
29731W        W45992  10.573   0.291   1.676 -0.2243  0.2308 -0.2549
29732W        W45993  10.087   2.600  14.470  0.3258  0.0038 -0.2583
29733W        W45994   4.390   5.793  14.787 -0.0490  0.1340 -0.2493
29734W        W45995   7.442   4.638  14.139 -0.0591  0.1228  0.1682
29735W        W45996   4.239  17.756   0.020  0.1612  0.0386  0.1482
29736W        W45997  15.213  18.920   1.605  0.2695 -0.3773 -0.1852
29737W        W45998   7.335  15.944   1.415  0.1137 -0.3564  0.2285
29738W        W45999   4.279   8.864  11.867 -0.1648  0.1888  0.3190
29739W        W46000   7.289   0.626   2.863 -0.4281 -0.0054 -0.2276
29740W        W46001   3.697   7.639   3.042  0.0484 -0.1310  0.0413
29741W        W46002  15.067   7.396   1.378 -0.2058 -0.4464  0.3676
29742W        W46003   4.511   4.508  14.134 -0.0200 -0.2184 -0.0440
29743W        W46004  16.372   0.360   1.196  0.0125  0.0304  0.0807
29744W        W46005  15.723   1.643   1.116  0.0601  0.2163 -0.3048
29745W        W46006   8.618   1.870  12.875 -0.0786 -0.1750 -0.4260
29746W        W46007   7.528  11.586  10.830 -0.0849  0.0579 -0.1136
29747W        W46008  18.898   1.634   2.897  0.2727  0.0156  0.0055
29748W        W46009  18.142  12.627  13.592 -0.0918 -0.2925  0.1977
29749W        W46010  19.333   0.464   3.585 -0.1244  0.2582  0.2488
29750W        W46011   1.372   7.253   3.056 -0.4688  0.1062  0.4078
29751W        W46012  13.205   6.169  13.151  0.1210 -0.0217 -0.0618
29752W        W46013  14.566   7.386   4.087  0.2731 -0.0779 -0.0889
29753W        W46014  18.644   4.278  13.942 -0.2365 -0.2053 -0.2307
29754W        W46015   0.215  19.322   0.767  0.3678 -0.0458 -0.0159
29755W        W46016  16.886  15.548   4.647 -0.0235  0.0096 -0.2625
29756W        W46017   4.850  13.195   3.130  0.2625  0.2191  0.0270
29757W        W46018  14.452  11.109   1.829 -0.0621  0.0581 -0.1434
29758W        W46019   6.254  10.722   3.714 -0.2173 -0.0287 -0.3304
29759W        W46020   0.373   2.130  11.266  0.1023 -0.0452 -0.1499
29760W        W46021   5.839   6.909   1.427 -0.1788 -0.2422 -0.0697
29761W        W46022   7.380  15.456  13.346  0.2031  0.0205 -0.0366
29762W        W46023   5.969   3.382   3.914 -0.2705  0.3489  0.1695
29763W        W46024   3.672  12.264  12.859 -0.0522  0.1012  0.1481
29764W        W46025   4.080  19.453  13.120 -0.2523  0.1461 -0.1023
29765W        W46026   8.978  17.117  12.877 -0.1102  0.1014 -0.0001
29766W        W46027  19.042  16.525   4.889  0.1945 -0.3075 -0.2785
29767W        W46028  12.950  15.763   1.323  0.0618  0.4844  0.2456
29768W        W46029  15.894   3.999   4.152 -0.1253 -0.1519  0.1129
29769W        W46030  14.000   6.323  12.765  0.1306 -0.1678  0.0787
29770W        W46031   8.261   4.895   1.033  0.4985 -0.1339  0.0302
29771W        W46032   5.692  19.303  11.183 -0.0377  0.4004  0.0576
29772W        W46033   4.393  11.388   1.797 -0.0886 -0.1475 -0.0874
29773W        W46034   8.925   8.334   3.708 -0.2660 -0.1225 -0.1448
29774W        W46035   4.943  18.082   4.968  0.1296  0.1114  0.4360
29775W        W46036   5.831  13.202   3.302  0.2057 -0.3569 -0.1424
29776W        W46037  16.742   3.483   3.142  0.1634 -0.1834  0.1715
29777W        W46038  18.666   8.627  12.953  0.0721  0.2160  0.0029
29778W        W46039  18.646   0.008   2.563 -0.0870  0.0548 -0.0779
29779W        W46040  16.285   4.713  10.724 -0.0712 -0.2764 -0.0461
29780W        W46041  16.719   5.422  14.711 -0.1849 -0.4506  0.0093
29781W        W46042  12.485  15.408   4.926 -0.0071 -0.3150  0.0184
29782W        W46043   0.167   8.467   0.068  0.0629  0.3014 -0.2072
29783W        W46044  13.891   0.016  14.381 -0.2657 -0.4045  0.1979
29784W        W46045   7.720   2.399   4.180 -0.0075 -0.4248  0.0224
29785W        W46046   1.803   3.492  11.011 -0.2909  0.0711  0.0553
29786W        W46047  12.931  10.119  11.809 -0.3266 -0.0279  0.0753
29787W        W46048  15.331  17.256  13.087 -0.3789 -0.0180  0.1271
29788W        W46049   8.611   7.434   0.121 -0.0755 -0.2346  0.1855
29789W        W46050  14.571  15.617   2.798 -0.2619 -0.0232  0.1341
29790W        W46051   7.782   1.470   0.434 -0.2475  0.1582 -0.1942
29791W        W46052   0.456   9.631  13.809 -0.3709  0.0285 -0.0053
29792W        W46053  15.271  12.348   9.442 -0.1132  0.0347  0.2517
29793W        W46054   2.309   4.645  10.968  0.0888  0.1638 -0.2363
29794W        W46055  15.586   3.077  10.880  0.0809 -0.0692 -0.1655
29795W        W46056   2.269  19.301  12.199  0.0099 -0.1888  0.1056
29796W        W46057   8.609   9.029  12.476  0.1911  0.0923 -0.0294
29797W        W46058  12.895   0.339   2.772 -0.0119 -0.0388 -0.0508
29798W        W46059  16.497   0.768   2.999 -0.0205  0.1875  0.0179
29799W        W46060  17.600  16.161   2.129  0.0680  0.4528 -0.0742
29800W        W46061  18.625  13.967  13.102  0.1527  0.2553 -0.1899
29801W        W46062   2.884  18.822   4.887 -0.3218 -0.3848 -0.1371
29802W        W46063   3.970  13.899   4.726  0.2238 -0.0815 -0.1294
29803W        W46064  19.132   8.653  12.017 -0.0772  0.1423 -0.1775
29804W        W46065  15.364   0.641  12.665  0.3957  0.1100  0.2733
29805W        W46066  19.258  12.310  11.662  0.1085  0.3159  0.2502
29806W        W46067  16.011   3.511   2.348 -0.0072  0.2167  0.0462
29807W        W46068   6.235  17.149  11.011 -0.1838  0.2206  0.1844
29808W        W46069  12.844  11.780  12.861 -0.3019 -0.0053  0.0351
29809W        W46070  17.788   8.126   4.840 -0.0020  0.1594 -0.0676
29810W        W46071  10.555   2.588  11.087  0.0663 -0.1442 -0.0119
29811W        W46072  13.288   7.378   0.936 -0.2996 -0.0488  0.1829
29812W        W46073  10.881  19.471  13.405 -0.4113 -0.0738  0.0783
29813W        W46074   7.258   1.841   3.708 -0.1264  0.2767 -0.1826
29814W        W46075   7.050   0.650   9.342 -0.1270 -0.1156 -0.0161
29815W        W46076   0.632  14.976  14.735 -0.1936 -0.0259 -0.1988
29816W        W46077  17.193  15.374  13.539 -0.1978  0.0151  0.0699
29817W        W46078  11.059  15.648   3.665 -0.0620  0.1392 -0.0488
29818W        W46079   1.008   1.454  13.179  0.0532  0.0407  0.0834
29819W        W46080  18.921  19.444  11.282 -0.1850 -0.2764 -0.2649
29820W        W46081  19.485   9.445  10.903  0.1809  0.0103 -0.1155
29821W        W46082  16.407  16.646  11.709 -0.0046  0.0337 -0.2970
29822W        W46083  11.434  16.705   2.009  0.0270  0.0173 -0.2098
29823W        W46084   9.120   2.217  12.315  0.0329 -0.0478  0.3943
29824W        W46085   8.384   9.693  11.833  0.1100  0.0196 -0.1441
29825W        W46086  17.628  14.032  12.094  0.1548  0.4446 -0.1145
29826W        W46087  13.448   4.637   0.966  0.0303  0.2885  0.1081
29827W        W46088  13.365  16.109  11.595  0.2339 -0.4145  0.2227
29828W        W46089   1.592   0.194  14.407 -0.3174  0.1538  0.3516
29829W        W46090  18.781  18.540   3.320  0.0185 -0.0092 -0.0725
29830W        W46091   6.635   0.427  14.515  0.1165  0.2965 -0.3196
29831W        W46092   0.989  17.312  10.381 -0.1914 -0.1142  0.1944
29832W        W46093  10.466  15.349  13.433 -0.2260  0.2504  0.1285
29833W        W46094  11.691   4.786   4.533 -0.0958 -0.0931 -0.0053
29834W        W46095   3.762   2.513   3.453  0.0718  0.0497 -0.0714
29835W        W46096  14.650  15.629  14.229  0.3010  0.0159  0.0131
29836W        W46097   0.392   7.779   1.938 -0.0597 -0.0982 -0.3079
29837W        W46098  12.991  16.621   2.968 -0.0444  0.3338  0.0117
29838W        W46099   3.583   0.146   3.867 -0.0403  0.0440  0.1835
29839W        W46100  18.223  10.121   4.787 -0.0629 -0.2494  0.0668
29840W        W46101   3.450   6.327  10.473 -0.0684 -0.1240  0.0971
29841W        W46102   0.214   6.284  10.908 -0.2641  0.0418  0.2410
29842W        W46103  10.465   3.008  13.999 -0.1180 -0.0912  0.1916
29843W        W46104  10.525   9.753   1.782  0.3732 -0.4607  0.2670
29844W        W46105   1.884   0.152  11.743 -0.3123  0.4686 -0.2596
29845W        W46106  10.221   9.404   5.016  0.3186  0.2905  0.1420
29846W        W46107   4.451   3.762   1.221  0.0023  0.1028 -0.1070
29847W        W46108  16.079   3.291   4.689  0.0710 -0.2191  0.1529
29848W        W46109   8.672  17.265   3.488  0.3937 -0.1475 -0.2553
29849W        W46110  17.217   1.916  10.744 -0.0963 -0.0332 -0.0838
29850W        W46111  10.001  15.779   3.407  0.7107 -0.1297  0.1095
29851W        W46112   2.152  13.870  12.462  0.3174 -0.1601 -0.1695
29852W        W46113  15.116   2.173   4.677  0.4292 -0.1082  0.1802
29853W        W46114  15.556   7.115   1.521 -0.2140 -0.2555 -0.0865
29854W        W46115   0.500   6.835  12.497 -0.0733 -0.0062 -0.1172
29855W        W46116  14.529  11.907  11.880  0.4443 -0.0811  0.1046
29856W        W46117   2.718   8.477  10.205 -0.1206 -0.2615 -0.4174
29857W        W46118  10.526   8.702  12.078  0.0830 -0.1219  0.0258
29858W        W46119  10.395  15.541   4.236 -0.0874  0.0057 -0.1013
29859W        W46120   9.693  10.187   0.117  0.1454  0.0576  0.1893
29860W        W46121  10.715  18.425   0.567 -0.0729 -0.1040  0.1042
29861W        W46122  15.426  11.076   3.535 -0.0542 -0.0629  0.0250
29862W        W46123  16.962   9.923   0.991  0.3042 -0.1301  0.0517
29863W        W46124   0.144   8.312   2.215  0.1700  0.0165  0.2756
29864W        W46125  19.110  19.231  12.160 -0.2258 -0.0394  0.4145
29865W        W46126  16.908   7.445   4.035  0.2177  0.1530 -0.1748
29866W        W46127   0.687  17.620   1.540 -0.3265 -0.1657  0.3895
29867W        W46128   0.610   3.426   2.497 -0.2090  0.0299 -0.3973
29868W        W46129  19.240  13.832   2.004  0.5612  0.0147  0.0752
29869W        W46130  13.906   5.821  12.869 -0.0849  0.2062 -0.2506
29870W        W46131   1.752  16.110   2.241  0.2359 -0.0429 -0.4936
29871W        W46132   5.372   2.019   1.132  0.0587 -0.4653 -0.2894
29872W        W46133  17.343  17.541   1.897 -0.2394 -0.0367 -0.1870
29873W        W46134  19.028  12.430  14.262 -0.2604 -0.2484 -0.1848
29874W        W46135   3.017   3.073   0.911 -0.2564 -0.0966  0.0317
29875W        W46136  13.417   3.389  12.761 -0.1419 -0.0964  0.1215
29876W        W46137   2.038  17.448  12.989  0.1217  0.0540  0.2070
29877W        W46138   2.044   4.943   0.431 -0.2205 -0.3083 -0.0011
29878W        W46139   2.655  18.900   1.898 -0.0848  0.2177  0.0160
29879W        W46140   0.878  15.515  12.371 -0.3438  0.3383  0.1007
29880W        W46141  18.964  16.233  11.229 -0.1312  0.1677 -0.2708
29881W        W46142   1.313  16.945  10.521  0.1944  0.0357 -0.0843
29882W        W46143   5.703  13.681  14.081 -0.0540  0.1600 -0.2640
29883W        W46144  12.762  12.856  13.640 -0.0113 -0.0929  0.0159
29884W        W46145  10.596   3.581   2.473 -0.1516  0.2637 -0.3871
29885W        W46146   9.632   1.042   2.297  0.4066 -0.2146 -0.0845
29886W        W46147  15.671  13.845  10.873  0.0447  0.1260 -0.0372
29887W        W46148  13.739   5.904   1.743 -0.0418 -0.0979  0.0445
29888W        W46149  16.527   1.590   1.926 -0.0666 -0.2978  0.0724
29889W        W46150  19.215   2.258   1.882 -0.1496  0.1714 -0.3447
29890W        W46151   8.437  17.790   2.911 -0.0948 -0.2586  0.1470
29891W        W46152   5.095  11.938  12.634 -0.3833  0.1098  0.4927
29892W        W46153   0.618  15.186  10.520  0.1946  0.1362 -0.3753
29893W        W46154  17.952  13.545   2.343  0.0605 -0.1692 -0.4567
29894W        W46155  16.301  11.898   1.660  0.1838 -0.3127  0.0429
29895W        W46156   2.962   6.950  13.132 -0.0838  0.3138 -0.2295
29896W        W46157   3.499  13.202   0.880 -0.2396 -0.0444  0.0217
29897W        W46158  12.631   9.434   0.127 -0.3356 -0.1889  0.3988
29898W        W46159  12.567   4.890  13.641 -0.1488  0.2252  0.1460
29899W        W46160   4.935  15.530   4.997 -0.0294  0.0919  0.2710
29900W        W46161   2.274   5.057  11.263  0.0237 -0.2891 -0.1548
29901W        W46162  12.321   3.296  11.427  0.3502  0.2321 -0.2423
29902W        W46163  12.980  11.905   1.368 -0.0033  0.3046  0.1496
29903W        W46164   2.444   5.520   3.707 -0.1413 -0.0422 -0.2694
29904W        W46165  16.043   3.422   0.612  0.1543 -0.2890  0.0896
29905W        W46166   8.897  13.443   4.466  0.0602  0.4286 -0.0488
29906W        W46167   0.423  10.249  11.275 -0.0253  0.0252  0.5888
29907W        W46168  12.848   4.609   0.985  0.0491  0.2725 -0.3758
29908W        W46169  17.597  12.394   4.711  0.0480  0.0233 -0.0545
29909W        W46170   6.164  11.380  13.129 -0.0006 -0.2718  0.3153
29910W        W46171   6.450  15.266   3.525  0.2809  0.3083  0.4155
29911W        W46172  18.046   8.486  11.036  0.1040 -0.1740 -0.0124
29912W        W46173  19.016   9.336  11.130 -0.2147  0.0136  0.2700
29913W        W46174  18.968  16.154   1.598 -0.0003  0.1178  0.2591
29914W        W46175   6.890   3.859  11.221 -0.4304  0.1157 -0.1234
29915W        W46176  16.776   7.211  14.022 -0.4335 -0.1493  0.1422
29916W        W46177  18.855   6.560   1.711 -0.3718  0.0128 -0.4741
29917W        W46178  10.343   1.628   2.874 -0.2036 -0.2619  0.1459
29918W        W46179   2.601   2.075  13.751  0.2727  0.1438  0.3412
29919W        W46180   0.072  16.121  12.500  0.1416 -0.1140  0.0408
29920W        W46181  14.274  19.484   0.676  0.2520 -0.2102  0.0719
29921W        W46182   2.464   3.206   9.854  0.3887 -0.0682  0.0831
29922W        W46183   6.061  19.041   0.921 -0.0659 -0.2443  0.1427
29923W        W46184   0.461  10.398  12.264 -0.0338 -0.0371 -0.1754
29924W        W46185  10.565  15.618   1.418  0.0049  0.0849  0.0669
29925W        W46186  14.578   9.355   2.528  0.2635 -0.1058  0.0464
29926W        W46187  11.834   7.372  14.596  0.1429  0.1789  0.1638
29927W        W46188  15.302   9.087   1.120 -0.1981  0.1585 -0.0761
29928W        W46189   9.861   3.068  13.230  0.0432  0.1613  0.1010
29929W        W46190   7.294  13.301   0.722 -0.0948 -0.1963 -0.3340
29930W        W46191   2.434   5.283   0.456 -0.1740  0.0144 -0.1454
29931W        W46192   3.339  11.566   0.733  0.2713 -0.1258 -0.4066
29932W        W46193  19.422  16.252   4.234 -0.1927  0.3020 -0.1681
29933W        W46194   5.088  15.757  12.669  0.2533 -0.1446 -0.1699
29934W        W46195  18.031  13.956   1.218 -0.1164 -0.1074  0.4484
29935W        W46196   7.614  15.312   0.213  0.3403  0.1114  0.0347
29936W        W46197   4.307   8.884   2.581 -0.0078  0.1569  0.1293
29937W        W46198   9.357  16.859   3.158  0.0624 -0.0548 -0.0644
29938W        W46199   6.983  12.578  14.764  0.2409 -0.2174 -0.4574
29939W        W46200   5.632  12.321  12.033  0.0165 -0.0367  0.0100
29940W        W46201  18.419  13.084   0.484  0.1989 -0.1571 -0.0030
29941W        W46202  16.379  14.745   5.466  0.2623 -0.0198  0.3331
29942W        W46203   1.838  11.848  10.734  0.3475  0.3401 -0.1685
29943W        W46204  11.054  10.598   5.157 -0.1038  0.5474 -0.4415
29944W        W46205   4.138   2.162   1.928 -0.0250  0.1858 -0.0697
29945W        W46206  16.982   7.098   5.459 -0.1288  0.4231  0.3751
29946W        W46207  19.047   9.973   2.815 -0.2405  0.4810 -0.0000
29947W        W46208  18.353  18.548  11.778  0.1933  0.0091  0.0150
29948W        W46209  11.606   7.382   4.029 -0.1983 -0.0237 -0.2579
29949W        W46210  17.179   5.920   5.385 -0.3257 -0.0456  0.0542
29950W        W46211   0.762   5.462   4.056  0.0350 -0.0064  0.0658
29951W        W46212  13.157  13.411   5.163  0.1248  0.0030 -0.1047
29952W        W46213  13.270   1.951   3.976 -0.3135  0.1918 -0.2176
29953W        W46214   0.844  16.869   3.069  0.0570 -0.0467  0.1848
29954W        W46215  18.243  14.174   2.892 -0.3086  0.1976  0.0414
29955W        W46216   2.069   8.961   3.961  0.0789 -0.0178 -0.1674
29956W        W46217  12.118   3.762  11.256 -0.1106  0.0182  0.1414
29957W        W46218   2.867  10.173   3.500  0.0775 -0.0895 -0.3236
29958W        W46219   5.356  13.242  14.141  0.1285 -0.1100  0.2234
29959W        W46220   1.110  12.849   2.547  0.2835  0.0751  0.1035
29960W        W46221  13.682  13.736  13.522  0.0527  0.0892 -0.1321
29961W        W46222  18.147   9.446   3.890 -0.1369 -0.2452  0.1585
29962W        W46223   3.666   1.289   2.004 -0.0918 -0.2189 -0.3486
29963W        W46224  16.799  14.496   2.445  0.0756 -0.0885  0.0908
29964W        W46225  16.639   4.241  12.338 -0.1763 -0.3023  0.0218
29965W        W46226   4.372   4.457  11.257  0.2773 -0.3667  0.1752
29966W        W46227  12.912   1.548   4.629  0.0285 -0.2219  0.0375
29967W        W46228   7.963  17.857  12.619  0.0837  0.2392 -0.2417
29968W        W46229   4.714  18.421   4.542  0.1951 -0.2629  0.0680
29969W        W46230   4.991   1.751   2.553 -0.0414  0.3027 -0.0113
29970W        W46231  12.788   3.492   1.680  0.1802  0.0867 -0.1831
29971W        W46232  16.382   9.447   2.513  0.4233 -0.0154  0.0294
29972W        W46233  15.893  16.134   0.745  0.0591  0.2931  0.2541
29973W        W46234  12.411   1.126  14.210  0.1322  0.2312 -0.2584
29974W        W46235   2.426   2.073   1.138 -0.0422 -0.1812 -0.0497
29975W        W46236   3.834   5.424  13.470 -0.2774  0.1645  0.0994
29976W        W46237   1.431   3.903  13.605  0.2018  0.0895 -0.2650
29977W        W46238  15.547  18.826  13.428  0.5514  0.0715  0.1805
29978W        W46239   8.231  17.959  13.043  0.2691  0.1372 -0.5198
29979W        W46240  10.512   5.886   2.490  0.1504  0.0620  0.2422
29980W        W46241   9.376   8.327   3.997 -0.1380 -0.1284  0.0257
29981W        W46242  17.029  10.830   9.631  0.0036 -0.2032  0.2262
29982W        W46243  10.339  14.024   4.177  0.4055 -0.1633 -0.1450
29983W        W46244  10.487   5.964   1.001 -0.1222  0.2689  0.0362
29984W        W46245  19.471   2.379  11.647 -0.4775  0.0523  0.3552
29985W        W46246   9.008  15.092  11.650  0.3469  0.0523 -0.2081
29986W        W46247   1.413  14.806   3.741  0.1613 -0.1800  0.0471
29987W        W46248   2.755  13.651  13.498  0.0713 -0.0373 -0.2869
29988W        W46249  11.403  16.930   1.274 -0.1205 -0.1524 -0.2258
29989W        W46250   9.309  16.313  10.249  0.4942 -0.0467  0.2343
29990W        W46251  15.436  13.148   4.031  0.1248  0.0659 -0.0750
29991W        W46252   9.909   4.249  10.299 -0.1785  0.1608 -0.0283
29992W        W46253  10.688   4.282   4.328  0.0032 -0.0461 -0.2226
29993W        W46254   1.645   0.019  13.271  0.0590  0.1955 -0.1517
29994W        W46255  13.517  17.373   3.050  0.0140  0.1465 -0.2228
29995W        W46256   7.828   0.556   2.841 -0.4972 -0.0963 -0.2193
29996W        W46257   9.538   5.614   3.347 -0.0164  0.2798  0.1407
29997W        W46258  19.272  19.081  10.752  0.0723  0.4163 -0.2853
29998W        W46259   5.467   1.882  14.055 -0.0866 -0.0638 -0.1237
29999W        W46260   2.284  14.933  10.786  0.1969  0.2645 -0.0237
30000W        W46261   6.179   5.798   0.571  0.2683  0.2043  0.1906
30001W        W46262   2.768  11.477   3.258  0.2933 -0.1728 -0.0508
30002W        W46263  12.056   3.727   4.904 -0.4798  0.0969 -0.0504
30003W        W46264   2.332  18.196   3.751 -0.1871  0.1642 -0.1375
30004W        W46265  18.453   8.351   3.169  0.2169 -0.3018 -0.0944
30005W        W46266   6.234   6.173   1.042 -0.2518  0.0217 -0.1577
30006W        W46267   3.555   3.001  10.849  0.2926 -0.1586  0.0693
30007W        W46268   6.613  18.499  14.715  0.1384  0.0607 -0.0620
30008W        W46269  19.157  18.342   4.675  0.1634  0.1925 -0.2054
30009W        W46270   4.222  18.999   3.692  0.1627 -0.0023  0.0581
30010W        W46271   7.264   7.742   1.676  0.3528 -0.0492  0.0906
30011W        W46272   8.389   8.178  10.730 -0.1213 -0.2525  0.1802
30012W        W46273   3.166  10.022   3.902 -0.0203  0.0052 -0.0315
30013W        W46274   5.951  10.762   4.233  0.1278  0.2396  0.0532
30014W        W46275  16.483  18.427   1.488  0.3701 -0.2542 -0.0424
30015W        W46276  12.044   7.599  12.821  0.0056  0.0024  0.1902
30016W        W46277  14.296  14.515  12.038  0.0929 -0.1792 -0.0494
30017W        W46278   6.680   7.539  10.185 -0.1719 -0.2876 -0.1336
30018W        W46279  18.558   2.951   1.647  0.2548 -0.0850 -0.1574
30019W        W46280   0.269   3.673  12.333  0.0304 -0.2045 -0.1282
30020W        W46281  11.535   8.788  13.922  0.2985  0.2212 -0.2167
30021W        W46282   9.207   1.190  11.160 -0.4078  0.2188  0.0090
30022W        W46283   8.812   7.868  11.398 -0.3171  0.4458 -0.2965
30023W        W46284   9.084   2.171  10.129  0.0585  0.2218 -0.1829
30024W        W46285   5.915  12.886   5.369  0.2103  0.0385 -0.1911
30025W        W46286   7.582   6.308  12.021 -0.0949 -0.0385  0.1046
30026W        W46287   0.573   8.426  12.993  0.0526  0.1598 -0.1897
30027W        W46288  12.062  15.189   3.734  0.0752 -0.1209  0.1123
30028W        W46289   9.606   7.685  12.258 -0.0763 -0.1540  0.1717
30029W        W46290  18.966   7.094   4.639  0.0141 -0.2341  0.0590
30030W        W46291  12.915  14.111   3.573  0.1372  0.0356 -0.3948
30031W        W46292  14.607   6.954  11.079 -0.0628  0.0679 -0.1018
30032W        W46293  14.685  15.786  14.787  0.0274  0.2575  0.1729
30033W        W46294   1.470   7.395  13.680  0.1913  0.0443 -0.2321
30034W        W46295   6.343  10.450  13.933  0.2206 -0.1105  0.0614
30035W        W46296   2.964  15.318  11.353  0.2518  0.1557 -0.1046
30036W        W46297   5.660   3.107   3.557  0.0253  0.2394 -0.3515
30037W        W46298  18.831  14.765   5.182 -0.4808 -0.1741 -0.0197
30038W        W46299   2.161   8.253  12.778  0.0743  0.0925 -0.3597
30039W        W46300  16.584   5.429   4.749 -0.1605 -0.2065 -0.2445
30040W        W46301  11.121  12.075  13.025 -0.3931  0.2397 -0.1453
30041W        W46302   8.402  13.181  14.599  0.2449  0.0140 -0.1366
30042W        W46303   4.343   0.225   4.342  0.1744 -0.2879 -0.0111
30043W        W46304  13.140   0.080  11.175  0.0297 -0.0338  0.0630
30044W        W46305   4.461  18.811   1.198  0.0109  0.1582 -0.3216
30045W        W46306  19.135  17.563  13.213 -0.0608 -0.1177  0.0509
30046W        W46307  11.907   5.640   1.001  0.0993 -0.0972  0.0483
30047W        W46308  17.073   2.929  11.300 -0.4198 -0.2043  0.0870
30048W        W46309  14.174  17.691   5.205  0.0793 -0.0387  0.0022
30049W        W46310   0.109  15.523  13.639  0.0496  0.0838 -0.0510
30050W        W46311  18.674  11.206   3.770  0.1327 -0.0464 -0.1363
30051W        W46312  16.648  11.187  11.703  0.1449  0.0288 -0.0867
30052W        W46313  17.549  13.623  14.569  0.0147 -0.0050 -0.2626
30053W        W46314  11.484   4.700   2.421  0.1429 -0.2006 -0.0328
30054W        W46315   6.090  16.490   5.087  0.3456 -0.1152  0.2525
30055W        W46316   3.151  14.496  13.548  0.0030 -0.0002  0.1114
30056W        W46317   3.145   0.644  14.076  0.1402  0.0193  0.1367
30057W        W46318   4.766  16.171   0.488  0.2702  0.0796 -0.2888
30058W        W46319  19.298  17.337  13.778 -0.2196 -0.0211  0.2522
30059W        W46320  16.192   3.556  11.917  0.3684 -0.0160  0.2946
30060W        W46321   8.800  14.488   2.797  0.0492  0.3760 -0.0060
30061W        W46322   5.384  15.826   4.796  0.0307 -0.1638  0.0528
30062W        W46323   7.652  17.573   5.968  0.1771  0.4793 -0.3038
30063W        W46324   3.297  12.133   3.095 -0.2281 -0.1051  0.0220
30064W        W46325  11.844  19.486   3.891  0.0325 -0.0992  0.1333
30065W        W46326   4.563  13.930  14.448 -0.1142 -0.1096  0.1840
30066W        W46327  19.416  18.968   3.620 -0.1833  0.1765  0.1260
30067W        W46328  15.078   9.613   1.922 -0.0960  0.0264  0.1265
30068W        W46329   6.168   8.683   1.410 -0.2414  0.2034 -0.2454
30069W        W46330   1.857  16.604  11.030  0.2291 -0.1469  0.0233
30070W        W46331  17.425  16.887  12.082 -0.0635 -0.1891  0.0087
30071W        W46332   2.653   3.355  14.674 -0.1282  0.0448 -0.0719
30072W        W46333   0.327   2.991   3.496 -0.0055 -0.2375 -0.2108
30073W        W46334   9.957  10.400  14.613 -0.3327 -0.1663  0.1041
30074W        W46335  16.605   0.974   0.848  0.3551 -0.1203  0.0155
30075W        W46336   9.866   6.502  12.307 -0.0662  0.0485  0.0438
30076W        W46337  12.721   2.430  11.895 -0.0508 -0.2963 -0.1621
30077W        W46338   5.926  11.364   4.361 -0.0607 -0.1262  0.1196
30078W        W46339  12.121  14.128   3.172 -0.1393 -0.0699 -0.1852
30079W        W46340  10.595  12.692   3.571 -0.1006  0.0485 -0.1183
30080W        W46341  14.869   5.699  11.358 -0.3390  0.1209 -0.1608
30081W        W46342   1.873   6.926   0.275  0.0176  0.3003  0.3295
30082W        W46343  14.022   0.449   1.540  0.1011 -0.1607  0.0762
30083W        W46344   1.599  17.171  12.711  0.0120  0.3801 -0.1598
30084W        W46345   9.908  18.776   1.949  0.2136  0.1794 -0.0775
30085W        W46346  15.403  15.657   5.261  0.1571  0.0918 -0.0447
30086W        W46347   3.207  15.929   4.872  0.1571 -0.1170 -0.1533
30087W        W46348  15.592  17.533  12.266 -0.0014 -0.0045  0.0443
30088W        W46349  18.740  10.756   1.715  0.2526  0.1167  0.0831
30089W        W46350  12.991  14.072   4.083  0.0661 -0.1914 -0.0846
30090W        W46351   8.006   8.146  12.704  0.0148 -0.2117 -0.0237
30091W        W46352   1.183  10.944  13.894  0.3171 -0.2152  0.1034
30092W        W46353   2.201   7.038   9.186  0.0441 -0.2384  0.1691
30093W        W46354   3.718   5.310   3.833  0.5126 -0.2071  0.4785
30094W        W46355   0.529   8.229   1.739  0.1603  0.2332 -0.2148
30095W        W46356   4.521   8.672  11.500 -0.0906 -0.0242 -0.0559
30096W        W46357   9.020   1.637  11.206 -0.2217 -0.1173 -0.3063
30097W        W46358  14.993   5.512  10.184  0.4447  0.0476 -0.0284
30098W        W46359  14.123  14.961  12.320 -0.2467 -0.3806 -0.2816
30099W        W46360   9.981  17.375   1.202  0.1900  0.0269  0.1746
30100W        W46361   0.090   4.071   4.720  0.1875  0.2600 -0.0895
30101W        W46362  12.177   6.339  10.434 -0.0774 -0.0868 -0.3108
30102W        W46363  19.357  19.110   4.638  0.2985  0.1232 -0.0127
30103W        W46364   5.562   0.015  13.060  0.0936 -0.2284 -0.0341
30104W        W46365  17.084   0.892   4.676  0.1352  0.0411  0.0249
30105W        W46366   6.492   9.724   4.326 -0.0048 -0.0350  0.2250
30106W        W46367   4.919  13.188  13.313 -0.0746 -0.0708 -0.1877
30107W        W46368  12.214  18.811   2.495  0.0464 -0.1801 -0.1945
30108W        W46369  13.922  13.330   4.318  0.0086 -0.2883 -0.1526
30109W        W46370  11.315  14.549   1.412 -0.0171  0.0740  0.0715
30110W        W46371   1.598   2.508   1.555  0.0140  0.1313  0.0165
30111W        W46372   6.117   9.612   1.503  0.0264  0.1286  0.2447
30112W        W46373   2.318  14.403   3.513 -0.2071  0.1994  0.1208
30113W        W46374   6.081  15.005   2.904 -0.1280 -0.0043 -0.0113
30114W        W46375   7.215  17.674   0.056 -0.1368 -0.1426  0.2574
30115W        W46376  17.481   1.806   2.581 -0.3511 -0.0968 -0.1195
30116W        W46377   3.308   9.101  13.424  0.2217 -0.3503 -0.0243
30117W        W46378   8.423   3.700  13.147 -0.0991  0.1625  0.0839
30118W        W46379   7.213   0.741   1.180 -0.1502  0.0487  0.3686
30119W        W46380  13.077  16.083   1.645  0.5010 -0.0043  0.4299
30120W        W46381  13.929   2.114  13.917  0.1880  0.0382  0.0702
30121W        W46382   0.644   9.428   1.506  0.2726 -0.0318  0.4076
30122W        W46383  12.190   6.585  11.928 -0.0142 -0.1018  0.0365
30123W        W46384   3.156  17.505  10.479  0.2478  0.0942  0.1008
30124W        W46385   7.519   8.116  13.016 -0.0689 -0.0007  0.1266
30125W        W46386   6.473   6.334  11.893  0.0806  0.2889  0.2942
30126W        W46387   9.158   2.839   3.713  0.0317 -0.0361  0.0591
30127W        W46388  15.632   9.606  13.712 -0.1202 -0.3333 -0.0030
30128W        W46389   0.278  13.902  11.372 -0.1471  0.3847 -0.1148
30129W        W46390  10.357  13.232   5.584  0.1028 -0.1590  0.0182
30130W        W46391   5.495  14.983   0.838  0.0594  0.0671 -0.1628
30131W        W46392  16.897   6.513  12.906  0.2146  0.0139  0.0855
30132W        W46393  16.069   3.428  10.121 -0.0229 -0.1647 -0.2402
30133W        W46394   0.512   5.897   1.814 -0.0537 -0.0275 -0.1861
30134W        W46395   9.452  10.292  11.111 -0.2791 -0.1785  0.1440
30135W        W46396  13.952   4.003   5.206  0.2030  0.1816 -0.2021
30136W        W46397  17.268   5.827  13.485  0.0854 -0.0433  0.3184
30137W        W46398   2.499  17.239  12.504 -0.3405 -0.2000  0.1170
30138W        W46399   2.466  11.660  13.233 -0.0411 -0.2653  0.2457
30139W        W46400  13.463   8.193   4.280  0.0293 -0.0303 -0.3052
30140W        W46401  18.103   0.472   0.451  0.1293  0.2140  0.3489
30141W        W46402   0.863  18.505   0.408 -0.1298  0.0699  0.0187
30142W        W46403   4.400  17.134   0.860  0.1339 -0.0097  0.3653
30143W        W46404   2.798   4.626   9.898 -0.2922  0.1518 -0.0342
30144W        W46405  17.259   3.601   2.485  0.2566 -0.0597  0.2135
30145W        W46406  13.404  14.675   3.277 -0.0357  0.2062 -0.1300
30146W        W46407  10.950   5.360  12.687  0.1712  0.2128 -0.0399
30147W        W46408   5.502  12.276  13.765  0.0698 -0.0533 -0.3319
30148W        W46409  12.146   1.905   3.531  0.1273  0.1027  0.2392
30149W        W46410   9.216  14.824  10.683  0.2376  0.1184 -0.0742
30150W        W46411   4.526   9.444   4.469  0.0340  0.0594  0.0375
30151W        W46412  16.577   1.512   0.456  0.0163  0.0473 -0.0029
30152W        W46413  19.447  18.725  10.421 -0.3048 -0.2722  0.2764
30153W        W46414  13.495  11.788  14.616 -0.2601 -0.3883  0.0147
30154W        W46415  10.328   8.023  10.618 -0.1819  0.3347  0.0353
30155W        W46416  16.477  14.966   0.856  0.0743  0.0869  0.0104
30156W        W46417  13.478  15.957   2.217 -0.1381  0.3639 -0.0731
30157W        W46418  14.170   7.104   4.314 -0.0394 -0.2183  0.1053
30158W        W46419   5.227  15.033  11.048  0.1812 -0.0539 -0.3559
30159W        W46420   5.524  14.182   3.070  0.3586  0.3336 -0.0849
30160W        W46421   5.967  17.977   3.900 -0.1136  0.2053  0.0481
30161W        W46422  14.759  10.629  13.201  0.2150  0.1607  0.1102
30162W        W46423   6.815  11.605  10.480 -0.0201  0.0694  0.0440
30163W        W46424  15.870   7.096   0.815  0.2400 -0.2731  0.1074
30164W        W46425   4.960   3.873  12.267  0.1753  0.1863 -0.2358
30165W        W46426  18.652  12.802  10.735 -0.2309 -0.2574  0.0897
30166W        W46427  13.496   9.003   0.680 -0.5764  0.0859 -0.0276
30167W        W46428  15.689   5.122   0.789 -0.3009  0.0602 -0.1072
30168W        W46429  15.737   0.772  11.172 -0.1461 -0.1094 -0.4159
30169W        W46430  18.503   4.683  14.224  0.1013  0.0734 -0.1049
30170W        W46431   5.678   3.802   9.695  0.2986 -0.1771 -0.1347
30171W        W46432  19.353  17.825  14.152 -0.1561  0.0543 -0.1651
30172W        W46433   8.929   1.380  12.174  0.0358  0.0048 -0.0881
30173W        W46434   3.643  13.086   0.030 -0.0056 -0.0294  0.1251
30174W        W46435   8.756   6.366   2.851  0.0908  0.3182 -0.0821
30175W        W46436  18.229   2.390   0.246 -0.2787 -0.0389 -0.0003
30176W        W46437  17.068   4.759   0.640  0.2201 -0.0730 -0.1845
30177W        W46438   6.005   2.564   1.026 -0.0690 -0.0131  0.0109
30178W        W46439  15.403   9.807  12.786 -0.0606 -0.1610 -0.1500
30179W        W46440   8.640  16.468   2.849  0.3544 -0.2476 -0.1805
30180W        W46441   4.404   9.993  11.067 -0.1137 -0.3133 -0.3356
30181W        W46442  15.938  18.871  11.956  0.2336 -0.2395 -0.1232
30182W        W46443  10.135  12.130   4.927  0.0119  0.0542  0.1788
30183W        W46444   7.773   2.604  10.452  0.0313  0.0221 -0.1615
30184W        W46445  11.148   3.107  12.259  0.3635  0.0773  0.4714
30185W        W46446   9.860  10.175  10.321  0.1937 -0.2396  0.2853
30186W        W46447   7.113   5.173   3.514 -0.0625 -0.2492 -0.0112
30187W        W46448   4.407   8.062   2.139  0.0985 -0.0033 -0.0766
30188W        W46449  18.992   3.943  13.646  0.0914  0.1428 -0.2459
30189W        W46450   1.840   9.783   0.714  0.2426  0.3299  0.2462
30190W        W46451  19.186   6.608   2.153  0.1518  0.3346  0.2057
30191W        W46452   1.496   3.919  12.774  0.1143  0.2973  0.1064
30192W        W46453   6.715   3.871   0.893 -0.0287  0.2979 -0.0175
30193W        W46454  17.645   1.822  14.464 -0.3259  0.1407  0.0673
30194W        W46455  16.982  16.309   0.263  0.0128  0.0449 -0.0661
30195W        W46456  12.918  16.791  10.997  0.1138 -0.0269  0.0239
30196W        W46457   7.697   4.513  13.732  0.1323  0.1066  0.1294
30197W        W46458   4.469   8.325  13.174  0.0793  0.1098 -0.3065
30198W        W46459  11.927  14.359  11.507 -0.1887 -0.0016  0.1158
30199W        W46460   8.604  13.145   0.429 -0.1766  0.0452  0.1634
30200W        W46461   0.254   7.674  12.664 -0.1484  0.0864 -0.0265
30201W        W46462  11.013  19.462   1.673  0.1038 -0.1049  0.0987
30202W        W46463  11.945  17.005  11.409 -0.2942 -0.0886 -0.1368
30203W        W46464   1.516   5.332   0.840  0.0215  0.2863 -0.3456
30204W        W46465  18.652  14.785  12.828  0.3201 -0.2353  0.0544
30205W        W46466   5.991  13.824   4.610 -0.2289 -0.0209 -0.0385
30206W        W46467   3.827  15.015   2.726 -0.1610  0.2421 -0.2031
30207W        W46468  18.403   7.043   5.566 -0.3119  0.0432  0.0585
30208W        W46469  17.201  15.532   2.630 -0.0380  0.2302  0.0484
30209W        W46470   1.017   7.423  12.858  0.0040  0.0921  0.0327
30210W        W46471   7.690  11.899  12.031 -0.3012  0.0435 -0.1755
30211W        W46472   6.573   9.615   1.852 -0.1262 -0.0454  0.1954
30212W        W46473  18.135   4.719   0.097 -0.0111 -0.1302 -0.1465
30213W        W46474  10.133  17.360   2.170 -0.0031  0.1090  0.1015
30214W        W46475   5.048   5.540  11.125  0.0837  0.1501  0.1119
30215W        W46476  10.617  17.482   1.349  0.2217 -0.0329 -0.2302
30216W        W46477   1.932   5.742   2.928 -0.3936  0.2349 -0.1660
30217W        W46478  16.994   8.891   0.106  0.0492  0.1354 -0.0977
30218W        W46479  16.257   5.727  12.770  0.1571  0.0778  0.1130
30219W        W46480  13.049  13.384  10.888  0.2326 -0.0334 -0.2275
30220W        W46481  18.936   3.113  14.609 -0.0401 -0.0520  0.1746
30221W        W46482   5.570   5.534  14.352  0.1235 -0.1808 -0.3587
30222W        W46483   0.013  18.027   3.688  0.1518  0.1357  0.5504
30223W        W46484  13.329  11.973  11.587  0.0495 -0.0881 -0.0110
30224W        W46485  19.157   0.530   9.808  0.2335  0.2588  0.0130
30225W        W46486   5.380   6.271   0.147  0.5507 -0.3077 -0.3488
30226W        W46487  13.625   1.826  14.158 -0.0339 -0.1787  0.2605
30227W        W46488   5.142   5.041   0.160 -0.2222  0.0263 -0.1454
30228W        W46489   0.853  13.633   0.563 -0.4696  0.0679  0.0261
30229W        W46490  12.093   3.184  13.019  0.2666  0.2927 -0.2425
30230W        W46491   3.938  11.084   4.230  0.2828  0.2136 -0.1489
30231W        W46492   1.038  13.278   0.232 -0.0338  0.1315  0.2591
30232W        W46493  17.435   4.368  11.381 -0.1238 -0.2474  0.3704
30233W        W46494   1.523   9.373  11.378 -0.1247  0.4377 -0.0094
30234W        W46495  17.587  14.388  10.834 -0.0068  0.2939  0.0400
30235W        W46496  15.840  14.186   4.930 -0.0869  0.0291 -0.0146
30236W        W46497  14.749  12.788   0.404  0.1934 -0.0048  0.0920
30237W        W46498   9.293   8.430  13.423  0.3602 -0.0137 -0.4889
30238W        W46499  11.321   7.737   4.577  0.0032  0.0066  0.1550
30239W        W46500   4.625   3.129  11.609  0.1627 -0.3260  0.3997
30240W        W46501  11.151   5.319  10.386  0.2233  0.1047 -0.0749
30241W        W46502   0.968  17.676   1.070  0.0582 -0.1993 -0.0410
30242W        W46503  18.427   3.463   1.132  0.1817 -0.2021  0.4296
30243W        W46504   0.804  13.997  12.871  0.2451  0.2310  0.2660
30244W        W46505  12.164  14.066   0.808  0.1438  0.1134  0.0638
30245W        W46506   9.567   5.738  13.332 -0.0119  0.0578  0.0336
30246W        W46507   5.401   8.513   4.249 -0.2278 -0.2371  0.1474
30247W        W46508   3.632   5.802   1.592  0.3485 -0.0105  0.0043
30248W        W46509   3.443  11.169  11.092  0.0124 -0.1229 -0.0662
30249W        W46510  13.734   8.549  11.592  0.0804 -0.3839 -0.1664
30250W        W46511  13.048  10.293  12.344 -0.0852  0.0461 -0.1528
30251W        W46512  17.349  12.432   4.250 -0.2592 -0.2956 -0.0554
30252W        W46513   5.776  14.666  13.080  0.1911  0.1680  0.3833
30253W        W46514  18.290  13.196  13.597 -0.0284 -0.0147 -0.2927
30254W        W46515   0.221   9.856  11.060 -0.1419  0.0442 -0.0379
30255W        W46516  12.458   7.943  10.870 -0.1214 -0.0744 -0.1839
30256W        W46517  17.724   4.738   3.695 -0.6389  0.2164 -0.0736
30257W        W46518  12.551   2.344  12.993 -0.0590  0.1577 -0.3171
30258W        W46519   2.464  14.256   4.485  0.3560  0.3550 -0.0242
30259W        W46520   2.331   1.158   0.707  0.0035 -0.0429  0.0057
30260W        W46521   9.208  11.296   4.462 -0.0813 -0.2451  0.0331
30261W        W46522  17.339  13.979   4.572  0.2353 -0.1312  0.1704
30262W        W46523  16.781   5.451  11.372 -0.1937 -0.0787 -0.0343
30263W        W46524   8.517   0.242   3.337 -0.0781  0.2087  0.0573
30264W        W46525   6.582   8.326   0.784  0.1863  0.4744  0.2064
30265W        W46526   7.002   3.449   3.005  0.0210  0.0904 -0.2192
30266W        W46527  13.377  12.615   0.568  0.0926  0.0045 -0.1909
30267W        W46528  18.934  13.808   0.013  0.0111 -0.1099  0.1750
30268W        W46529  14.894   7.038  11.730 -0.0902  0.1074  0.2634
30269W        W46530  10.187  18.446   1.146 -0.2775  0.3347 -0.1913
30270W        W46531   8.847  16.012   1.356  0.0903  0.1465  0.2958
30271W        W46532  14.340   5.981   9.825 -0.0372  0.0499 -0.2221
30272W        W46533  19.214   4.574   1.933  0.0267  0.0905  0.0750
30273W        W46534   1.277  18.950   1.605 -0.0165  0.0936  0.1150
30274W        W46535  10.544   3.328   0.187  0.2553  0.1874 -0.0257
30275W        W46536  13.205  12.488   4.966 -0.2453  0.2027  0.0273
30276W        W46537   5.122   5.887   2.084  0.1211 -0.0654  0.2912
30277W        W46538   1.882   0.011   3.971  0.1359 -0.1430 -0.0104
30278W        W46539  19.391  10.701   1.211  0.2315  0.0529 -0.0716
30279W        W46540   8.904   1.488   1.960  0.2714  0.2695 -0.3165
30280W        W46541   1.799   6.002  14.307  0.0582  0.2698  0.1600
30281W        W46542   3.172  12.719  11.957  0.4174  0.0752 -0.1130
30282W        W46543   6.301   1.572   2.560  0.1954  0.3092 -0.0306
30283W        W46544   2.124  16.422  12.959  0.1152 -0.0052 -0.0290
30284W        W46545   7.731  13.278  10.402 -0.2256  0.1200  0.0229
30285W        W46546   8.820   6.168   9.015 -0.1988  0.0446  0.4525
30286W        W46547   8.356  15.181   1.523  0.1298  0.0917  0.1135
30287W        W46548   0.310   5.828  10.260  0.0083  0.1758 -0.2906
30288W        W46549  11.963   5.618   2.722 -0.0011 -0.1567  0.1100
30289W        W46550   8.618   3.704   0.639 -0.1660 -0.1571 -0.1400
30290W        W46551  14.088   7.340  10.896 -0.1437 -0.0477 -0.3392
30291W        W46552  12.270   0.701  10.226 -0.0103 -0.1797 -0.0358
30292W        W46553   6.945   8.785   9.969  0.1039  0.2427  0.0182
30293W        W46554  17.346  11.525  12.898  0.3729 -0.1929  0.3546
30294W        W46555   3.492   4.736  14.775  0.1235 -0.1151 -0.1441
30295W        W46556   2.354  16.990   3.151  0.0063  0.3796  0.1353
30296W        W46557  14.466  12.585   0.728 -0.3044 -0.3766  0.1121
30297W        W46558   8.841  18.031   2.822 -0.0358 -0.3299 -0.0680
30298W        W46559  13.603   5.184  10.340  0.0856  0.0114 -0.2454
30299W        W46560  14.913  14.883   5.703 -0.0612  0.1786  0.0213
30300W        W46561   3.804  11.756  13.292 -0.1253 -0.0275 -0.2558
30301W        W46562   5.462  14.624  10.855  0.0768 -0.0836  0.0557
30302W        W46563   5.712  13.811   4.143  0.0135 -0.2940  0.2033
30303W        W46564  11.990   2.651  12.337 -0.6662  0.0034 -0.1299
30304W        W46565   1.451   6.824   0.829 -0.2475  0.3485 -0.1700
30305W        W46566  10.052   7.373   2.597 -0.0522 -0.2430  0.0161
30306W        W46567   0.308  11.835  14.529  0.0270 -0.0730 -0.3114
30307W        W46568   5.236   7.020  11.900 -0.1139 -0.3747 -0.1012
30308W        W46569   8.348  16.840   0.071 -0.1589  0.1925 -0.1896
30309W        W46570   5.003   8.213   5.132  0.2558  0.4811  0.4849
30310W        W46571   9.126  11.091  13.164 -0.0133  0.2823  0.1912
30311W        W46572  14.427   4.297  11.375  0.1049  0.0040 -0.0358
30312W        W46573   1.374  18.409   1.621 -0.1880  0.1776 -0.5089
30313W        W46574   3.154  18.280  11.993  0.0087  0.1931 -0.0765
30314W        W46575  11.551   4.913  10.287  0.0761 -0.0601  0.0978
30315W        W46576   0.889   9.109   1.191 -0.0854 -0.3518 -0.1436
30316W        W46577   7.022   3.029  11.473  0.0229 -0.0250 -0.1589
30317W        W46578  17.406  18.473   0.997  0.1785 -0.1344 -0.0401
30318W        W46579  12.355   2.866  14.686 -0.1104 -0.3123  0.0771
30319W        W46580  13.825  13.371  12.793 -0.1021  0.0577 -0.0076
30320W        W46581   1.380  18.146   4.024 -0.0194 -0.2912 -0.0549
30321W        W46582  13.253  14.422  14.083 -0.0807 -0.2582 -0.1314
30322W        W46583  12.334   8.522   0.717 -0.1269 -0.1871  0.2036
30323W        W46584   4.760   9.859  12.974  0.1471  0.0040  0.1162
30324W        W46585  18.351  18.180  12.783 -0.0370 -0.0627 -0.0259
30325W        W46586  14.406   9.651   4.706 -0.0764 -0.2846 -0.1219
30326W        W46587  11.441   5.097   9.759  0.1534 -0.1296 -0.1137
30327W        W46588  13.509   4.973   0.522 -0.1429 -0.1015  0.3202
30328W        W46589  18.094  14.102  14.465 -0.0186 -0.0169 -0.0221
30329W        W46590   1.543  13.071   2.696 -0.1555  0.0854  0.1002
30330W        W46591   7.257   0.459  14.527  0.1600 -0.2009  0.1057
30331W        W46592   7.929  16.774   2.472 -0.2451  0.2198  0.1766
30332W        W46593  12.996   1.949   1.597 -0.1921 -0.0385  0.0451
30333W        W46594   0.047  15.761   2.979 -0.1527  0.2384 -0.0599
30334W        W46595  17.171   8.579  10.170  0.0273  0.2165  0.1365
30335W        W46596   4.918   2.640  14.399  0.1871  0.0699 -0.0934
30336W        W46597  10.140  13.304  10.646  0.0082  0.0243  0.0821
30337W        W46598  10.438  18.637   2.052 -0.1037 -0.0832 -0.1624
30338W        W46599  13.952   3.297   2.902  0.3092 -0.0112  0.1142
30339W        W46600  10.496   7.393  14.129 -0.3770 -0.2537 -0.1032
30340W        W46601  11.220   4.775  10.784 -0.2875  0.2734  0.1034
30341W        W46602  17.974   6.099  14.111 -0.7370  0.0434 -0.0254
30342W        W46603   4.137  12.114   0.488  0.1932  0.0251  0.0226
30343W        W46604   0.235   2.474  14.348 -0.0264  0.2123  0.3759
30344W        W46605  15.413   6.395  11.790  0.2586  0.3415  0.1072
30345W        W46606   0.398   8.861  13.455 -0.0208  0.2145  0.0626
30346W        W46607   2.797  18.778   3.214  0.1331  0.1448 -0.0204
30347W        W46608  14.144  15.463  14.090 -0.0331 -0.1044 -0.2828
30348W        W46609  15.181   6.681   2.753 -0.1760 -0.0725  0.2383
30349W        W46610   6.504  14.436   4.200  0.4593  0.1145 -0.0699
30350W        W46611  16.795   6.997   4.319 -0.0053  0.0262  0.3088
30351W        W46612  13.844  17.926  10.750 -0.0875 -0.0762 -0.0867
30352W        W46613   4.617  16.225   0.995 -0.0749  0.1460  0.0281
30353W        W46614   8.809  12.544   4.213 -0.0920  0.3519 -0.0461
30354W        W46615   5.395  16.292   1.379 -0.0633 -0.2919 -0.3137
30355W        W46616   5.033   1.395   3.487 -0.1461  0.2608 -0.0596
30356W        W46617  11.020  11.894   0.998 -0.2888  0.3155 -0.3862
30357W        W46618  10.182  12.862   1.231  0.0694  0.2469 -0.0656
30358W        W46619  13.134   2.950   2.331 -0.2082  0.3463  0.1263
30359W        W46620  15.564  10.394  10.101 -0.0318 -0.0071  0.0806
30360W        W46621  14.414  10.532  12.458  0.0503 -0.2824  0.1169
30361W        W46622  15.935  18.490  14.434 -0.3482  0.0770  0.2221
30362W        W46623  12.851  15.601  12.667 -0.2217 -0.1327  0.2228
30363W        W46624   7.392  18.349   0.484 -0.1917 -0.3465  0.0874
30364W        W46625   7.422  19.478  13.283 -0.0619 -0.1685  0.0345
30365W        W46626  15.916  17.033  13.033 -0.1614 -0.1009 -0.1831
30366W        W46627  15.890  13.321   3.863  0.1688 -0.2291 -0.1188
30367W        W46628   7.263  15.012   0.430 -0.3569 -0.3094  0.0558
30368W        W46629  18.632  17.603  10.691 -0.0100 -0.2752 -0.0341
30369W        W46630   6.849  13.438   2.916 -0.2193 -0.1477  0.1419
30370W        W46631   4.266  10.163   1.643  0.2322  0.0746  0.1606
30371W        W46632   6.359   5.636   3.766 -0.1336 -0.2693 -0.2506
30372W        W46633   0.315  18.769   2.990  0.3710  0.0409  0.1313
30373W        W46634   2.142  15.421  12.846  0.4992 -0.0724  0.2899
30374W        W46635  10.618  16.819   2.932  0.3709  0.1121 -0.0312
30375W        W46636  17.854   2.810   4.386  0.1219 -0.0519  0.1889
30376W        W46637   5.013   0.691   4.032  0.2867  0.3788 -0.1863
30377W        W46638  16.353   8.050   0.276  0.0641  0.4054  0.0795
30378W        W46639   1.263  13.625   1.797  0.1544 -0.0803  0.1035
30379W        W46640  15.610   6.871   2.434 -0.3105  0.0432  0.0571
30380W        W46641  10.826  13.562   0.821 -0.1469  0.0505 -0.1822
30381W        W46642   9.073  17.059   0.531  0.2154 -0.1135  0.1357
30382W        W46643   8.003   5.739   0.535 -0.0073  0.0716  0.1295
30383W        W46644   0.106   6.338   2.903  0.3259  0.3064  0.0349
30384W        W46645   4.190  18.203  11.552  0.1762  0.0366 -0.2095
30385W        W46646  10.301  14.933  12.124 -0.1073  0.0668  0.1796
30386W        W46647  18.448   0.076  14.254  0.2291 -0.2882 -0.0380
30387W        W46648   5.562   2.142  13.527 -0.0192  0.1055  0.1089
30388W        W46649   5.596  17.904  11.666 -0.0598 -0.0595 -0.0173
30389W        W46650   1.280  11.901   4.203 -0.1472 -0.0431  0.3813
30390W        W46651  17.078   8.864   3.699  0.0745 -0.1967 -0.5762
30391W        W46652   8.248   5.559   2.148 -0.2103  0.0563  0.1128
30392W        W46653   8.056  19.217   0.281 -0.1015  0.1586 -0.0342
30393W        W46654  15.101   1.589   1.734 -0.1185  0.6785  0.2224
30394W        W46655   2.523  13.701   2.812  0.1602 -0.4021 -0.2063
30395W        W46656  18.077   0.337  10.914 -0.0603 -0.0861  0.0501
30396W        W46657  18.620  12.013   5.580 -0.1055 -0.0668  0.1155
30397W        W46658   9.278  19.429   5.643 -0.1187 -0.1559  0.1998
30398W        W46659   2.778   2.302   2.097  0.0980 -0.1735  0.1450
30399W        W46660   7.070  12.449   2.148  0.2709  0.3135 -0.1109
30400W        W46661  16.102  10.342  11.873  0.2240 -0.2599 -0.1542
30401W        W46662  17.980  15.195   3.135 -0.1475 -0.2261 -0.1679
30402W        W46663   0.104   5.615  14.096  0.1061  0.0338  0.0424
30403W        W46664  11.934  16.917  13.852 -0.1710  0.0221 -0.1673
30404W        W46665  13.004   7.492  11.718  0.1658  0.3087  0.1301
30405W        W46666   7.646  15.866   4.736  0.0274  0.4254 -0.1477
30406W        W46667  11.156  11.276   4.434  0.1935 -0.2492 -0.3000
30407W        W46668  12.350   6.209  11.232  0.2779  0.2800  0.0524
30408W        W46669  15.436   2.590  10.574 -0.0078 -0.1919  0.0641
30409W        W46670  13.393   2.536   2.560 -0.0773 -0.2781  0.0459
30410W        W46671   7.794  14.300  12.089  0.2746  0.0643 -0.0439
30411W        W46672  10.698  12.560  11.668 -0.1508 -0.0283  0.2151
30412W        W46673  13.283  18.989  10.965 -0.1257  0.0759  0.0188
30413W        W46674  10.540  16.399  10.388  0.0963 -0.1122  0.2189
30414W        W46675  12.418  17.037   1.384 -0.1481 -0.0085  0.5333
30415W        W46676   9.577   6.265  14.568  0.2776  0.0479 -0.1494
30416W        W46677  13.047   5.517  14.276  0.1197 -0.0756  0.1154
30417W        W46678  19.082   8.980   4.987  0.2873 -0.0103 -0.0536
30418W        W46679  14.314  10.653  10.337 -0.0907  0.1125  0.0932
30419W        W46680   3.371   4.654   0.774  0.2610 -0.1485  0.1692
30420W        W46681   3.045   7.608  12.697 -0.0700 -0.2085 -0.1094
30421W        W46682  13.328  15.707  13.770 -0.3570 -0.3121  0.1901
30422W        W46683  12.364   4.744   2.888 -0.0014  0.1804  0.0069
30423W        W46684  17.305  19.047  11.979  0.1427  0.3938  0.2939
30424W        W46685   4.950  18.994  14.779  0.2912 -0.1656 -0.4561
30425W        W46686  18.774  18.253  12.600 -0.0092 -0.0388 -0.1344
30426W        W46687  10.904   3.761  14.404 -0.2633 -0.0311  0.1386
30427W        W46688  10.481   8.608   1.700  0.2297  0.0979  0.1645
30428W        W46689  15.858   0.913   0.026  0.1783  0.0045  0.0987
30429W        W46690  13.180  18.072   1.767  0.1310  0.4662  0.2968
30430W        W46691   2.188   9.827   0.334 -0.1168  0.1742 -0.0232
30431W        W46692   5.504   9.528   4.063  0.0300  0.2041  0.2564
30432W        W46693   5.868  17.423   3.833 -0.2142  0.2402 -0.0387
30433W        W46694   7.962  18.997   4.042 -0.1056 -0.1013 -0.2754
30434W        W46695  12.623  10.797  14.433 -0.0122 -0.1923  0.2803
30435W        W46696   2.620   0.220  10.126 -0.4616  0.0238 -0.1448
30436W        W46697  12.956   1.305  12.391 -0.2286 -0.1366  0.0683
30437W        W46698  18.071   3.097  14.283  0.1378 -0.1582 -0.2179
30438W        W46699  11.034   6.688   4.254  0.2305  0.0042 -0.0618
30439W        W46700  16.765  17.757  12.832  0.3221 -0.0840  0.2851
30440W        W46701   5.877   2.198   3.289 -0.1602  0.1911  0.1479
30441W        W46702   3.935  15.762   2.264  0.1192  0.0157  0.1864
30442W        W46703  11.172   5.065   1.075 -0.2091 -0.1889 -0.1517
30443W        W46704   3.616   0.404   2.092  0.3192  0.2195 -0.2802
30444W        W46705   5.014  15.413  14.001  0.0318 -0.3927  0.0333
30445W        W46706   5.092   8.871   3.231  0.1255 -0.2458 -0.0881
30446W        W46707   1.301  11.406   4.306 -0.0763  0.0365 -0.0982
30447W        W46708  16.459  17.911   1.845 -0.2857 -0.0521  0.0671
30448W        W46709   0.428   2.084   0.318 -0.0995  0.1211 -0.1210
30449W        W46710  10.164   5.263  14.416 -0.0739 -0.3373 -0.1218
30450W        W46711  10.627   3.088  12.215 -0.1643  0.2981  0.1368
30451W        W46712   8.345  10.464  13.337 -0.0816 -0.2009  0.3586
30452W        W46713   4.449   1.418  11.354  0.3089  0.1298 -0.3739
30453W        W46714   7.494   5.670   1.572 -0.1176  0.2412  0.1135
30454W        W46715   8.701  14.007   0.950  0.0247  0.0411 -0.1747
30455W        W46716  14.390  10.231  13.312  0.0654  0.1735  0.3018
30456W        W46717   3.963   6.185   1.327 -0.3019 -0.1947  0.2095
30457W        W46718  17.367   5.356   3.915 -0.0725  0.0952  0.1445
30458W        W46719  13.735  11.937   1.701 -0.1069 -0.0737 -0.0901
30459W        W46720   5.509   3.525  10.506  0.0897 -0.0471  0.0752
30460W        W46721  16.855  19.201   1.187 -0.1923  0.1304 -0.2053
30461W        W46722   1.581   5.783  13.529  0.3369  0.0070  0.1021
30462W        W46723   0.259  13.988   2.944  0.0715  0.2033 -0.0569
30463W        W46724  12.977  13.820  13.137  0.2475  0.0408  0.0147
30464W        W46725  13.871  11.244  14.052  0.0307 -0.0784 -0.0329
30465W        W46726   1.086  10.645  14.512 -0.0392  0.2151  0.1059
30466W        W46727   4.444  13.163  13.128  0.1009 -0.2689  0.0453
30467W        W46728  15.637  14.493  10.702  0.0314  0.1558  0.0595
30468W        W46729   8.179   9.971  14.737  0.2796  0.0832 -0.0605
30469W        W46730  10.011   7.632   5.072 -0.0915 -0.1354  0.1119
30470W        W46731  11.724   1.943  13.360  0.0292  0.0079  0.1564
30471W        W46732   5.857   2.510  12.508  0.1770  0.3096  0.1199
30472W        W46733   5.233  18.004  12.790 -0.0208  0.3603  0.1054
30473W        W46734   2.978   7.086   2.236 -0.2062  0.2786  0.1378
30474W        W46735  18.226   5.282   4.087 -0.0870  0.0013  0.0018
30475W        W46736   3.267   8.832   0.430 -0.3278 -0.0774  0.1589
30476W        W46737  17.776   5.644   3.899  0.1941  0.3537  0.1587
30477W        W46738   4.627   5.806  10.128 -0.3122 -0.1274 -0.3317
30478W        W46739  13.857  13.649   3.723  0.1360  0.3430 -0.0313
30479W        W46740   7.934   3.727  13.197 -0.0077  0.1889  0.1995
30480W        W46741  10.889   6.756   9.478  0.2770 -0.1792  0.1322
30481W        W46742  18.747  10.648   3.375 -0.0345 -0.2503  0.0140
30482W        W46743   8.248   9.637   4.331 -0.3244  0.1154 -0.0251
30483W        W46744   9.089  17.429   0.985  0.0206 -0.0925  0.1583
30484W        W46745  18.198  12.631  14.528 -0.5448  0.2596  0.0893
30485W        W46746  11.457  17.976  12.546  0.0784 -0.2248 -0.1193
30486W        W46747   9.338  11.197  13.789  0.2544 -0.1089 -0.1321
30487W        W46748  10.593   5.534  13.127 -0.2404 -0.2441 -0.3215
30488W        W46749   3.934  11.631  12.111  0.1467  0.1338  0.3160
30489W        W46750   3.782  10.049  13.221 -0.1222  0.5013 -0.1905
30490W        W46751   1.218   7.129  13.310  0.2471  0.0722 -0.0779
30491W        W46752  13.930   1.806   0.990  0.3749 -0.2509 -0.0743
30492W        W46753   4.435   2.954   9.745 -0.0661  0.2220  0.0753
30493W        W46754  11.567  18.489  10.334 -0.0142 -0.0176  0.0749
30494W        W46755   4.394  13.395   6.074 -0.1257 -0.4930 -0.0758
30495W        W46756  17.124   2.091  14.205  0.0784  0.0970 -0.0888
30496W        W46757  18.678  16.431   3.003 -0.2511 -0.1380 -0.5921
30497W        W46758   2.006   4.404  10.502  0.2592  0.1746 -0.0880
30498W        W46759  14.294  15.577   0.721  0.0075  0.1652 -0.1570
30499W        W46760  11.909  17.621   1.218 -0.3120 -0.0605 -0.2637
30500W        W46761  15.881   0.501   1.011 -0.1726 -0.0926  0.0267
30501W        W46762  15.387  18.111   4.919  0.3652  0.0427 -0.0070
30502W        W46763  17.182   7.985   2.686 -0.0938 -0.1286 -0.1244
30503W        W46764   5.189   2.494  13.260  0.1682  0.1659 -0.4082
30504W        W46765  12.905   4.523  13.917  0.3270  0.0992  0.5866
30505W        W46766   2.813  15.603   9.574 -0.1037 -0.1295 -0.1456
30506W        W46767   3.416   2.087   4.268  0.0763 -0.1148 -0.2166
30507W        W46768  18.088   3.584   3.815  0.0279  0.0267 -0.5975
30508W        W46769  13.552  18.791  11.769 -0.0198  0.0394  0.0720
30509W        W46770   8.139   0.637  14.650  0.0572 -0.0170  0.1360
30510W        W46771   3.197  13.231  10.651  0.1141 -0.1601  0.1929
30511W        W46772  18.906  13.297  13.604  0.1730 -0.1218  0.0716
30512W        W46773  16.946  17.790   1.927  0.0461  0.0470 -0.0378
30513W        W46774  17.538   8.137  10.196 -0.3077  0.0813 -0.1335
30514W        W46775   8.527  18.965  12.355  0.1039  0.0913  0.3582
30515W        W46776   1.223  19.389  13.620  0.2082  0.0122 -0.1762
30516W        W46777   0.688   1.375   2.329 -0.3132  0.1522  0.1165
30517W        W46778  11.497  19.028  14.183  0.0873 -0.1274  0.0619
30518W        W46779   0.049   2.919   0.286 -0.1778 -0.0354 -0.1748
30519W        W46780   0.565   4.072   4.396  0.1844 -0.0109 -0.1975
30520W        W46781   1.683  14.936  12.350 -0.1857 -0.2543  0.1128
30521W        W46782   8.192   2.950  12.162  0.2392 -0.1319  0.2397
30522W        W46783  11.219  14.813   4.477  0.2040  0.0740 -0.3442
30523W        W46784  17.965   2.585  14.623  0.0351  0.1903  0.1509
30524W        W46785  12.612   5.657   1.755 -0.2840 -0.3175 -0.2651
30525W        W46786   1.541  10.170   0.896  0.1363  0.2545 -0.0711
30526W        W46787   1.506   7.693   0.752 -0.2733  0.1211 -0.1370
30527W        W46788   3.764   4.795  10.209  0.2856  0.3815  0.2284
30528W        W46789  16.032  16.672   0.608 -0.1056 -0.0028  0.0998
30529W        W46790   6.081   1.879  10.438 -0.2476  0.0013  0.3519
30530W        W46791  13.314  15.255   0.744  0.2900  0.0079 -0.4216
30531W        W46792  18.974   7.226   0.586  0.0918  0.4090 -0.1437
30532W        W46793   0.855  10.205  12.615 -0.0717 -0.1129 -0.1797
30533W        W46794   1.327  15.766  14.157 -0.2131 -0.3379  0.0649
30534W        W46795  16.140   7.597  14.353  0.0571 -0.2047  0.0536
30535W        W46796  11.467  15.479   2.394 -0.0277  0.2171  0.1336
30536W        W46797   3.077  11.571  11.299  0.0299 -0.1882 -0.1949
30537W        W46798  16.143  11.623   3.935 -0.0522  0.2508  0.1597
30538W        W46799  17.591  16.437  11.975 -0.2864  0.2073 -0.6072
30539W        W46800   0.953  17.708  10.622  0.1253  0.3261 -0.1382
30540W        W46801   1.370   2.733   4.608  0.0986 -0.0134  0.0147
30541W        W46802   5.451  18.990  12.628  0.1949  0.0588 -0.3028
30542W        W46803  17.558  19.322  13.202  0.1781 -0.1329  0.1073
30543W        W46804   0.595   3.302   0.552  0.0675 -0.2392 -0.1295
30544W        W46805  12.292   7.811   4.673  0.2175  0.0954 -0.0685
30545W        W46806  10.445  10.331   3.368 -0.0332  0.3045 -0.1127
30546W        W46807   6.098   5.111   1.345  0.3155  0.3258  0.1262
30547W        W46808  11.011  11.270   0.846  0.3046  0.2229  0.0237
30548W        W46809  16.894  18.415   4.729  0.2723 -0.0913 -0.0650
30549W        W46810  15.078  16.002  10.876  0.0798 -0.2514 -0.4761
30550W        W46811   8.377   8.819   1.020 -0.0916 -0.0944  0.4781
30551W        W46812   7.327   4.684   2.564  0.1608  0.0448 -0.0677
30552W        W46813   6.937   5.885   9.478  0.1688  0.3266 -0.0137
30553W        W46814  10.657  16.559   4.793  0.0874  0.0741  0.0560
30554W        W46815   9.589  14.372   3.829 -0.1455 -0.1837  0.1776
30555W        W46816  11.144  12.746   3.118  0.0535 -0.5358 -0.1280
30556W        W46817  11.696  10.999   2.230  0.1537 -0.0933  0.2711
30557W        W46818  12.498   6.736   1.258 -0.1142  0.0595 -0.0063
30558W        W46819  15.591   0.513   5.402 -0.0102 -0.0145 -0.2181
30559W        W46820   7.201  15.447   1.588  0.0737 -0.1089  0.1462
30560W        W46821  13.005   3.715  12.911 -0.0468  0.0495  0.0511
30561W        W46822  18.733  18.997  10.575 -0.2642  0.6284  0.2070
30562W        W46823   2.730   4.824  10.419  0.0032 -0.1052  0.1870
30563W        W46824   6.760   8.504  10.315  0.0300  0.0136  0.3125
30564W        W46825   8.833  11.721  12.582  0.1312 -0.0805  0.2775
30565W        W46826  18.105  18.066   1.699 -0.0072  0.3307 -0.0787
30566W        W46827  19.141  10.913   4.498 -0.2077 -0.2137 -0.0545
30567W        W46828  15.841  17.914   1.590 -0.1815 -0.4411 -0.0861
30568W        W46829   9.992   0.821   4.255  0.2319 -0.0812 -0.4103
30569W        W46830   5.617  13.111  12.297 -0.3743  0.1194  0.2212
30570W        W46831   5.960   7.890   2.275 -0.0263 -0.0039 -0.0126
30571W        W46832   3.456  13.203  13.153  0.1924 -0.1837  0.2276
30572W        W46833   1.018   5.554   1.304  0.0993 -0.1859  0.2185
30573W        W46834   8.977   8.853  13.307  0.3130  0.4809  0.3009
30574W        W46835   6.708  18.069  11.247 -0.4622 -0.3145 -0.0314
30575W        W46836   6.053  17.653  11.395  0.0462  0.2738  0.2525
30576W        W46837   4.956  11.783   0.672 -0.1080  0.2580 -0.2229
30577W        W46838  13.480   3.903  12.953 -0.0890  0.1494  0.1272
30578W        W46839  13.935  14.390  14.720  0.1104  0.0186  0.0166
30579W        W46840  12.965  11.698  11.399  0.2137  0.5847 -0.1761
30580W        W46841   5.486  19.129  13.965  0.2584 -0.2658  0.1322
30581W        W46842  10.231   6.739  11.359  0.0821  0.2950 -0.1970
30582W        W46843  16.884  14.685   0.917  0.1061 -0.0557 -0.0880
30583W        W46844  10.066  13.702  10.926 -0.3778 -0.2618 -0.0739
30584W        W46845   8.686  17.429  10.874  0.3262  0.1422 -0.0085
30585W        W46846  12.663  15.936   1.908 -0.0975 -0.2064  0.1490
30586W        W46847   2.589  11.183  11.389  0.1139 -0.1191  0.1122
30587W        W46848  13.789   3.261  11.781 -0.3372 -0.2333 -0.1057
30588W        W46849   6.372  12.487  14.802 -0.0004 -0.0173 -0.0597
30589W        W46850   9.226  17.617   4.655  0.0265  0.1506  0.0853
30590W        W46851  10.008   8.724  11.217 -0.3169 -0.1223 -0.1537
30591W        W46852  13.037  12.108  13.324  0.1273 -0.2036  0.2947
30592W        W46853   0.565   2.224   9.653 -0.1464  0.0403  0.0410
30593W        W46854   7.077  14.412  13.941 -0.4468 -0.1717 -0.0268
30594W        W46855  11.830  11.133  10.293  0.1717  0.0920  0.0778
30595W        W46856   1.785  12.569   0.778 -0.1532  0.0490  0.0134
30596W        W46857   4.918   2.797  10.027  0.0590  0.2618 -0.4345
30597W        W46858   6.120   7.010   9.701  0.1386 -0.0904  0.4510
30598W        W46859  18.416   1.995   5.067  0.0632  0.2738 -0.2632
30599W        W46860   8.744   9.211   1.035  0.1711  0.0246  0.0274
30600W        W46861  10.348  16.373  12.227 -0.1188  0.3287 -0.3310
30601W        W46862   3.557  12.476  11.597  0.0300 -0.1375 -0.0534
30602W        W46863   7.954   7.114   1.843 -0.1289 -0.1277 -0.1897
30603W        W46864  15.219  14.464  12.696  0.2284 -0.1300  0.1539
30604W        W46865   0.100   1.378  13.515  0.1696  0.2068 -0.0833
30605W        W46866   6.350  12.126  12.718  0.0465  0.2062  0.2497
30606W        W46867   8.058   9.675  14.369  0.1755 -0.2921  0.2619
30607W        W46868   5.115   7.608  10.660  0.0791 -0.1144 -0.2743
30608W        W46869   1.303   7.789   9.927  0.3605 -0.3620 -0.3080
30609W        W46870   3.359  13.060   2.231  0.1149  0.0328  0.0818
30610W        W46871   0.337   8.491   2.678  0.0921 -0.0227  0.1164
30611W        W46872  14.283   2.869   2.683  0.1941 -0.0178  0.3213
30612W        W46873   1.412   8.176   4.901  0.0517 -0.1434  0.0765
30613W        W46874   1.925  17.147  11.911  0.1478 -0.2676 -0.4826
30614W        W46875   5.604   3.417  13.637 -0.1174  0.2374  0.2966
30615W        W46876   6.412  17.566  13.103  0.0541 -0.2014 -0.0741
30616W        W46877  11.507  11.480   4.795 -0.1690  0.1599  0.0214
30617W        W46878  13.214   2.808  14.057 -0.1293  0.1601 -0.1301
30618W        W46879  11.651   6.123   3.662  0.0781 -0.0815  0.1718
30619W        W46880  13.176   9.993   1.692  0.1638 -0.1434 -0.0045
30620W        W46881   5.738   9.765   1.173 -0.2431 -0.1217 -0.2369
30621W        W46882   2.892   7.804   3.878  0.0879 -0.0887 -0.1419
30622W        W46883  12.270   1.667   4.292 -0.1792  0.1493 -0.1045
30623W        W46884  17.211   7.317  13.620  0.1552  0.1038  0.1049
30624W        W46885  13.200  16.468   0.198  0.1658  0.1973 -0.1611
30625W        W46886  10.837  18.676   0.123 -0.0951 -0.2189 -0.0034
30626W        W46887   8.647   7.639   1.902 -0.2167  0.2268 -0.3160
30627W        W46888   1.987   1.337   2.696 -0.2022  0.0898 -0.0078
30628W        W46889  18.946   6.381  13.452  0.3881  0.0095 -0.0391
30629W        W46890   6.927   9.756   4.545 -0.1199 -0.0318  0.1458
30630W        W46891  14.129   6.386  13.266  0.3476 -0.0120  0.3126
30631W        W46892   4.348   4.802  11.612  0.2376 -0.1132 -0.0148
30632W        W46893   3.926  19.290  13.644 -0.0435 -0.2331  0.0713
30633W        W46894  12.687   7.963  13.856 -0.1029 -0.1145 -0.2413
30634W        W46895   9.996   3.350  14.764  0.0210 -0.0554 -0.2701
30635W        W46896   1.356  15.683  10.952 -0.0427 -0.1281  0.0940
30636W        W46897   8.766   6.789  10.781  0.1569 -0.1441 -0.1310
30637W        W46898   6.919   8.106   9.321 -0.4296 -0.3544  0.2832
30638W        W46899   7.683  15.738   0.513  0.1192 -0.1166  0.1242
30639W        W46900   8.551   7.361  11.471  0.1225  0.3610 -0.0877
30640W        W46901   2.293   5.773   2.570  0.3036 -0.1576 -0.4363
30641W        W46902   9.314   4.891  14.312 -0.1926 -0.0690 -0.3007
30642W        W46903  14.648   0.170   2.607  0.0960 -0.0330  0.3144
30643W        W46904   7.897  12.082   0.918  0.0191  0.3238 -0.0441
30644W        W46905   1.099  17.573  11.176  0.0489 -0.1959 -0.0673
30645W        W46906   5.656  10.345   5.411  0.2176  0.2785 -0.0656
30646W        W46907   5.056  10.951   2.888 -0.1914 -0.1608  0.0296
30647W        W46908  10.934   5.097  11.124  0.1100 -0.1298  0.1642
30648W        W46909   8.223  17.835  13.738  0.0147 -0.2256  0.0076
30649W        W46910  16.868  19.245  10.698 -0.3491 -0.3081  0.1456
30650W        W46911   0.677  16.858   0.089 -0.2012  0.1785 -0.2600
30651W        W46912  12.261   4.690   2.348 -0.1227 -0.0187 -0.2237
30652W        W46913  11.118  10.348  11.616 -0.1536  0.1069 -0.1147
30653W        W46914  11.208  12.492  13.836  0.2597  0.0726  0.5478
30654W        W46915   0.693  11.356   1.647 -0.0194  0.0699  0.3050
30655W        W46916  16.935  10.428   4.234 -0.0912 -0.2450 -0.1595
30656W        W46917   4.162  14.304   1.912  0.0232 -0.3731  0.0671
30657W        W46918   7.176  17.774  13.802  0.1233  0.2275  0.1502
30658W        W46919   5.949   2.878  13.790  0.0096  0.1828  0.1795
30659W        W46920  16.249  13.232  10.621  0.2617  0.2085  0.0950
30660W        W46921  13.296   0.106   2.933  0.4424  0.2100 -0.2656
30661W        W46922   6.502   3.733   9.632  0.4363 -0.1623 -0.0727
30662W        W46923   0.302  19.299   2.233 -0.0737  0.0120  0.2472
30663W        W46924   8.214   1.479  13.050 -0.2298  0.3074 -0.1332
30664W        W46925   1.816  16.144   0.714 -0.1947 -0.1380  0.1128
30665W        W46926   6.076   0.663   3.628  0.0364 -0.3317 -0.2283
30666W        W46927   7.133   0.428   3.885 -0.3180 -0.2233 -0.1691
30667W        W46928  14.410   3.589  14.434 -0.1783  0.0560  0.0918
30668W        W46929   1.742  16.427  14.416  0.0918  0.0948  0.1428
30669W        W46930  17.917   1.743   4.004 -0.0873  0.1096 -0.6587
30670W        W46931  10.239  16.210  13.744 -0.3148 -0.0514 -0.0221
30671W        W46932  16.309  15.148   4.089  0.0456 -0.0339  0.0323
30672W        W46933  11.852  17.789  13.747  0.0011 -0.3285 -0.2886
30673W        W46934  15.366   9.663  11.685 -0.2558 -0.1821 -0.1979
30674W        W46935  12.116  13.421   5.878 -0.2432  0.1096  0.0921
30675W        W46936  14.215   6.743   3.627 -0.0714  0.1199  0.0439
30676W        W46937   6.860   2.689  11.866  0.1724 -0.1701  0.2010
30677W        W46938  19.349   7.327  11.111  0.1037 -0.1954  0.0189
30678W        W46939  15.656   9.089   2.579  0.3534 -0.1469  0.1194
30679W        W46940  13.572   5.387   2.148 -0.1340  0.1886  0.2127
30680W        W46941  12.304   2.906   1.819  0.0070 -0.1054  0.2568
30681W        W46942   7.502  15.745   9.131 -0.0913 -0.0071  0.0322
30682W        W46943  14.582  15.901   4.177 -0.0841 -0.0180  0.0709
30683W        W46944   6.289   4.662  11.978  0.2293 -0.4130 -0.0994
30684W        W46945   4.300   0.697  12.219 -0.0825 -0.0178  0.2985
30685W        W46946  15.647   3.283   2.749  0.1308 -0.1267  0.1491
30686W        W46947  14.649   3.297   3.597  0.0013  0.0467 -0.1685
30687W        W46948  15.283  14.746   5.201  0.0727 -0.3893  0.2094
30688W        W46949   0.358   3.761  13.490 -0.3933  0.2400  0.1937
30689W        W46950  14.474  10.180  10.069  0.0149 -0.1344 -0.0392
30690W        W46951  18.649   3.119   0.246 -0.0972  0.0227 -0.1973
30691W        W46952   3.521  11.070   5.646  0.0568 -0.0344 -0.3957
30692W        W46953  14.034  15.017  13.770 -0.0447  0.2370 -0.1316
30693W        W46954   3.887  14.502   5.454 -0.2563 -0.2017 -0.0834
30694W        W46955  12.447   7.477   2.829 -0.2182  0.0450 -0.1077
30695W        W46956   8.491  12.828  14.042  0.0281 -0.1822 -0.1593
30696W        W46957  13.509  10.885   0.191  0.2715 -0.0551  0.3366
30697W        W46958  16.995  11.867  10.485  0.3214 -0.0203  0.2043
30698W        W46959  17.595  19.317   3.597 -0.2118 -0.0583 -0.0178
30699W        W46960  11.666   9.920  12.328 -0.0431  0.1978 -0.3655
30700W        W46961   8.094   7.949   3.930 -0.1445 -0.1492 -0.0372
30701W        W46962  15.980  13.283   2.208  0.1001  0.0445 -0.0247
30702W        W46963   7.992  18.960   5.099 -0.0979 -0.2639  0.0812
30703W        W46964   5.348  11.510   2.808  0.0106  0.0527  0.3095
30704W        W46965  17.654   1.223  12.050 -0.0785  0.4088 -0.0799
30705W        W46966  17.182   5.378  13.760  0.0419 -0.0700 -0.1332
30706W        W46967  13.931  19.391   0.316 -0.0515  0.1519  0.0497
30707W        W46968  17.460   7.580   2.774  0.2756  0.2718 -0.1494
30708W        W46969  14.405  10.676  14.540  0.2144  0.0010 -0.1813
30709W        W46970  10.766  10.661  13.797  0.2531  0.1073  0.0139
30710W        W46971  13.421   4.260   4.333 -0.0111  0.2513  0.1312
30711W        W46972  14.172  18.678  11.984 -0.3043 -0.2028  0.1580
30712W        W46973  14.637  10.048  11.347 -0.3495  0.0883  0.1094
30713W        W46974  10.911  17.983  10.758 -0.1830 -0.0481  0.2698
30714W        W46975  18.148   3.172   4.183 -0.3391  0.0803 -0.0019
30715W        W46976   6.525   4.222   2.732 -0.0083 -0.0859  0.4273
30716W        W46977   9.842   7.394  12.676 -0.0396 -0.0833 -0.1622
30717W        W46978   3.768  12.765   4.256 -0.0791  0.0836  0.2049
30718W        W46979  13.038  16.459   3.383  0.0528 -0.2242 -0.1168
30719W        W46980  16.142   0.014  14.608 -0.0883  0.0085  0.1327
30720W        W46981  12.492   0.704  11.446  0.4185 -0.2648  0.0669
30721W        W46982  15.285  13.642   4.233  0.0932 -0.0929  0.3298
30722W        W46983   8.108   5.419  10.523 -0.2544  0.1462 -0.1950
30723W        W46984  11.627   4.912  14.102 -0.2539  0.0598  0.2250
30724W        W46985   3.950   4.916   9.359 -0.1689 -0.0699 -0.1117
30725W        W46986   1.636   3.681   1.575  0.0048  0.0256 -0.3230
30726W        W46987   8.523   0.755  11.690 -0.1077 -0.1413  0.0346
30727W        W46988  10.881   3.370   3.051 -0.0229 -0.3795  0.1564
30728W        W46989   9.042  10.335  11.515 -0.2101 -0.2876 -0.2912
30729W        W46990   8.787   5.806   0.344  0.1280  0.3045  0.1542
30730W        W46991  16.054  12.875   1.248 -0.0019 -0.0932 -0.0361
30731W        W46992   0.157  17.561  14.427 -0.0606 -0.1807 -0.0403
30732W        W46993  15.160  12.361   1.902 -0.1699  0.1566  0.0499
30733W        W46994   1.475   7.736   2.992  0.4277  0.0273 -0.0269
30734W        W46995  18.796   7.718   4.176 -0.0251  0.1378  0.0776
30735W        W46996  11.145  15.209  12.522 -0.4882  0.0159 -0.0776
30736W        W46997   0.392   5.764   4.077  0.0812  0.1071 -0.2704
30737W        W46998  12.927   6.221  14.318  0.3754  0.0006  0.1594
30738W        W46999  19.118  18.440  12.880 -0.1936 -0.0617 -0.1388
30739W        W47000   9.498   7.432  13.384  0.1891 -0.1780  0.2027
30740W        W47001  15.987   0.257   2.585  0.0107  0.1973 -0.0841
30741W        W47002   8.015  12.874  14.395 -0.0809 -0.0982 -0.5600
30742W        W47003   8.272  19.181   8.815  0.0524  0.1234 -0.2074
30743W        W47004  17.213   7.933  14.463 -0.4751 -0.1182  0.1632
30744W        W47005   4.966  15.353  14.582  0.2082 -0.0423 -0.2812
30745W        W47006  13.818  17.291   1.553 -0.0596  0.1152  0.1585
30746W        W47007   4.131   8.453   3.389 -0.0609  0.0118  0.0105
30747W        W47008   4.920  16.538  10.965  0.0008  0.1932  0.0238
30748W        W47009  17.013  18.157  12.682  0.0703 -0.1504  0.4267
30749W        W47010  13.726   6.442  11.211 -0.1723 -0.1268  0.1211
30750W        W47011  12.962   9.370   0.841  0.0549  0.0085 -0.0172
30751W        W47012  13.207   1.085  13.574  0.2289 -0.4124 -0.0994
30752W        W47013  11.738   8.537   0.020  0.2564  0.0643  0.1753
30753W        W47014   1.170  10.739   3.085  0.3889  0.3860 -0.0505
30754W        W47015  11.993   4.875  14.785  0.1921 -0.1502  0.0612
30755W        W47016   2.221  10.270   5.680 -0.1234 -0.2429  0.2932
30756W        W47017   1.239   3.535   3.432  0.2056 -0.3068 -0.1543
30757W        W47018   9.141  11.985   3.400  0.0078  0.2114  0.1121
30758W        W47019  10.560   9.067  10.232 -0.0919  0.2435 -0.0752
30759W        W47020   8.164   4.217  14.309  0.0791  0.5294 -0.0558
30760W        W47021   5.728   4.105   2.541  0.1991 -0.0832 -0.2240
30761W        W47022  14.050   2.525   0.356 -0.1142 -0.0602  0.2754
30762W        W47023  11.983  14.581   1.580 -0.0516 -0.1777  0.0073
30763W        W47024  18.240  12.925  14.115  0.0805 -0.1900  0.1585
30764W        W47025   5.625  17.297  14.705  0.2399  0.1735 -0.4189
30765W        W47026  15.438  14.454   5.654  0.2596  0.3336  0.0001
30766W        W47027  17.924  12.097   2.516 -0.1598 -0.2653 -0.3425
30767W        W47028   6.248  15.339   1.787 -0.4009 -0.0385 -0.0314
30768W        W47029   6.355  13.171   9.974 -0.4581  0.0983 -0.1155
30769W        W47030   7.961   3.631   2.733 -0.2864  0.2064 -0.0348
30770W        W47031  19.084   8.440   4.195 -0.1386  0.0306 -0.0721
30771W        W47032   0.194   8.949  12.016  0.0930  0.2156 -0.2346
30772W        W47033  11.599  11.013  14.122  0.0171 -0.2476  0.3010
30773W        W47034  11.889   0.268   1.569 -0.2359  0.0027 -0.0030
30774W        W47035   3.285  15.883   1.595  0.3247 -0.0354  0.1771
30775W        W47036   3.675  16.468   3.604 -0.2441 -0.0922 -0.0321
30776W        W47037   2.044   7.588   2.299  0.0605  0.4418  0.0404
30777W        W47038  15.457   1.519  13.401 -0.1860  0.5313  0.2680
30778W        W47039   5.682  18.042  13.855  0.0288 -0.2814  0.0254
30779W        W47040  11.322   9.084   3.525  0.1114  0.1269  0.1736
30780W        W47041   2.928   6.485  13.956  0.1823 -0.0640  0.0727
30781W        W47042  13.674   3.766  10.463 -0.3218  0.1698  0.2425
30782W        W47043   2.962  10.345  11.353  0.0492 -0.0798 -0.3099
30783W        W47044   8.451   7.556  13.561 -0.4588 -0.2522 -0.2206
30784W        W47045   2.148  13.991  10.463 -0.2126 -0.2347 -0.0278
30785W        W47046  15.700  10.121   0.736  0.3995 -0.0324 -0.1271
30786W        W47047  16.497  10.812   4.231  0.1350 -0.1715 -0.0860
30787W        W47048  17.759   9.342   0.128  0.0204 -0.2524 -0.2000
30788W        W47049   5.832   9.427   2.339 -0.0603  0.0022  0.0284
30789W        W47050  11.504  17.196  10.137 -0.0788 -0.1183  0.0992
30790W        W47051   3.496  11.560   9.468  0.2379 -0.1449 -0.4080
30791W        W47052  12.496  11.115  13.224  0.2116  0.3188  0.0626
30792W        W47053  13.745  15.386   0.887 -0.3058  0.0370 -0.0225
30793W        W47054  13.821  15.663   4.665  0.0113  0.0552 -0.1330
30794W        W47055  18.225  12.546   3.819 -0.0708 -0.1825  0.2556
30795W        W47056   7.323  12.536  10.737  0.1210  0.3335 -0.0188
30796W        W47057  18.106  12.718  12.468 -0.1725  0.5995 -0.1187
30797W        W47058  17.484  18.947   5.193 -0.0650 -0.0369 -0.4229
30798W        W47059   2.903  13.672  10.800  0.1476  0.1939  0.0309
30799W        W47060   7.392   8.856   3.524 -0.0300  0.0803 -0.2650
30800W        W47061  17.817   6.537   4.283 -0.1809 -0.1642  0.1314
30801W        W47062   5.767   2.829  12.852  0.0432 -0.1647  0.2152
30802W        W47063   2.306   9.975   4.456 -0.3013  0.1951  0.2334
30803W        W47064  15.310   1.667  14.037  0.1795 -0.1275 -0.0260
30804W        W47065   1.035   0.917   2.410 -0.0148  0.0119 -0.0685
30805W        W47066  13.695   7.373   4.610 -0.0449 -0.4064  0.0442
30806W        W47067   3.119   3.910   1.947 -0.0879  0.1517 -0.0945
30807W        W47068  13.638   7.283  14.419  0.2110  0.2343 -0.0734
30808W        W47069  11.452   6.912   4.067  0.1383  0.2348 -0.3000
30809W        W47070  16.415   7.751   0.909 -0.4261  0.2176 -0.1903
30810W        W47071  16.696  15.214  12.585 -0.1347 -0.2924  0.2029
30811W        W47072  17.785  17.469   3.553 -0.0168  0.0662 -0.1600
30812W        W47073  10.969   1.588   3.570  0.0227  0.0812 -0.2990
30813W        W47074   3.792  13.514   1.182 -0.0372  0.0354 -0.0375
30814W        W47075   2.810  18.691  14.635  0.1031 -0.1287 -0.2356
30815W        W47076   5.211  10.928  11.467 -0.2865 -0.0395 -0.1166
30816W        W47077   1.844   8.445   2.378  0.3987  0.0394  0.0607
30817W        W47078  15.466  11.760   3.107 -0.3172 -0.5621  0.1884
30818W        W47079  10.198   7.349   0.159  0.2861 -0.1064 -0.4220
30819W        W47080   6.099  16.163   3.453 -0.0115  0.0151  0.1987
30820W        W47081  12.916  11.809   3.846  0.0122 -0.4913  0.2266
30821W        W47082  11.419  11.806  14.453 -0.2929 -0.3506  0.1001
30822W        W47083   3.562  11.113   2.958  0.1923 -0.2339 -0.3363
30823W        W47084  13.355   6.431   3.653 -0.2077 -0.1483  0.0434
30824W        W47085   7.305  10.081  11.220  0.0455 -0.3039  0.0070
30825W        W47086   1.734  14.614   3.414  0.2373 -0.1110  0.0239
30826W        W47087   6.163   8.744  12.061 -0.1333  0.2052  0.0736
30827W        W47088  12.807   4.698   0.268 -0.1950 -0.1706  0.0168
30828W        W47089  16.511  14.247   4.331 -0.1500 -0.0875 -0.4050
30829W        W47090  14.660  15.979   5.772 -0.0261 -0.0335  0.0340
30830W        W47091  11.159  16.687   3.218 -0.0820 -0.0927  0.2864
30831W        W47092   7.874   5.411  11.603  0.3430  0.1477  0.0413
30832W        W47093  18.355  17.516   0.479 -0.3131 -0.2329 -0.1019
30833W        W47094  12.390  12.984  12.734  0.0718 -0.4748  0.0796
30834W        W47095   7.171  12.261   1.492 -0.2955  0.0383 -0.1141
30835W        W47096  11.478  15.419   1.754  0.0840 -0.1307  0.0639
30836W        W47097  18.872  14.701  11.634 -0.2011 -0.1959  0.1701
30837W        W47098  12.941  15.398   4.752  0.0621 -0.1954  0.3119
30838W        W47099   5.092   2.496   3.351  0.3633  0.2876  0.3776
30839W        W47100  18.279  11.872  12.971 -0.0065  0.1936  0.0043
30840W        W47101   6.793  18.934  10.029  0.2838  0.0249  0.2027
30841W        W47102   4.488  15.136  13.278  0.0818  0.0680  0.0021
30842W        W47103  14.445  19.243   3.366 -0.3424 -0.1528 -0.0730
30843W        W47104   2.645  15.714  11.271  0.1814 -0.0592  0.0118
30844W        W47105   9.112   3.175   0.558  0.0846 -0.1780 -0.0857
30845W        W47106   9.525  11.018  14.732  0.5069  0.0061 -0.0961
30846W        W47107   2.556  15.004   4.964 -0.4043 -0.1347 -0.1061
30847W        W47108   0.203   6.251  14.346  0.2457 -0.0986 -0.0845
30848W        W47109  12.666   2.286  10.933  0.0287 -0.3093 -0.0799
30849W        W47110  17.944  16.291  11.625 -0.0936  0.1245 -0.1253
30850W        W47111  10.023  11.109   5.898  0.3702  0.3055  0.0395
30851W        W47112  14.749  11.863   4.873  0.1340  0.0068 -0.5504
30852W        W47113  10.517   4.813   0.333  0.0111 -0.0121  0.2612
30853W        W47114  18.598   1.711  11.153 -0.3589  0.2141 -0.0818
30854W        W47115   0.935  13.095  12.674  0.0233 -0.0210  0.1826
30855W        W47116   8.691   3.390  13.575 -0.0131  0.0787 -0.0237
30856W        W47117  14.524   6.720  10.339 -0.1174 -0.0205  0.0892
30857W        W47118  16.291  19.172  13.288 -0.1481 -0.0321  0.5306
30858W        W47119  14.348   5.288   2.581  0.1190  0.1876  0.2569
30859W        W47120  16.869   4.706  12.376 -0.0593  0.0687  0.1998
30860W        W47121   5.567  13.972   3.651 -0.0590 -0.2929 -0.2796
30861W        W47122   8.478  14.780   1.773 -0.1500  0.1591  0.2459
30862W        W47123  19.087   5.772   9.849 -0.2408  0.1048 -0.1080
30863W        W47124   4.215   3.397  11.419 -0.1210 -0.2063 -0.0801
30864W        W47125   3.893   7.434  12.887  0.1267 -0.1208  0.0865
30865W        W47126   5.303  11.829  14.176 -0.0886  0.1963  0.1219
30866W        W47127   9.782   3.229  11.726 -0.3977  0.1713 -0.1176
30867W        W47128   7.159   8.986   4.829 -0.2382  0.0049 -0.2786
30868W        W47129  10.834  19.047  12.095  0.1365  0.1381 -0.1083
30869W        W47130  13.716  11.831   4.311  0.2222 -0.3176 -0.0607
30870W        W47131   4.303  11.779   0.842 -0.0208 -0.3062 -0.3554
30871W        W47132  11.653   8.284  10.732  0.5064 -0.0166  0.2555
30872W        W47133   0.668  11.056   0.704 -0.3148 -0.2543 -0.0792
30873W        W47134   4.162   3.274   9.995  0.1766 -0.0897 -0.1303
30874W        W47135   8.958   2.505   1.979 -0.2251 -0.3401 -0.0407
30875W        W47136  17.018  13.602  12.789 -0.0650 -0.3242 -0.1897
30876W        W47137   0.043   7.653   3.524 -0.2574  0.0871  0.1038
30877W        W47138   5.680   6.163  14.544  0.4050  0.0830  0.3820
30878W        W47139  10.121   7.112   1.729 -0.0620  0.0366  0.0073
30879W        W47140   2.636   2.401  11.863 -0.3095 -0.0387 -0.2739
30880W        W47141   7.840  12.751   1.577 -0.3146 -0.1339  0.2813
30881W        W47142  10.058  14.077  12.673 -0.4327 -0.0554  0.2796
30882W        W47143  12.948   1.918  10.701  0.0253  0.0077  0.2779
30883W        W47144  18.697  15.778  13.466 -0.3866  0.0550 -0.1460
30884W        W47145   0.573   2.230   5.076  0.0042 -0.1549 -0.1935
30885W        W47146   3.802  11.037  11.402  0.1915  0.1521  0.1226
30886W        W47147  11.161   7.220   3.797  0.1232 -0.0720  0.0406
30887W        W47148   3.974   4.596  14.681 -0.1421  0.0397  0.0672
30888W        W47149   6.454   2.448  12.193 -0.1377 -0.1071 -0.3210
30889W        W47150   7.406   8.609   2.671  0.2013  0.0978 -0.1639
30890W        W47151  15.387  13.049  12.197 -0.0479  0.0659  0.4505
30891W        W47152  13.161   4.153  14.265  0.2788  0.0974  0.2905
30892W        W47153  14.743   7.843   4.083 -0.2259  0.0777  0.1386
30893W        W47154  15.113   4.244  10.853 -0.0978 -0.1326  0.0436
30894W        W47155  18.821   6.371  12.895  0.0531  0.1170  0.4677
30895W        W47156   4.937  17.609  12.863  0.2323  0.1069  0.3644
30896W        W47157   0.320  11.566   2.262  0.4049 -0.0576 -0.4489
30897W        W47158   1.337   6.202   3.094 -0.2459 -0.1266  0.1094
30898W        W47159   1.178   6.729   5.391  0.6627  0.4268 -0.2864
30899W        W47160  10.328   7.605   9.742  0.1564 -0.1969  0.0155
30900W        W47161   8.531  17.201   0.367 -0.0724 -0.0785  0.1720
30901W        W47162   1.899  16.305   0.046  0.1861  0.1816  0.2285
30902W        W47163  12.900  12.587   3.309 -0.0187  0.0195  0.2367
30903W        W47164   8.670  18.170  14.043  0.2038  0.0745  0.0628
30904W        W47165   6.277   2.470  11.723  0.2664  0.0036  0.1924
30905W        W47166   3.444  16.640   2.443  0.3091  0.0387  0.0907
30906W        W47167   3.815  11.621   1.083 -0.2332 -0.3208 -0.0035
30907W        W47168   7.707  15.452   4.400  0.2154  0.0558  0.2295
30908W        W47169  13.630  12.419   3.573  0.0807  0.3968 -0.0559
30909W        W47170   5.791  14.880   1.470  0.1945 -0.2797  0.1117
30910W        W47171  14.877   9.698  11.690  0.0110 -0.0266  0.2963
30911W        W47172   7.582   2.811   2.981  0.0624  0.0538 -0.0233
30912W        W47173   4.374  17.918   4.714  0.5207  0.0204  0.1548
30913W        W47174   6.770   0.001  12.115  0.1078 -0.0627  0.0261
30914W        W47175   1.489   5.450   1.449  0.0334  0.2037 -0.1716
30915W        W47176  13.670  10.135  12.899  0.1753  0.0049 -0.2354
30916W        W47177   0.350   0.181  10.201  0.3788 -0.2881  0.1749
30917W        W47178   4.901  18.162   2.195 -0.2641 -0.0112 -0.2477
30918W        W47179  19.353   5.949  14.465 -0.0702  0.1536  0.1148
30919W        W47180  14.484   4.759   2.418 -0.1881 -0.1544  0.1889
30920W        W47181  14.864  18.660   0.313 -0.0534  0.1679 -0.1732
30921W        W47182   5.327  15.952   4.309 -0.1941 -0.0124 -0.0097
30922W        W47183  10.990  14.767   0.064 -0.0869 -0.0975 -0.0359
30923W        W47184  11.838   4.771   0.939 -0.1278 -0.0766 -0.0212
30924W        W47185   4.551   6.559   0.119 -0.0743 -0.2699  0.0189
30925W        W47186   1.534  15.124   4.162 -0.2296  0.1760 -0.0159
30926W        W47187  14.787  18.688  14.611  0.2631  0.3481  0.2975
30927W        W47188   4.302  10.748  11.704 -0.1128  0.0130 -0.1064
30928W        W47189  13.405  16.379   3.057  0.1537  0.1806  0.0307
30929W        W47190  19.322   5.527  14.758  0.0296  0.0267  0.0217
30930W        W47191  18.917   5.927   5.107  0.0521  0.0716  0.1255
30931W        W47192   3.134   1.696  11.198  0.0846 -0.0258 -0.3013
30932W        W47193  10.617  16.526  10.940 -0.1139 -0.1023  0.2385
30933W        W47194   1.418  15.358  12.484  0.2614  0.1200  0.1876
30934W        W47195  10.140  11.006   1.672 -0.2661 -0.4715  0.0595
30935W        W47196  13.627   9.580   2.010  0.1724 -0.1754 -0.1252
30936W        W47197   0.477   9.193   3.156 -0.0680 -0.0198  0.1112
30937W        W47198  13.707  17.022  11.735  0.1012 -0.0712 -0.1317
30938W        W47199  15.067  16.401  14.431  0.1556  0.2448  0.0287
30939W        W47200   6.769   9.891  11.551 -0.1511  0.0779  0.0988
30940W        W47201   4.865   8.456   3.283  0.1880  0.2609 -0.0355
30941W        W47202  11.949  13.337   4.500 -0.3847 -0.0998  0.0150
30942W        W47203   8.134   9.933   0.954 -0.0401 -0.2416  0.3370
30943W        W47204   7.353   2.468   3.226 -0.0705 -0.1465 -0.2381
30944W        W47205   4.854   4.167   2.017  0.1561  0.2870  0.0762
30945W        W47206  13.525   4.435   3.353 -0.4319  0.0354 -0.1296
30946W        W47207  17.512   0.258  12.924 -0.2029  0.1955  0.0652
30947W        W47208   4.238  16.188   5.026 -0.2510 -0.3456  0.0809
30948W        W47209  17.219   0.639   2.020 -0.0093 -0.1509 -0.2445
30949W        W47210  16.757  13.999  13.029 -0.1198  0.0902 -0.1261
30950W        W47211  13.789   9.155   2.026 -0.0248 -0.0536  0.1639
30951W        W47212  13.694   6.071   3.382  0.0315  0.0702  0.0805
30952W        W47213   3.769   9.147   3.708 -0.3331 -0.1620 -0.1626
30953W        W47214   9.129  10.079   1.626 -0.1850  0.1527  0.0619
30954W        W47215   3.083   7.689   9.317 -0.2652  0.3723 -0.0958
30955W        W47216  18.647   8.002  13.014 -0.0644  0.3879  0.0596
30956W        W47217  15.770  13.485   1.682 -0.2111  0.0004  0.0025
30957W        W47218  10.415  16.523   2.214  0.1380  0.1025 -0.0659
30958W        W47219   4.408   6.696   3.947  0.0459 -0.2390 -0.2550
30959W        W47220   5.702   0.023   3.659  0.1157  0.1316  0.0428
30960W        W47221   2.725   8.630  11.358 -0.1307 -0.1142  0.1817
30961W        W47222   7.605   4.176   3.315 -0.1876  0.1171 -0.1564
30962W        W47223  15.331  16.455  11.014 -0.0151 -0.2383  0.0446
30963W        W47224  16.770  17.638   1.075  0.1376 -0.0580 -0.0141
30964W        W47225  10.040   0.227   0.287 -0.2391 -0.1293  0.2418
30965W        W47226   1.436   1.751  14.308 -0.0513 -0.2299  0.0450
30966W        W47227   1.159  16.849   0.320  0.3784 -0.0357  0.2187
30967W        W47228  13.632  10.715   1.152  0.1035  0.0610 -0.1330
30968W        W47229   9.681   7.067   3.057  0.0022 -0.2995 -0.0999
30969W        W47230  17.743   6.337   4.806  0.3683  0.0793 -0.1535
30970W        W47231  13.406  12.149   2.167 -0.1569 -0.0497  0.0273
30971W        W47232  11.856   0.867   3.499  0.0546 -0.0331 -0.0807
30972W        W47233   8.846   1.460  13.166 -0.3457  0.4582  0.1765
30973W        W47234   2.149   6.162  13.298  0.0356 -0.2706 -0.1861
30974W        W47235   1.615  15.542   3.494 -0.3377  0.2496 -0.1202
30975W        W47236  18.336  11.619  12.466  0.2296  0.0115 -0.6321
30976W        W47237  17.352   7.605   3.742  0.1021  0.0588 -0.1356
30977W        W47238  13.966   7.321   0.369 -0.0992 -0.1415  0.0603
30978W        W47239  13.600  10.942   4.973 -0.0286 -0.0283 -0.0726
30979W        W47240   9.247  13.800   2.405 -0.0652  0.0889 -0.1152
30980W        W47241   8.916  11.095  11.733 -0.1496 -0.1060  0.4021
30981W        W47242   7.086   0.619  11.671 -0.2100 -0.1315  0.1198
30982W        W47243   6.484   0.581  10.266  0.0230 -0.2941  0.2694
30983W        W47244   6.714   7.028   4.198  0.1934 -0.2317 -0.0590
30984W        W47245   3.795  15.396   0.902  0.0904 -0.2445  0.0896
30985W        W47246  13.505   6.490   2.184  0.2035  0.0007  0.1365
30986W        W47247  10.371   1.607   3.504  0.2468  0.1072  0.0328
30987W        W47248  14.494   8.716  12.395  0.0848 -0.1108 -0.2899
30988W        W47249   4.595  10.477   4.072 -0.3503  0.0744 -0.2260
30989W        W47250  14.713   6.524   2.799  0.2487  0.2296 -0.3015
30990W        W47251  12.965  14.420   0.347 -0.2568  0.4170  0.1322
30991W        W47252   5.337   3.140  14.052 -0.0793  0.0007 -0.0196
30992W        W47253  12.739   7.775  11.330  0.1951  0.1112  0.1564
30993W        W47254  18.298  11.643   3.331 -0.0635 -0.0773  0.1833
30994W        W47255   2.603  19.119   2.810  0.0494  0.0510 -0.2646
30995W        W47256   7.085  17.565   4.236  0.3591 -0.4438  0.1302
30996W        W47257  18.401  10.954  12.925 -0.1399  0.0463  0.0042
30997W        W47258  17.289   2.085   0.273 -0.0800  0.0894  0.0252
30998W        W47259  11.016   8.230  12.590 -0.2227 -0.2677 -0.2173
30999W        W47260   8.798  19.267   3.226  0.1877 -0.0070  0.0161
31000W        W47261  10.052  12.586   3.567 -0.0343  0.1888 -0.0960
31001W        W47262  15.533   6.533  14.446 -0.1320  0.1618 -0.0342
31002W        W47263   1.646   5.747   9.007  0.0812 -0.1798  0.0468
31003W        W47264  17.361   5.973   3.275  0.2392  0.3634  0.0939
31004W        W47265  11.560   4.947  11.851  0.3453 -0.1714 -0.1702
31005W        W47266   2.187   4.299   1.288  0.0816 -0.1129 -0.1415
31006W        W47267  15.317   7.586   0.665 -0.2584 -0.3840 -0.2099
31007W        W47268   5.656  19.208   4.835 -0.2377 -0.0702 -0.6369
31008W        W47269   8.476   0.156   4.550 -0.0111  0.0873  0.0856
31009W        W47270   1.912   0.674  11.110 -0.2948 -0.3746  0.3608
31010W        W47271   5.263  19.408   2.279 -0.0203 -0.1651  0.0183
31011W        W47272  17.743   6.025   3.584  0.2596  0.1065  0.1473
31012W        W47273  12.889  11.751   4.955  0.3516 -0.2358  0.0585
31013W        W47274   9.632  17.209  13.610  0.0829  0.0089  0.3725
31014W        W47275  15.976  16.273  13.563  0.0737  0.2766  0.0320
31015W        W47276  17.480  17.038   5.272  0.3290 -0.1261  0.2692
31016W        W47277  13.415   1.127  10.719  0.0172 -0.0789  0.1282
31017W        W47278  13.179   8.882   4.787  0.0774 -0.0615  0.1190
31018W        W47279  15.046   8.725   3.227  0.1619  0.0858 -0.1149
31019W        W47280  11.354  16.988   3.554 -0.1205  0.3081  0.1996
31020W        W47281   0.435   3.888   9.599  0.2274  0.3661  0.4452
31021W        W47282  13.976  19.038   6.170 -0.0722  0.4900  0.1767
31022W        W47283  10.710   5.200   8.683  0.1115 -0.0899 -0.0660
31023W        W47284  14.802   0.790  14.219  0.2711 -0.1935 -0.3514
31024W        W47285  10.608  17.501  14.059  0.1692  0.0580 -0.1572
31025W        W47286  16.899  11.616   4.368  0.0805 -0.0396  0.0921
31026W        W47287   8.283   9.136  10.855  0.4241  0.1756 -0.3258
31027W        W47288  18.030  19.327   2.049  0.0341 -0.2449 -0.0077
31028W        W47289   2.593  17.239  14.530 -0.1946  0.0358 -0.0535
31029W        W47290  15.169   9.019   2.822  0.1252  0.3298  0.1537
31030W        W47291   5.514   0.743   5.041 -0.1415  0.0472 -0.0424
31031W        W47292  15.947  17.924   3.203  0.2421  0.0179  0.2822
31032W        W47293  13.039  17.130   0.954 -0.0432 -0.2669 -0.0923
31033W        W47294   9.414   8.802  13.088 -0.3100 -0.0578 -0.0943
31034W        W47295  18.942  16.278   4.408  0.3595  0.1401  0.0767
31035W        W47296  18.880   0.360   4.015  0.0420 -0.2025 -0.0823
31036W        W47297   6.744   2.191  13.940  0.2917  0.1288 -0.3725
31037W        W47298   6.426  17.514   1.553  0.0632 -0.1162 -0.1834
31038W        W47299   7.844  16.592   4.197 -0.1031  0.1843  0.0990
31039W        W47300  18.500  15.123   4.289  0.4617 -0.0513  0.2090
31040W        W47301  11.396   8.389  13.540 -0.0226 -0.0423 -0.3487
31041W        W47302  16.180  19.485   5.072  0.2941  0.1289 -0.0301
31042W        W47303   1.893  13.106   0.624  0.4308  0.2534  0.0809
31043W        W47304  15.630   2.904   3.211  0.2219  0.0683 -0.1475
31044W        W47305  18.938  13.417  11.233 -0.0388 -0.0586  0.4062
31045W        W47306  15.571  10.944   1.864  0.2164  0.2508 -0.0568
31046W        W47307   9.524  10.989   4.054  0.3213  0.0753 -0.0780
31047W        W47308  10.346   0.993  11.959  0.1850  0.2805  0.0949
31048W        W47309  17.598   6.080   4.116  0.2552 -0.0648  0.1076
31049W        W47310  10.247  10.856   2.158  0.0723  0.1261  0.0620
31050W        W47311  14.662   1.584   1.974 -0.2611  0.0988 -0.0642
31051W        W47312   4.401   6.779  11.594  0.2040 -0.1228  0.3545
31052W        W47313  13.242   2.098   2.189  0.1642  0.0585 -0.1232
31053W        W47314   6.593  15.895  13.701 -0.0072 -0.1870  0.0671
31054W        W47315  14.012  12.859  10.352  0.3837  0.0495  0.0884
31055W        W47316   7.886  10.116  10.603 -0.1111  0.2414 -0.0894
31056W        W47317   7.200   5.633   1.072 -0.0627  0.2557  0.0343
31057W        W47318   4.418   4.662   3.138 -0.2062  0.1479  0.2878
31058W        W47319   6.074  10.530  10.509  0.3748 -0.1093 -0.2135
31059W        W47320  19.241   6.912   1.160  0.0250 -0.0897 -0.0279
31060W        W47321  14.386   5.660   4.351 -0.3630 -0.0225  0.0404
31061W        W47322  14.488  14.805   2.388 -0.2133 -0.2561  0.0247
31062W        W47323   0.722  12.199   5.233 -0.0710 -0.0909  0.3597
31063W        W47324   1.597  15.330   2.646  0.1260 -0.1653  0.2072
31064W        W47325  16.436   3.462   2.672 -0.2668  0.0952 -0.0157
31065W        W47326   3.844  13.191  13.962 -0.0643  0.2269 -0.0565
31066W        W47327  15.249   1.778  12.051 -0.0453  0.1351  0.0429
31067W        W47328   3.112   1.430  13.405 -0.0281  0.3162 -0.2897
31068W        W47329   2.463  11.362  12.277  0.2411  0.1616 -0.1894
31069W        W47330   3.968   2.745  13.454 -0.0340 -0.0984  0.0060
31070W        W47331   4.625  19.030   1.652 -0.0669  0.2416  0.3637
31071W        W47332   5.055   0.127   8.968  0.0844 -0.2548  0.2273
31072W        W47333  18.911   2.968  13.863 -0.1082  0.2207 -0.1011
31073W        W47334   2.821  13.747  11.333 -0.0578 -0.0877 -0.0030
31074W        W47335  11.676   8.910   9.630 -0.1904 -0.3540  0.0006
31075W        W47336   2.086   3.957  14.612 -0.1989 -0.1163 -0.0556
31076W        W47337   4.110   3.194   2.299 -0.3207 -0.0423 -0.1836
31077W        W47338  13.743  12.183   5.351 -0.0525  0.1909 -0.1557
31078W        W47339   3.760   8.213  11.188  0.1508  0.1843  0.1404
31079W        W47340   3.726  16.388  14.765  0.1072  0.0542 -0.2079
31080W        W47341  10.420   0.356  14.158  0.2191 -0.0285  0.0016
31081W        W47342   1.861   7.117  14.564 -0.2242  0.0767 -0.2690
31082W        W47343   2.672  11.879  11.404 -0.0142  0.3648  0.1256
31083W        W47344   9.300  18.209  13.859  0.0167  0.2588 -0.0394
31084W        W47345  12.004  16.413   0.176  0.2462  0.1935 -0.1795
31085W        W47346  11.542   8.732  11.912  0.1635 -0.3860 -0.2128
31086W        W47347  15.939  19.018  13.680  0.0279  0.0786 -0.3835
31087W        W47348  14.479  18.939   0.600 -0.0099 -0.1042 -0.1285
31088W        W47349  11.550  12.618   4.058  0.0147  0.0815  0.0772
31089W        W47350   2.075  10.202   0.735 -0.0075 -0.2267  0.0128
31090W        W47351   7.887  18.074   3.023 -0.0542  0.1098 -0.4233
31091W        W47352  15.043   0.213   2.265 -0.1699  0.1051  0.2619
31092W        W47353  19.372   5.684   9.415  0.1159 -0.0256  0.2213
31093W        W47354  10.092   2.681   0.866 -0.0157  0.0760 -0.2168
31094W        W47355   9.957   5.835   0.202  0.3580 -0.1438 -0.0262
31095W        W47356   1.562   9.215   1.833 -0.1803  0.0744 -0.1588
31096W        W47357   3.709  10.179  12.010  0.1273  0.0202  0.1860
31097W        W47358  10.343   0.041  13.421  0.2075  0.3894  0.3109
31098W        W47359   1.880  16.700   0.901 -0.1165  0.0587 -0.2591
31099W        W47360   8.472   9.934   3.998  0.0535 -0.0612  0.1270
31100W        W47361  18.046  13.924   0.180 -0.0014 -0.0004  0.0952
31101W        W47362  14.195   0.997  11.092  0.0110  0.2889  0.2981
31102W        W47363  17.276  10.387  13.710 -0.0394  0.0930 -0.4557
31103W        W47364  19.227  10.684  11.287 -0.2455  0.0220 -0.2741
31104W        W47365  10.606  19.091   2.816  0.1150  0.4660  0.0751
31105W        W47366  17.069   1.662   5.798  0.0417  0.3591 -0.0596
31106W        W47367  15.028   0.251  11.132  0.0007 -0.0137  0.0045
31107W        W47368  13.790   5.679  13.760 -0.1737  0.4352  0.0119
31108W        W47369   6.933   8.105  10.787 -0.1580 -0.2045 -0.0156
31109W        W47370   5.617  18.764  11.508  0.2568 -0.0345 -0.2889
31110W        W47371   6.061  10.549  11.018  0.0933  0.0419  0.0821
31111W        W47372   0.073   3.831  10.511 -0.2894  0.3873 -0.0712
31112W        W47373   1.381  16.547   3.551  0.2486  0.4356  0.0589
31113W        W47374   7.873   8.396   1.410  0.4197  0.0562 -0.0224
31114W        W47375   8.292  14.038  14.055 -0.0230  0.0991 -0.1199
31115W        W47376   0.815  19.340   2.264 -0.0982 -0.2150 -0.0001
31116W        W47377  10.196  16.618  12.834 -0.1865  0.0794 -0.0993
31117W        W47378   0.573  18.292   4.915  0.1746  0.0927  0.1971
31118W        W47379  10.865  14.051  11.645 -0.0890 -0.1955  0.0925
31119W        W47380  10.023   3.361  12.357  0.3757 -0.2388  0.1233
31120W        W47381   4.403   0.410  13.252 -0.0778  0.0188  0.0236
31121W        W47382  10.877  16.632   0.268  0.2531  0.2554  0.2112
31122W        W47383  19.085   3.758  11.813  0.2890  0.2859  0.1369
31123W        W47384  17.190   9.461   2.663  0.0982 -0.0937  0.0578
31124W        W47385   1.445   8.777  10.950 -0.0471 -0.0241  0.0817
31125W        W47386  11.612   7.341   2.521  0.3904 -0.0826 -0.0756
31126W        W47387   2.946  10.721  12.396  0.3122 -0.1462  0.2696
31127W        W47388   2.575  15.138  13.499  0.2475 -0.3014 -0.1543
31128W        W47389   4.330   5.333  13.553 -0.2467  0.0637 -0.2996
31129W        W47390   9.456   6.057  14.092  0.1390  0.0919 -0.1771
31130W        W47391   2.449   2.083   3.206 -0.2601  0.1507  0.0974
31131W        W47392   5.249   2.861   0.695  0.0723 -0.2808  0.2095
31132W        W47393  11.124  10.490   3.814 -0.1348 -0.2368 -0.0293
31133W        W47394   3.932  19.230  11.415 -0.2928  0.1109  0.0147
31134W        W47395  13.425  15.251  11.978 -0.0402 -0.1309 -0.0108
31135W        W47396  18.058  11.116  14.222  0.1634 -0.1563 -0.0313
31136W        W47397  14.568  17.320   4.690 -0.0370  0.0591  0.0697
31137W        W47398  15.392   0.367  13.406  0.0306 -0.0417  0.0795
31138W        W47399  14.522  12.383  14.469 -0.0605 -0.4890  0.1051
31139W        W47400   5.030   7.014  12.404 -0.0683 -0.0163  0.3849
31140W        W47401  12.254  15.600   0.127  0.1053 -0.2588  0.0971
31141W        W47402  13.758  12.710   0.127  0.4345  0.3081  0.0253
31142W        W47403   1.356  14.708  11.959  0.2362 -0.4261  0.1537
31143W        W47404  13.461   7.838  11.902 -0.0414  0.2075 -0.2136
31144W        W47405  13.862   0.837  14.468  0.1900 -0.0438 -0.0758
31145W        W47406  11.177   7.498  12.389  0.1003  0.0492 -0.0807
31146W        W47407  11.051  11.070   5.958 -0.0659  0.1043 -0.4396
31147W        W47408   4.230  12.950   2.653  0.1827  0.2028 -0.2579
31148W        W47409   2.824  16.423   0.602 -0.0143 -0.1673  0.2502
31149W        W47410   7.300  17.061   1.286 -0.2675 -0.0949 -0.0362
31150W        W47411   7.736  15.725   3.938  0.2524 -0.0737  0.1132
31151W        W47412  17.173   5.457   0.215  0.0733 -0.1614 -0.1868
31152W        W47413  14.045   3.265  11.012  0.2181 -0.1193 -0.0618
31153W        W47414   2.893   0.108  12.674 -0.1898 -0.3608  0.0095
31154W        W47415  16.305   2.865   0.709  0.0859 -0.0369  0.2317
31155W        W47416   5.385   3.448   3.359  0.3094  0.1287 -0.0457
31156W        W47417  18.747  18.056  10.522 -0.0416  0.0511  0.1246
31157W        W47418  17.188  19.007  10.342  0.1439  0.0768 -0.0419
31158W        W47419   3.783   1.305   0.521  0.0189  0.0103  0.2095
31159W        W47420  11.141   3.553   4.756  0.0762 -0.0461  0.1526
31160W        W47421   8.379  15.437   0.922 -0.3291  0.1668  0.0397
31161W        W47422   9.206  13.112  10.451  0.0714 -0.0088  0.3130
31162W        W47423  17.484   6.940   2.402 -0.0855  0.0778 -0.2563
31163W        W47424   6.026  15.193   4.408  0.1818  0.0117 -0.1181
31164W        W47425  15.467   1.659   5.076  0.1958 -0.0005  0.0901
31165W        W47426   5.325  18.934  14.395 -0.0244 -0.1333 -0.2082
31166W        W47427  10.858   8.774  12.462 -0.0741 -0.1169  0.1727
31167W        W47428  13.417   6.830   0.845 -0.2360 -0.2387 -0.0122
31168W        W47429  12.165   8.508   1.764 -0.4151  0.1578  0.0937
31169W        W47430  18.688  11.815   0.418  0.1040 -0.0826 -0.0094
31170W        W47431  19.433  17.817  13.553 -0.0865  0.0125 -0.1191
31171W        W47432  18.568   9.410   0.379  0.2900  0.0312  0.2736
31172W        W47433   9.640   9.926   0.944  0.0176  0.1670  0.1124
31173W        W47434   3.531   0.670  10.903  0.2971  0.0773  0.0214
31174W        W47435  14.691   8.713   1.266 -0.0713 -0.0601 -0.0070
31175W        W47436  17.257  13.252  12.340 -0.1359  0.2072  0.2815
31176W        W47437  10.144   1.404   5.638 -0.0733 -0.2093  0.0015
31177W        W47438  11.083   5.048  14.019 -0.1193 -0.0071 -0.0817
31178W        W47439   9.142   9.314   4.351  0.2393  0.1564  0.0161
31179W        W47440   8.979  19.456  13.795 -0.1818 -0.0032  0.3290
31180W        W47441  15.473   0.966  10.467 -0.0743  0.0125  0.5544
31181W        W47442  11.522  11.991   4.832  0.1529 -0.0960 -0.0807
31182W        W47443  11.881  16.611  12.926 -0.0676  0.1760  0.0595
31183W        W47444   5.017   0.254   2.623 -0.1253 -0.2023  0.3284
31184W        W47445   8.619  10.442  14.082  0.1015 -0.1749 -0.2053
31185W        W47446  18.339   5.367  11.425 -0.0272 -0.0511 -0.0953
31186W        W47447  13.176   5.397  12.701 -0.1004  0.0037  0.1884
31187W        W47448   1.763   1.790   1.899 -0.0509 -0.2035 -0.2055
31188W        W47449  18.947  17.712  11.056 -0.0412 -0.1067  0.2608
31189W        W47450  10.175  16.478   3.080 -0.1201 -0.0894  0.0449
31190W        W47451  10.892  11.905  14.422  0.0351  0.2357 -0.1969
31191W        W47452  19.317  15.030  14.340 -0.1125  0.2702 -0.4141
31192W        W47453  19.374  10.149   1.026  0.0214 -0.0458 -0.1872
31193W        W47454   0.787   5.757  12.297 -0.0073  0.1758  0.2597
31194W        W47455   2.834   8.933  10.998  0.0552 -0.2085 -0.0200
31195W        W47456  11.355   0.735   3.709 -0.2974 -0.0127 -0.0621
31196W        W47457   2.491  19.425   3.689  0.1153 -0.5211  0.0368
31197W        W47458   3.422  10.122   2.724 -0.0773 -0.3072 -0.0685
31198W        W47459  16.667  18.775   3.404 -0.2368 -0.0595  0.1186
31199W        W47460   8.830   2.983   9.586  0.3448  0.0218 -0.3554
31200W        W47461  13.602  13.898   0.521 -0.1490 -0.2295 -0.0667
31201W        W47462   0.284  10.622  10.971  0.0987  0.0018 -0.0007
31202W        W47463  13.691   4.110   1.060 -0.1429 -0.1304 -0.0492
31203W        W47464   8.091   7.231   0.481  0.2873  0.0124  0.0986
31204W        W47465  19.200  15.650   4.009 -0.1343 -0.0670  0.1905
31205W        W47466   0.827   1.621   0.100  0.1257  0.1139 -0.1377
31206W        W47467  16.768  11.878  14.094 -0.1138  0.1582 -0.0327
31207W        W47468   2.802   9.652  12.532  0.0255 -0.3504 -0.3083
31208W        W47469   8.752   5.175  12.082  0.0963  0.0249 -0.0181
31209W        W47470  17.502  17.031   3.661 -0.0238  0.2192  0.0957
31210W        W47471   6.594   1.555  12.897 -0.1950 -0.2557 -0.0146
31211W        W47472   3.958   7.203   0.059  0.0305  0.2746  0.2044
31212W        W47473  17.253  14.690   5.098 -0.0121  0.3553  0.0233
31213W        W47474  14.347   9.254   0.860  0.0979 -0.0327  0.1624
31214W        W47475   1.496  19.366   3.706 -0.0113  0.0227  0.1923
31215W        W47476  13.871   2.295   9.655 -0.2817 -0.5288 -0.1208
31216W        W47477  15.347   6.007   2.207 -0.1217  0.0830  0.1880
31217W        W47478  15.154   9.154  14.740 -0.0391 -0.0753  0.1015
31218W        W47479   7.540  13.691   2.143  0.1323  0.1312 -0.1266
31219W        W47480  13.271   5.048  14.328 -0.2730 -0.2387 -0.2646
31220W        W47481  16.906  11.227   0.232 -0.0930 -0.0983 -0.2513
31221W        W47482   6.671   6.416  14.622  0.1665  0.0531  0.2115
31222W        W47483   3.098   9.275   1.499  0.0824  0.0864  0.4763
31223W        W47484  10.474  10.379  10.907 -0.4046  0.0319 -0.0045
31224W        W47485   5.505  11.435   4.770  0.1184 -0.1235 -0.3482
31225W        W47486  13.298  18.413   3.441  0.2174 -0.2595 -0.1713
31226W        W47487  12.945  15.672   3.709 -0.0169 -0.0105 -0.0997
31227W        W47488  16.833   6.345  12.028  0.0182 -0.1551  0.1075
31228W        W47489   0.468  19.335  11.401 -0.2137  0.3467  0.3335
31229W        W47490   9.440   6.388   3.717 -0.2796 -0.0421  0.2025
31230W        W47491  17.374   0.648  11.884  0.0714  0.3177  0.1269
31231W        W47492   4.445  12.440  14.616  0.1062  0.0973  0.2693
31232W        W47493  18.069   4.391   5.084 -0.0056 -0.2992  0.0009
31233W        W47494   9.461   4.361  11.236  0.0308 -0.0893  0.3593
31234W        W47495   6.370   7.533  12.811  0.1067  0.0930 -0.0239
31235W        W47496   0.686   3.713   3.962 -0.1166  0.0530  0.0705
31236W        W47497   7.569  18.327  11.874  0.0770 -0.0180 -0.0209
31237W        W47498  15.994  15.323   2.041  0.1026  0.0694 -0.4350
31238W        W47499  17.140  17.477   4.289 -0.1074 -0.1177  0.2951
31239W        W47500  14.037   6.617   4.173 -0.1527 -0.0713 -0.0743
31240W        W47501  16.622   9.793   0.138 -0.1626  0.1530 -0.1158
31241W        W47502   7.440   7.995   2.064  0.2380 -0.3481  0.0355
31242W        W47503   1.674  16.910   1.470  0.0237 -0.1840  0.4528
31243W        W47504  15.898  12.621   0.182 -0.2414 -0.0594 -0.1692
31244W        W47505  12.828  12.698   5.595 -0.0746 -0.0823  0.1367
31245W        W47506  14.105   6.054   2.426  0.2044 -0.0602 -0.2852
31246W        W47507  15.783  12.787  12.032  0.0189  0.2764  0.0158
31247W        W47508   3.119  19.095  14.622 -0.0897 -0.0010 -0.3508
31248W        W47509  10.597   4.484   1.259  0.0064  0.2106 -0.0716
31249W        W47510   3.645   8.601  10.875  0.5662  0.1396  0.0121
31250W        W47511  17.445  14.495   4.605 -0.1680  0.2391 -0.2145
31251W        W47512  15.723  15.529   3.334  0.2315 -0.3407 -0.2213
31252W        W47513  19.322  18.425   2.390  0.1810  0.1805 -0.2331
31253W        W47514  18.605   7.099   0.871 -0.2887  0.1682  0.2087
31254W        W47515  10.246  13.695  12.278  0.1806  0.3519  0.0126
31255W        W47516   5.636   7.030  13.936  0.1444 -0.0963 -0.0565
31256W        W47517   4.817  11.182  11.697 -0.2563  0.0480 -0.0054
31257W        W47518  10.615   9.837   3.245 -0.0674 -0.0938  0.0174
31258W        W47519  17.258  10.320  11.981  0.1157 -0.2248  0.0991
31259W        W47520  16.535  17.422   3.620  0.0502  0.0265 -0.0129
31260W        W47521   3.814   7.691  10.664  0.1746  0.0807  0.0129
31261W        W47522  15.471  18.800   0.899  0.2046 -0.0553  0.1415
31262W        W47523  13.186   2.902  12.827  0.1138 -0.0603  0.1988
31263W        W47524  14.266  10.534   2.863  0.2606  0.0883  0.0081
31264W        W47525   6.930   1.008   2.098  0.0163  0.0212 -0.0500
31265W        W47526   1.767   1.643   2.375  0.0878 -0.1635 -0.0439
31266W        W47527   7.161   5.227  10.104 -0.0889  0.0930 -0.1282
31267W        W47528   9.656   3.343  13.596  0.0645 -0.1571 -0.3211
31268W        W47529  17.071  17.360   2.914  0.0502  0.1702 -0.1014
31269W        W47530   0.788   4.106   9.259  0.0793  0.2822  0.0342
31270W        W47531   9.980   1.845  13.927 -0.0774 -0.1736 -0.0565
31271W        W47532   8.311   4.460   3.504 -0.4509  0.1337 -0.2567
31272W        W47533   7.264   6.632  10.312 -0.0651 -0.0505  0.0635
31273W        W47534   1.312   1.475  14.806  0.2113 -0.0786 -0.0597
31274W        W47535  10.473  13.088   2.698  0.3087 -0.0777  0.1817
31275W        W47536  16.491  14.085   2.415  0.0765 -0.0746 -0.0492
31276W        W47537   7.471  13.061   1.257 -0.0188  0.1595 -0.4134
31277W        W47538   5.142   2.243  10.753  0.1267 -0.1112 -0.3046
31278W        W47539   1.394   6.802  11.476 -0.3185 -0.1962 -0.0057
31279W        W47540   6.277  10.192   1.233  0.1327  0.3512  0.0302
31280W        W47541   8.140   3.041   1.052 -0.0706 -0.0528 -0.1113
31281W        W47542   7.858   3.256  13.888 -0.2526 -0.0797 -0.1746
31282W        W47543   4.682  10.990  12.685  0.1613  0.1277  0.1643
31283W        W47544   5.526  10.984  12.043 -0.0880  0.0135 -0.1941
31284W        W47545  18.614   2.286  10.522  0.1973  0.2217  0.3451
31285W        W47546  14.858  19.311  13.024 -0.0731  0.2427  0.1212
31286W        W47547   3.672   3.332   1.976  0.1352  0.1226 -0.2683
31287W        W47548   3.087  12.345  14.802 -0.0506  0.3281 -0.2286
31288W        W47549  16.534  13.560   4.823 -0.1943  0.2520 -0.1036
31289W        W47550  17.218   8.281  12.984  0.0099 -0.2610  0.2496
31290W        W47551  14.842   5.464   1.981 -0.4646  0.0045 -0.1838
31291W        W47552  19.121   7.598   2.219 -0.3363  0.0889  0.2907
31292W        W47553  19.076  10.429   1.934 -0.1103 -0.0082  0.1059
31293W        W47554  16.237  13.283   2.810 -0.2068  0.1938 -0.1310
31294W        W47555  12.291   7.376   4.188 -0.0374 -0.0019 -0.0865
31295W        W47556  14.380   9.248   5.155 -0.2679  0.0080  0.0578
31296W        W47557  10.868   3.514  12.134  0.4502 -0.1491 -0.0848
31297W        W47558  15.387   7.558   3.717  0.3047 -0.1695  0.0216
31298W        W47559  14.139  15.776  12.472 -0.0001  0.0641 -0.3006
31299W        W47560   2.277  17.095   3.732  0.0257  0.2295  0.1354
31300W        W47561   0.662  16.007   3.388 -0.2145 -0.0401  0.0363
31301W        W47562   1.229  17.048   5.064 -0.1412  0.1508 -0.1249
31302W        W47563  12.200   9.280   9.233  0.2730  0.2138  0.1209
31303W        W47564   3.481   6.075   4.276  0.2511  0.0397  0.1039
31304W        W47565  17.680   6.179   1.995  0.1429  0.0369 -0.0975
31305W        W47566  17.718   0.825  11.321  0.0936 -0.2692  0.1033
31306W        W47567  10.983   8.761  10.294  0.1626 -0.0991 -0.3438
31307W        W47568  12.907   8.665  12.035 -0.3622  0.2178  0.1056
31308W        W47569   2.461  15.350  12.407 -0.0922  0.2092 -0.2015
31309W        W47570  17.216  16.115   3.214  0.1769 -0.0702  0.0352
31310W        W47571   6.145   8.425  12.447 -0.5037 -0.0393  0.0646
31311W        W47572  16.944   3.919   4.523  0.1392 -0.2684 -0.0130
31312W        W47573   7.235   7.555   9.395  0.0373 -0.0079 -0.1877
31313W        W47574   7.921   5.111  14.709  0.0512 -0.1858 -0.1906
31314W        W47575   3.762  17.718   3.949 -0.2307  0.1099 -0.0116
31315W        W47576   9.281   3.473  12.708 -0.2125  0.2008 -0.0053
31316W        W47577   4.200  12.340   0.941 -0.1499 -0.1919  0.0251
31317W        W47578   8.904  13.756  13.473  0.0533  0.1523  0.0618
31318W        W47579  11.844   0.201  10.344  0.0882  0.3912 -0.0024
31319W        W47580   1.829  11.613   1.416  0.3477 -0.0090  0.1221
31320W        W47581   2.521   0.602   2.815 -0.1699 -0.0686  0.1897
31321W        W47582  15.343  15.259   2.456 -0.0209 -0.3794  0.1577
31322W        W47583   8.166  15.367   9.642 -0.0529 -0.0410 -0.0730
31323W        W47584  13.053  13.610   0.490 -0.1126  0.1103 -0.4236
31324W        W47585  15.510  17.814  13.153  0.0554  0.0738  0.2678
31325W        W47586  17.501  19.019  12.731 -0.0188 -0.2150  0.0441
31326W        W47587   0.519  18.109   3.600 -0.1945  0.3633  0.2988
31327W        W47588   8.587  12.173  10.704 -0.1017 -0.1094 -0.2602
31328W        W47589  18.852   9.283   1.389 -0.0190 -0.3959 -0.2113
31329W        W47590   9.434  19.024   1.316  0.4740  0.1701  0.1358
31330W        W47591  17.278   2.122   2.166  0.2181  0.0066 -0.0064
31331W        W47592  19.307   1.730  11.677  0.1086  0.0998  0.1805
31332W        W47593  12.805   4.055   1.254  0.2995  0.0413 -0.1832
31333W        W47594  18.784   4.094  12.455 -0.1132 -0.1759 -0.0434
31334W        W47595   7.357  17.913  11.157  0.0378  0.4406  0.2177
31335W        W47596  15.837   0.374  13.540 -0.0447  0.1935 -0.2884
31336W        W47597  10.358   0.291   2.157 -0.1251  0.0475 -0.1559
31337W        W47598  14.090  11.075   4.087 -0.1624 -0.0499 -0.0754
31338W        W47599   3.566  10.463   0.861 -0.1342 -0.0279 -0.0385
31339W        W47600  14.585   4.170   1.857 -0.0639  0.1873 -0.4304
31340W        W47601   2.340   7.757   3.591 -0.0961 -0.2638 -0.3775
31341W        W47602   3.604   9.478  11.032 -0.2196  0.2654 -0.0148
31342W        W47603  10.006  11.918   1.115 -0.0598  0.6045 -0.0542
31343W        W47604  13.958   2.256  12.245  0.2117  0.1263 -0.0541
31344W        W47605   9.930  18.849   1.465  0.0572 -0.0168 -0.0501
31345W        W47606   1.874   1.233   4.354 -0.1266  0.0999 -0.2203
31346W        W47607  13.248  11.703   4.162 -0.3076  0.1188 -0.1863
31347W        W47608   6.021   7.291   3.630  0.0601  0.0043  0.1647
31348W        W47609  17.276   1.515   1.719  0.2220 -0.2529  0.0052
31349W        W47610  16.757  12.202   0.149  0.0070 -0.0000  0.2081
31350W        W47611  13.759   9.280   2.987 -0.3697  0.0491 -0.0266
31351W        W47612   7.092  13.631   4.968  0.0914 -0.3340 -0.2843
31352W        W47613   0.598   1.112   4.500  0.3077  0.2063 -0.1705
31353W        W47614  15.713  11.960   4.674 -0.0179  0.0342 -0.0207
31354W        W47615   3.007   6.937   4.361  0.0460 -0.2004  0.0058
31355W        W47616   6.528  17.273  12.619 -0.0408  0.0035  0.1865
31356W        W47617  10.221   2.962   3.482 -0.0555 -0.1062 -0.0629
31357W        W47618  14.103   9.540   1.198  0.3257  0.1609  0.2745
31358W        W47619  18.751  17.516   4.148  0.1250 -0.1084 -0.0322
31359W        W47620  17.989   1.184   1.271 -0.0129 -0.0125 -0.1865
31360W        W47621   9.701  13.273   4.688  0.1530 -0.2336  0.1180
31361W        W47622  10.496  13.715   2.022  0.2129  0.0771  0.3678
31362W        W47623   8.911   5.366   2.623 -0.1383 -0.0834  0.0750
31363W        W47624   0.761   8.893  13.080  0.0229 -0.2330  0.0714
31364W        W47625   7.558   8.443   3.234 -0.0258 -0.1846  0.4120
31365W        W47626  11.429   0.395   4.708 -0.3177  0.0123 -0.1345
31366W        W47627  19.425   5.710   4.270 -0.1517 -0.0442  0.1448
31367W        W47628  17.302  18.130  10.710  0.2286 -0.1638  0.1846
31368W        W47629   6.167  18.479  13.665 -0.0669 -0.4091  0.1021
31369W        W47630  15.060  16.381   1.352 -0.1509  0.1966 -0.0621
31370W        W47631   6.029  16.442   0.624  0.0621 -0.1451  0.0920
31371W        W47632   3.997   8.799   5.182  0.0829  0.1502 -0.0772
31372W        W47633   2.470   6.402  10.771 -0.1827 -0.3932  0.0060
31373W        W47634  14.255   1.981  11.779 -0.0175 -0.1951  0.1318
31374W        W47635   8.194   8.940  13.965  0.2600 -0.2194 -0.1914
31375W        W47636  10.082  18.696  11.989  0.0173  0.2681  0.1947
31376W        W47637   0.990   7.034  10.515 -0.1402  0.0777  0.0326
31377W        W47638  16.119   5.133   4.490 -0.1210  0.2720 -0.2095
31378W        W47639   9.205   6.496  10.868  0.1490  0.0545  0.0298
31379W        W47640  19.166  12.535  12.091 -0.1053 -0.2365  0.2003
31380W        W47641  13.620  18.075   3.241  0.2917  0.0496 -0.1880
31381W        W47642   0.784   0.594  13.029  0.1824  0.0858 -0.3147
31382W        W47643   0.521   4.115  10.540 -0.0061 -0.0257 -0.1094
31383W        W47644   0.234  11.639   1.785 -0.0463 -0.0428 -0.4353
31384W        W47645  16.680  14.651   3.457  0.0365 -0.0971 -0.0237
31385W        W47646   2.448  17.736  12.201  0.1758  0.1505  0.0610
31386W        W47647   1.720  15.146  12.862 -0.1768  0.1810 -0.0671
31387W        W47648   2.717   2.084  13.268 -0.1187  0.3047  0.1198
31388W        W47649  17.486  17.031   2.025  0.1006 -0.2099  0.0399
31389W        W47650   5.468   7.240   0.904  0.3901 -0.0249  0.0410
31390W        W47651   4.329  14.934  13.713 -0.0629 -0.0322 -0.0750
31391W        W47652  16.073   3.058  11.681  0.0824 -0.3390  0.1396
31392W        W47653   4.850  11.220  11.168 -0.0068 -0.0135 -0.1355
31393W        W47654   5.015   8.928   1.402  0.0951  0.0721  0.1008
31394W        W47655  18.199   2.514   3.651 -0.1378  0.1240 -0.1319
31395W        W47656  15.950  11.063   1.419  0.1777  0.0116  0.3184
31396W        W47657   3.951  14.476  12.861  0.0021  0.1402  0.3771
31397W        W47658  14.192   7.135   0.813  0.0653 -0.2014 -0.2835
31398W        W47659   3.250  14.855  11.628 -0.2456 -0.1564  0.2490
31399W        W47660  16.602   5.825   4.440 -0.1911 -0.0385  0.4547
31400W        W47661  16.348  10.374   9.300 -0.0168  0.0240  0.3964
31401W        W47662   7.149   6.503   3.538  0.1709  0.0039  0.2056
31402W        W47663  12.767  18.805   4.580  0.0469  0.0083  0.0752
31403W        W47664   9.741  14.998   5.251 -0.0646 -0.0616  0.0738
31404W        W47665  15.695   8.647   4.944 -0.1794  0.1327 -0.2697
31405W        W47666   5.216  11.815  13.237  0.0563  0.2460 -0.0469
31406W        W47667   8.302  19.388  12.475 -0.1092 -0.0159  0.0894
31407W        W47668   5.741  10.546  12.084  0.0327  0.0520 -0.0008
31408W        W47669  15.568  10.857  11.061 -0.0253  0.2963  0.3722
31409W        W47670  19.223   5.287  10.772 -0.3792 -0.2831 -0.2507
31410W        W47671  16.382   7.598  11.405  0.2456  0.4880 -0.0292
31411W        W47672   4.952   9.840  10.207  0.0610 -0.0847 -0.1146
31412W        W47673   2.154   3.963  14.011  0.2750 -0.0330 -0.3199
31413W        W47674  14.658   9.513   3.419  0.4010 -0.1678 -0.0781
31414W        W47675   7.737   8.725  10.890  0.0048  0.2233 -0.0209
31415W        W47676   7.273  12.006  11.741  0.0091  0.0584  0.1792
31416W        W47677   2.216  13.171  11.968  0.1161  0.0839 -0.1398
31417W        W47678   9.833  18.697   9.922 -0.1021 -0.1693 -0.0833
31418W        W47679   6.016   8.378   3.209  0.0794 -0.1387 -0.1619
31419W        W47680   0.265  16.323  11.139 -0.3471  0.0285  0.0258
31420W        W47681   1.767  11.167   9.652 -0.0356 -0.1637  0.3480
31421W        W47682  13.610  17.152  12.711  0.1094 -0.1444  0.1011
31422W        W47683   8.060  11.267  12.735  0.1803 -0.0423 -0.0174
31423W        W47684   8.187  13.488  10.579  0.0545  0.2944 -0.4405
31424W        W47685   6.109   0.487  10.625  0.4711  0.0587 -0.2651
31425W        W47686  13.371   2.742  11.231 -0.3082 -0.1308  0.3942
31426W        W47687  11.830   2.239   0.828  0.0381  0.3565 -0.3242
31427W        W47688   5.089   9.599  13.351  0.1283 -0.1823 -0.1651
31428W        W47689   7.154  11.952   4.484 -0.4377  0.1445 -0.2823
31429W        W47690   2.974  16.235   1.677 -0.0746  0.1307  0.0498
31430W        W47691  15.847   6.755   0.443 -0.1587  0.2236  0.3317
31431W        W47692   6.872   4.226  12.102  0.4814  0.4278 -0.3541
31432W        W47693   8.202  12.158  11.982 -0.3030  0.1254  0.4397
31433W        W47694   3.076  11.503   4.835 -0.0288  0.2185  0.1277
31434W        W47695   5.127  15.830  13.190  0.0420  0.2708 -0.2459
31435W        W47696   3.739  18.158   2.947  0.2508  0.0593 -0.4658
31436W        W47697   2.838  13.601  14.215  0.1651 -0.1733 -0.1809
31437W        W47698  16.680   4.403   2.004  0.3219  0.1611 -0.1608
31438W        W47699   0.033   7.234   0.342 -0.1500  0.1626  0.0292
31439W        W47700   3.952   6.549  11.174 -0.1590  0.0548 -0.1029
31440W        W47701  11.535  18.892  11.055 -0.2690 -0.2261  0.2522
31441W        W47702   9.031  18.850   3.091  0.2826 -0.0164 -0.3132
31442W        W47703   6.551   8.988  11.763 -0.0152  0.2176 -0.2242
31443W        W47704  16.398   4.041   4.388 -0.1860 -0.1584  0.2957
31444W        W47705  18.353   2.248  11.519  0.1453 -0.1095  0.4168
31445W        W47706   5.839  12.645  10.630 -0.2085  0.1521 -0.2359
31446W        W47707   5.394  14.321   5.815  0.2396 -0.1582  0.1426
31447W        W47708   0.897  15.785   1.139 -0.0856 -0.1083  0.1029
31448W        W47709   1.526   7.247  11.150  0.4887 -0.1711 -0.0807
31449W        W47710  11.022  14.614  13.367  0.2746 -0.1041 -0.3692
31450W        W47711   7.258  11.490   4.777 -0.1393  0.1614  0.0437
31451W        W47712  18.108   9.495  11.342 -0.3596 -0.3445 -0.0287
31452W        W47713  15.913  16.637   3.305  0.0212  0.2364  0.4477
31453W        W47714  10.095  17.787  13.961 -0.0300 -0.2983 -0.0498
31454W        W47715   4.619  19.456  13.019  0.1880 -0.1871  0.0305
31455W        W47716  12.264  11.641  10.816 -0.0679 -0.4489 -0.3458
31456W        W47717  18.368   1.674  14.438 -0.0764 -0.0112 -0.2082
31457W        W47718   0.986  12.564   2.082  0.1498 -0.0273 -0.0972
31458W        W47719  14.267  10.980   0.465 -0.0707  0.2339 -0.2056
31459W        W47720   3.253   4.800  10.165  0.2337 -0.0576  0.1985
31460W        W47721  17.733   8.684   2.506 -0.2452  0.1455 -0.0582
31461W        W47722  14.704  16.759  11.587  0.0656 -0.1357 -0.1229
31462W        W47723   8.852  16.847   3.852  0.0408 -0.0939  0.0956
31463W        W47724   5.464  12.124  11.383 -0.0108 -0.1564 -0.0898
31464W        W47725  14.599  14.611   1.569 -0.0664  0.0941  0.5660
31465W        W47726  16.252  16.209  14.595  0.1116  0.0755 -0.8297
31466W        W47727   0.396  17.546   4.647 -0.1418  0.3453 -0.0113
31467W        W47728  15.785  15.702  11.323  0.1052 -0.0307  0.4433
31468W        W47729   6.789   1.793  13.359 -0.1522  0.0666  0.0184
31469W        W47730  16.504  14.116   0.769  0.1537  0.1687 -0.0712
31470W        W47731  17.226   6.406   1.953 -0.0353 -0.1947  0.0198
31471W        W47732  15.143   1.674  11.575  0.1031 -0.1526 -0.2233
31472W        W47733  15.878  17.155   2.703  0.1744 -0.1679  0.3711
31473W        W47734  15.624  12.815   1.399 -0.0664 -0.1794  0.0382
31474W        W47735   9.274  17.167   5.323 -0.0550 -0.2360 -0.2877
31475W        W47736   9.322  10.962  14.272  0.3811 -0.0933  0.1042
31476W        W47737   1.746   3.964   2.008 -0.0410 -0.1886 -0.2502
31477W        W47738   3.817  12.564   1.172 -0.1485  0.3359  0.1607
31478W        W47739  11.488   6.847   3.118  0.1939  0.0523  0.4412
31479W        W47740   7.474   7.178   1.903  0.1827 -0.0779  0.0708
31480W        W47741   2.905   3.067  12.075 -0.0422 -0.0753  0.1402
31481W        W47742  18.841  17.892  14.174  0.3001  0.0131 -0.0156
31482W        W47743   7.034   9.628   1.034  0.0883  0.5557  0.0358
31483W        W47744   0.199   5.950   1.171 -0.2390 -0.1861 -0.0512
31484W        W47745  14.908  19.310   2.890 -0.2536  0.0538  0.3687
31485W        W47746  17.936   3.747   0.306  0.0915  0.0507 -0.0171
31486W        W47747   0.646   3.196  14.166  0.3450  0.0830 -0.0762
31487W        W47748  12.107  17.190   1.741 -0.2000 -0.0374  0.1684
31488W        W47749   0.637  13.580  10.601  0.1853 -0.0301 -0.1973
31489W        W47750   0.614  12.346  14.496 -0.0375  0.1199  0.1189
31490W        W47751   0.717   5.642   2.319  0.0713 -0.0543 -0.0344
31491W        W47752   7.266  15.625   4.917  0.2038  0.1046 -0.0101
31492W        W47753   2.042   0.146  13.548  0.4578  0.1118 -0.2822
31493W        W47754   8.963  14.106   3.083  0.1829 -0.1405  0.0644
31494W        W47755  15.514  12.509   4.130 -0.1694 -0.1988  0.0726
31495W        W47756  10.761   7.912   2.928 -0.0173 -0.0880  0.1144
31496W        W47757   5.589  11.771  14.625 -0.2742 -0.1095  0.2715
31497W        W47758  10.595  17.590   2.011  0.0810  0.2784  0.4612
31498W        W47759  11.663   1.914  14.214 -0.1450  0.1014 -0.2892
31499W        W47760  10.652   7.944   0.779 -0.3607 -0.1697  0.0415
31500W        W47761  12.296   8.074  12.775 -0.1109  0.2613 -0.2457
31501W        W47762   6.435   4.468   0.995  0.1660 -0.1441  0.1772
31502W        W47763   7.653  14.943  14.588  0.1157 -0.3499 -0.2289
31503W        W47764  14.301  16.061  14.438 -0.1080 -0.4965 -0.1337
31504W        W47765  17.648  12.022   4.242 -0.0342 -0.0410  0.1247
31505W        W47766  15.373   6.937   1.114 -0.2121  0.1085  0.0740
31506W        W47767   8.522   1.847   4.249  0.0998  0.1038  0.0833
31507W        W47768   0.034   6.443  11.635 -0.0753  0.4711 -0.2091
31508W        W47769   6.393  11.692   1.544  0.0285  0.0733  0.0115
31509W        W47770  11.667   2.693   1.842  0.4643  0.2995  0.2218
31510W        W47771  13.256  13.177   4.152  0.0294 -0.0458  0.0350
31511W        W47772   4.916   1.154  11.436  0.3617 -0.0500 -0.0328
31512W        W47773  17.938  17.035   0.768  0.0005 -0.0155  0.1062
31513W        W47774   4.157   2.754   3.254  0.1553  0.1855  0.0218
31514W        W47775   9.634   0.528   0.230 -0.2409 -0.4909 -0.1651
31515W        W47776  10.360   1.705  11.361  0.1843  0.1588  0.1972
31516W        W47777  17.932  13.114  12.713 -0.0167 -0.0227 -0.0944
31517W        W47778  10.637  16.690  11.400 -0.2322  0.2297 -0.1039
31518W        W47779  11.141  10.430   0.978 -0.1523 -0.1840  0.1258
31519W        W47780   2.610   6.871  12.149  0.2736 -0.0184 -0.0095
31520W        W47781  14.749   6.931   9.912  0.1689  0.1949  0.1608
31521W        W47782  17.857  15.580  12.968  0.3058 -0.2180 -0.1966
31522W        W47783   7.129   3.054  13.877  0.0879  0.1324 -0.0801
31523W        W47784   7.024  11.935   5.474  0.0133  0.0944 -0.0570
31524W        W47785   9.600   6.101   4.117 -0.1397 -0.1646 -0.1909
31525W        W47786   2.281   0.050   0.620 -0.2569  0.1641  0.2873
31526W        W47787   9.449  17.424   0.591 -0.4570 -0.4152 -0.0717
31527W        W47788   1.018   8.345   0.422  0.0338  0.3815  0.0949
31528W        W47789  12.650  12.288   4.267 -0.1061  0.1147 -0.4355
31529W        W47790  16.567  19.118   0.556  0.4260  0.0615  0.0898
31530W        W47791   5.545  13.900   1.623 -0.0793 -0.1115  0.0803
31531W        W47792  16.169   6.079   4.052  0.5219  0.1745 -0.0613
31532W        W47793   7.327  18.021  12.165  0.2340  0.1217  0.2513
31533W        W47794  16.040   1.673   0.631  0.0190 -0.0309  0.0093
31534W        W47795   5.308  13.443   1.715  0.0839 -0.1198 -0.1981
31535W        W47796  16.407  13.329  14.791  0.0236 -0.0215  0.2787
31536W        W47797   0.974  11.878  11.764 -0.1129  0.2202  0.1197
31537W        W47798   8.247   3.522  12.356  0.2155  0.0567  0.1331
31538W        W47799   3.498   4.821  11.336  0.1036 -0.0265 -0.2333
31539W        W47800   8.897   0.161  14.254  0.0017  0.3248 -0.0862
31540W        W47801  12.793  12.414  10.534 -0.5582  0.1657 -0.2292
31541W        W47802   5.347   5.609   3.633  0.1751 -0.0657  0.3850
31542W        W47803  11.154   6.793  10.270 -0.0267 -0.0911 -0.0541
31543W        W47804   0.851   1.329   1.312  0.0275  0.3111  0.1291
31544W        W47805  18.134   9.165   4.831 -0.1646 -0.0835  0.0643
31545W        W47806   3.106  16.643   3.923 -0.2359 -0.0781 -0.4987
31546W        W47807   3.135  18.341  14.513 -0.1762 -0.2513 -0.1986
31547W        W47808  10.608   9.761  13.418  0.1860 -0.0908 -0.1718
31548W        W47809   8.815   6.229   0.695  0.0370  0.1351  0.0187
31549W        W47810   3.327  18.628   9.175  0.0840 -0.0961 -0.0628
31550W        W47811   9.749   5.760   1.385 -0.0044  0.1659  0.0036
31551W        W47812  13.722  15.703  14.258  0.0417  0.1440  0.1612
31552W        W47813   5.237   6.682  10.360 -0.1370  0.1217  0.2614
31553W        W47814   2.401  12.916   2.495 -0.3590  0.0470 -0.0451
31554W        W47815  17.023   6.460  10.632 -0.3161 -0.3414  0.0840
31555W        W47816  15.840   9.073   3.770 -0.1081 -0.0536  0.0960
31556W        W47817   0.527   3.145  13.683 -0.1625  0.3184  0.1442
31557W        W47818  17.547  11.028  10.310  0.0157 -0.3591 -0.0005
31558W        W47819  15.385   5.571  14.368  0.0319  0.1589  0.1497
31559W        W47820   7.384  16.266   5.643 -0.1327 -0.1863  0.0355
31560W        W47821  14.748   7.656   9.852 -0.1006  0.2130  0.0848
31561W        W47822  12.621  16.347  12.340 -0.3061 -0.0214 -0.0312
31562W        W47823   3.555   2.806  11.355 -0.1525  0.1589  0.3901
31563W        W47824   6.331  11.210   3.836  0.0059  0.0181  0.0007
31564W        W47825   8.386   0.569  11.153  0.0931 -0.2453 -0.1743
31565W        W47826   8.797   0.420  13.841 -0.1213  0.0284 -0.2074
31566W        W47827   3.816  11.003   2.306  0.2565 -0.0371  0.4178
31567W        W47828   8.187   5.345   0.778 -0.2798 -0.0905 -0.1324
31568W        W47829  18.276   3.639   4.321 -0.0165 -0.2007 -0.1291
31569W        W47830   9.165   8.622  13.886 -0.1661  0.6168 -0.2445
31570W        W47831   2.876   5.271   3.828 -0.0010 -0.1019  0.2220
31571W        W47832   4.473   1.190  12.185 -0.0066  0.1295  0.2146
31572W        W47833   5.100   1.892   3.028 -0.3317 -0.0004 -0.1247
31573W        W47834   2.270   7.241   3.560  0.1616 -0.1945 -0.2120
31574W        W47835  13.377   8.590  10.717 -0.0590  0.2410  0.0472
31575W        W47836  10.989   3.208  13.157  0.2427 -0.3532 -0.1214
31576W        W47837  13.710   4.088  14.484  0.2173  0.1316 -0.3920
31577W        W47838   9.743   8.680   4.025  0.2126  0.4010  0.1502
31578W        W47839   3.720   7.100   1.694  0.1857  0.3293 -0.0122
31579W        W47840   4.864   3.664  14.010 -0.3224  0.1307  0.0449
31580W        W47841  14.293  19.281   2.389 -0.2335  0.0898  0.2025
31581W        W47842  16.987  10.888   3.773 -0.2970 -0.0158 -0.3395
31582W        W47843  17.273  13.507  11.898  0.2400  0.0971  0.0177
31583W        W47844  18.092  18.886  11.295  0.1281  0.0094  0.1932
31584W        W47845  10.525  17.048  14.272  0.0779 -0.0526 -0.1262
31585W        W47846   7.912   2.273  14.503 -0.0501 -0.1688 -0.0023
31586W        W47847  18.711   2.002  12.013  0.1854 -0.0604  0.2166
31587W        W47848  18.070   2.393  12.610  0.1417  0.2343 -0.1122
31588W        W47849   0.200   6.696  12.155  0.0524  0.1858 -0.0972
31589W        W47850   5.601   8.684   3.281  0.5405 -0.1230 -0.1856
31590W        W47851   7.789   0.180   2.462 -0.1756 -0.4884 -0.1501
31591W        W47852   3.691  12.792  11.190  0.2304  0.0511  0.1610
31592W        W47853   0.036  16.623   5.228  0.1783  0.0756  0.0280
31593W        W47854   2.599   7.755   2.365  0.1676 -0.0524  0.0782
31594W        W47855  10.191   9.639   2.521  0.0783  0.3196 -0.0007
31595W        W47856   8.118  10.885  13.048 -0.2423 -0.1856  0.0932
31596W        W47857   5.351   6.778   4.652  0.3131 -0.2154  0.4959
31597W        W47858   2.278  13.508  12.997  0.0447 -0.3187 -0.2036
31598W        W47859  11.989  15.637  14.387  0.0113  0.2264  0.0806
31599W        W47860   9.972   8.291  11.444  0.2635  0.2618 -0.0388
31600W        W47861  19.232   6.454  12.147  0.3305  0.1976 -0.3555
31601W        W47862  10.636  18.052  14.156 -0.2713 -0.2342  0.1882
31602W        W47863  11.557   3.382   3.030 -0.0166 -0.0218 -0.2452
31603W        W47864  11.422   4.385   1.615  0.0633  0.5757  0.1502
31604W        W47865  14.162   2.371  13.541 -0.1179 -0.2251  0.4373
31605W        W47866   8.738   0.699   1.307  0.1534 -0.2436  0.4420
31606W        W47867  18.244  18.450  13.853  0.0167 -0.1954 -0.3006
31607W        W47868  15.870  16.319   4.384 -0.1202  0.2827 -0.2524
31608W        W47869   3.261   1.192   2.842 -0.0460 -0.6088 -0.0148
31609W        W47870   6.815  14.076   1.942  0.0436 -0.1039  0.1438
31610W        W47871   7.575  11.314   2.410  0.2407  0.1875  0.2100
31611W        W47872  11.359   3.170  13.603  0.1514  0.1949  0.1759
31612W        W47873  15.359   4.570  10.414 -0.1841  0.2698  0.2262
31613W        W47874   5.324  11.905   1.427  0.3826  0.0566  0.1547
31614W        W47875  18.380   1.572   4.171  0.1021 -0.1037  0.2296
31615W        W47876   3.321   1.192  11.154 -0.0897 -0.1302 -0.3212
31616W        W47877   8.353  12.006   0.741  0.0548  0.4292 -0.1602
31617W        W47878  17.180  12.409   0.348 -0.0006  0.1071 -0.2085
31618W        W47879  16.727  10.370  11.921  0.3238 -0.0665 -0.3209
31619W        W47880   7.921  16.321  12.377  0.1345  0.1898 -0.0330
31620W        W47881  10.522   9.128  14.349 -0.0288  0.0966  0.2097
31621W        W47882  10.499   6.309  11.521  0.2213  0.1521  0.1188
31622W        W47883   7.867  12.440   3.832  0.1470 -0.1642 -0.0613
31623W        W47884  11.238   7.044  10.819  0.1931  0.0381  0.3202
31624W        W47885   3.894  18.804  10.762  0.1374 -0.1755  0.0928
31625W        W47886  16.509  16.272   2.624  0.1364 -0.0599  0.0488
31626W        W47887  19.197   2.574  12.341 -0.1544 -0.0111  0.0936
31627W        W47888   1.763   1.335  14.309  0.2115 -0.0872 -0.2047
31628W        W47889  19.027   6.966  11.355 -0.2193 -0.1652 -0.1062
31629W        W47890   2.148   3.640  11.826 -0.1143 -0.0373  0.2635
31630W        W47891   6.419  18.153   0.432 -0.0999 -0.0400 -0.0277
31631W        W47892  10.372  12.341  13.572  0.2466 -0.0246 -0.2763
31632W        W47893   4.152  16.078  13.114 -0.1617 -0.0820  0.1954
31633W        W47894  14.394   7.566   0.649 -0.1256 -0.3203 -0.3031
31634W        W47895   1.484   0.325  13.716 -0.0802 -0.0076  0.0561
31635W        W47896   3.880  16.448  13.323  0.0315 -0.2546 -0.1553
31636W        W47897   0.052   9.072  11.247 -0.2679 -0.1271  0.2376
31637W        W47898  16.938  10.645   2.790  0.2477  0.2164  0.1929
31638W        W47899   6.224  16.036  14.646  0.1284  0.1286 -0.0579
31639W        W47900   9.764  18.527   0.148 -0.2576 -0.1977 -0.0526
31640W        W47901   5.537  15.609   0.995 -0.0168 -0.1054  0.1032
31641W        W47902  15.914  18.393  10.931  0.2048 -0.0094  0.0242
31642W        W47903   3.927  16.254  11.478 -0.2209 -0.0332 -0.2716
31643W        W47904  18.752  18.980  12.456 -0.1235 -0.1312  0.2094
31644W        W47905   5.781  16.663  12.377  0.1184 -0.0590 -0.0703
31645W        W47906   8.134  14.792  14.496  0.3041  0.0250  0.0802
31646W        W47907  14.236  11.976   0.422 -0.1489 -0.2297  0.1837
31647W        W47908  12.041  12.216   4.985 -0.0665 -0.2520  0.0871
31648W        W47909  11.392  16.811   4.277 -0.1068  0.1419 -0.1520
31649W        W47910  12.033   2.726   3.174  0.2425  0.0675 -0.0235
31650W        W47911  12.485   6.456   3.367  0.1342  0.2626  0.1052
31651W        W47912  16.779   5.169  13.997 -0.3268 -0.2386 -0.0107
31652W        W47913   9.624  11.552  10.869 -0.0658 -0.0790 -0.5595
31653W        W47914   8.665  11.471   4.314 -0.1120 -0.2469  0.1970
31654W        W47915   4.563  10.779  14.253 -0.1570 -0.3332  0.0270
31655W        W47916   6.895   7.568  10.629  0.3220  0.2394 -0.1673
31656W        W47917  14.355   5.141   0.598 -0.0131  0.2162  0.0523
31657W        W47918  15.939   2.351   4.860 -0.1591  0.0464 -0.2201
31658W        W47919  13.277  18.145   5.329 -0.0656  0.0856  0.4255
31659W        W47920  15.764   3.976  11.974 -0.0448 -0.1341 -0.0029
31660W        W47921  13.796  11.431   4.554  0.1366 -0.0363 -0.0099
31661W        W47922   0.182   7.631   5.095  0.0471  0.2284 -0.1004
31662W        W47923  17.176   0.509   0.061  0.0883 -0.0610  0.0211
31663W        W47924   6.342   3.544  11.885 -0.1006  0.2755 -0.3773
31664W        W47925  12.460   6.188  14.511 -0.2585 -0.1590  0.1515
31665W        W47926  18.012  10.052   1.913 -0.1346 -0.0221 -0.0264
31666W        W47927  13.804   1.299   4.742  0.2613  0.0382 -0.2800
31667W        W47928   0.384   7.993   1.294 -0.0023 -0.3545 -0.2238
31668W        W47929  10.656  19.275  14.424 -0.0996 -0.3584  0.0129
31669W        W47930   8.214  11.719   0.236 -0.1127 -0.0015  0.1682
31670W        W47931  10.171  11.911   1.826 -0.1183  0.1114 -0.0677
31671W        W47932  11.081   4.365  13.842 -0.2671 -0.3798  0.0502
31672W        W47933   1.653   2.606   2.432  0.0438 -0.0197 -0.1603
31673W        W47934   1.795  16.343  11.496 -0.1128 -0.2850  0.1748
31674W        W47935   8.477   6.955   4.425 -0.0013  0.0179  0.0558
31675W        W47936  15.239   1.922   3.435  0.1549 -0.0457 -0.0277
31676W        W47937   2.959   4.450  13.858 -0.1274 -0.0492 -0.1149
31677W        W47938   7.674   7.635  12.959  0.0042 -0.0357  0.1322
31678W        W47939   2.108   0.358  12.921 -0.2433  0.1212 -0.1539
31679W        W47940   0.832   9.667   0.226  0.0398  0.1209  0.2255
31680W        W47941  17.497   7.756   1.293 -0.2696  0.2362 -0.1500
31681W        W47942   4.746   0.766  12.508 -0.0786  0.0238  0.2881
31682W        W47943   3.272  16.417   0.271  0.2974  0.1077 -0.3044
31683W        W47944  10.060  15.128  11.682  0.0048  0.0845 -0.4723
31684W        W47945  14.215  12.671  13.348  0.0411  0.0262  0.3774
31685W        W47946  17.565   9.912  12.765 -0.0990 -0.2286  0.0085
31686W        W47947  12.564  15.533   1.585  0.2392 -0.3405  0.1468
31687W        W47948  18.175  14.347   1.486 -0.1096  0.2655  0.1333
31688W        W47949   5.255   4.933   4.368  0.1932  0.0378 -0.0948
31689W        W47950   5.373  14.147   0.054  0.0159 -0.0645 -0.0768
31690W        W47951   8.191   2.964   4.342  0.1351 -0.2666  0.0673
31691W        W47952   3.063  16.367  11.900 -0.0755 -0.1740  0.1330
31692W        W47953  17.031   1.764   3.940  0.0159  0.0681  0.1564
31693W        W47954  11.859  19.390  13.068  0.1111 -0.2781  0.0542
31694W        W47955   1.300   8.397   2.363  0.2160 -0.0672  0.1881
31695W        W47956  14.075   6.510  12.029  0.0897 -0.1566 -0.0643
31696W        W47957  12.437  18.187   4.073 -0.0733  0.0949  0.0475
31697W        W47958   8.616   5.304  10.339 -0.1121 -0.3269 -0.0206
31698W        W47959  18.104  15.328   1.034 -0.0570 -0.0602  0.2831
31699W        W47960  14.060   7.990  12.742  0.0193  0.1236 -0.2857
31700W        W47961  15.973   3.384  13.683 -0.1670 -0.0126  0.1300
31701W        W47962  13.513   4.449  13.053  0.1459  0.2243  0.0532
31702W        W47963  12.426   5.252   2.007 -0.1403  0.1778  0.0127
31703W        W47964  18.595   8.963   4.826  0.0901  0.1566  0.0677
31704W        W47965  19.090  17.357  14.316  0.0504  0.1660  0.2433
31705W        W47966   3.793  17.574  11.302 -0.1484  0.0317  0.3211
31706W        W47967   6.178   5.273   4.128  0.1340  0.2998  0.1639
31707W        W47968  15.220  13.597   2.657 -0.1233  0.2288 -0.0345
31708W        W47969  13.882  19.368  12.780  0.0253  0.4297  0.0835
31709W        W47970  17.816  14.052   4.658 -0.0111  0.2741  0.1440
31710W        W47971   4.217   6.223   3.207 -0.0673 -0.0924  0.1060
31711W        W47972  13.130   0.698   4.821 -0.0645 -0.0229  0.0039
31712W        W47973   2.461   8.499  13.101 -0.0687 -0.1375  0.1600
31713W        W47974   8.923   9.891  10.379 -0.0412  0.3888  0.0169
31714W        W47975   1.072   0.997  11.010 -0.0439 -0.1368  0.3045
31715W        W47976   0.785  11.531   4.148 -0.1337  0.0077 -0.0800
31716W        W47977  10.869  17.353  12.956 -0.2834 -0.1919  0.1710
31717W        W47978  13.764  15.915  11.882  0.1041 -0.1090  0.1860
31718W        W47979   5.685   4.776  11.332  0.2647 -0.0185  0.0468
31719W        W47980  17.705   6.425   9.836  0.0421 -0.2791  0.0509
31720W        W47981  13.620  13.571   2.002 -0.1299  0.1639 -0.1520
31721W        W47982  10.434   0.982   5.471 -0.0891  0.2019  0.1923
31722W        W47983  12.078   9.593   1.105  0.0357 -0.1098 -0.0407
31723W        W47984   3.541  15.101  12.007 -0.1699 -0.1120 -0.0749
31724W        W47985  10.544   5.772  14.302  0.1007  0.0476 -0.0938
31725W        W47986   3.018   1.233   3.589  0.1123  0.2242 -0.0960
31726W        W47987  10.756   8.589  11.121  0.0172  0.1715  0.0592
31727W        W47988   1.997  13.514   0.262  0.0393 -0.0709 -0.0401
31728W        W47989  18.558  16.421   4.071  0.2058  0.0708  0.2964
31729W        W47990   2.107  13.524   4.319 -0.0096  0.1680 -0.0404
31730W        W47991  14.926   9.930   1.429  0.2388  0.2570 -0.0975
31731W        W47992  11.597   3.102  12.072 -0.1101  0.0411 -0.1500
31732W        W47993   2.702   1.546   1.068  0.0903 -0.1517  0.0873
31733W        W47994   5.539   6.424   3.018 -0.2630  0.2874 -0.0105
31734W        W47995  10.451  17.637   0.891  0.0766  0.0732  0.4059
31735W        W47996  16.588   3.068   3.403  0.2305 -0.1940 -0.0149
31736W        W47997  16.142  15.777  12.900  0.3108 -0.1985 -0.2362
31737W        W47998   5.485   7.304   9.717  0.0910  0.3339 -0.2308
31738W        W47999   6.248   5.207   0.409  0.0866  0.1373  0.2551
31739W        W48000  13.946  19.074  11.643 -0.0284 -0.2917  0.0638
31740W        W48001   0.313  17.469  13.956  0.1779  0.0443 -0.1100
31741W        W48002   2.114   7.025  11.897  0.0351 -0.1605  0.0338
31742W        W48003  13.356  15.658   1.091 -0.0802 -0.0059  0.1993
31743W        W48004   6.820  15.729   4.143  0.4394  0.1767  0.0978
31744W        W48005   9.753   3.318   1.372 -0.0576 -0.1155  0.0592
31745W        W48006  17.673   3.517  10.578 -0.2651 -0.0252 -0.1624
31746W        W48007  19.355  18.368   1.904 -0.2688  0.0131 -0.1258
31747W        W48008  14.157  12.668  14.463  0.0984 -0.0089 -0.2271
31748W        W48009  10.930  17.957   9.557  0.2040 -0.0804  0.0964
31749W        W48010  12.718   9.937  12.217  0.1363 -0.2314 -0.3082
31750W        W48011   9.592  10.595   4.922 -0.1675  0.0454 -0.3305
31751W        W48012   5.998   4.161   3.395 -0.2676  0.0295 -0.1534
31752W        W48013   5.296  14.805   5.205  0.1833  0.2903  0.5270
31753W        W48014   6.027  19.149  10.234 -0.0302  0.1289  0.0971
31754W        W48015   8.821  10.671   2.003 -0.1925 -0.1806 -0.0720
31755W        W48016   6.767   4.399  13.681 -0.1182  0.1260 -0.2194
31756W        W48017  17.543  13.519  12.793  0.1212 -0.0962  0.0577
31757W        W48018   3.661  14.631  11.334 -0.0688 -0.1725 -0.1164
31758W        W48019  10.825   8.383  13.718 -0.0294 -0.0856  0.2790
31759W        W48020  18.270   1.104   2.640 -0.2314 -0.0493  0.2546
31760W        W48021   4.871  17.605  14.206 -0.1522  0.2052  0.0991
31761W        W48022   1.327  15.842   4.839 -0.0629  0.3088 -0.1471
31762W        W48023   3.548   6.809  11.214  0.0532  0.2611 -0.0560
31763W        W48024   5.035  17.557   3.886  0.1981  0.0844  0.1339
31764W        W48025   2.319  16.476   0.678 -0.0142  0.0393  0.2001
31765W        W48026  13.963   3.490   1.940 -0.0120  0.0391  0.0844
31766W        W48027  11.569   0.761  12.658 -0.0320 -0.0764  0.1730
31767W        W48028   8.127  16.766  14.315 -0.1024 -0.1357  0.0022
31768W        W48029   5.196  19.324   4.549 -0.3839 -0.3281  0.3469
31769W        W48030   5.936   7.479   9.752  0.1817  0.2220 -0.3176
31770W        W48031   5.873  16.872  14.728 -0.0777  0.0389  0.2845
31771W        W48032   8.025  11.801   4.907 -0.1684 -0.0774 -0.1228
31772W        W48033   5.563  13.325   0.658 -0.0475  0.1676 -0.0871
31773W        W48034   0.730   3.847   0.658 -0.0833 -0.0955  0.0586
31774W        W48035   7.229  11.197   0.073  0.3939 -0.1562 -0.1260
31775W        W48036   2.841  18.061   0.079  0.1735  0.0044  0.1486
31776W        W48037  14.377  18.301   5.275  0.3189 -0.1455 -0.4148
31777W        W48038   2.140  12.537   4.381  0.1768 -0.0594 -0.0225
31778W        W48039  11.172   2.361  11.762 -0.0277 -0.4300 -0.0179
31779W        W48040  14.947  14.964  10.126  0.0274 -0.1253  0.1440
31780W        W48041  11.866  14.387  13.625 -0.0353 -0.2877  0.0689
31781W        W48042   3.127   1.907   3.920  0.0885  0.1815  0.3282
31782W        W48043   9.046   6.818  12.531  0.0351  0.0306 -0.1134
31783W        W48044  11.620  10.416  14.329 -0.2592 -0.1857 -0.1247
31784W        W48045   3.480   1.535   1.523 -0.1237  0.1199  0.0244
31785W        W48046   6.902   0.010   1.972 -0.2983 -0.2074  0.0302
31786W        W48047  14.181  11.038  10.039  0.0033  0.0641  0.3112
31787W        W48048   8.322  16.104  10.555 -0.1181 -0.0617  0.2785
31788W        W48049  12.144  18.351   4.792  0.1974 -0.3520  0.0708
31789W        W48050   7.277   7.593  13.422 -0.1677  0.3153  0.0533
31790W        W48051  11.231   6.073  13.876  0.3306 -0.0311 -0.2887
31791W        W48052  15.860   7.863  12.683 -0.0840 -0.2471  0.2393
31792W        W48053   0.752   5.773  13.757  0.1575  0.2677 -0.0419
31793W        W48054  17.971   7.528   1.185 -0.1947 -0.0463  0.1411
31794W        W48055  19.206   7.282   3.370 -0.2767  0.1356 -0.1487
31795W        W48056  13.215  13.097   3.246  0.0139  0.1066 -0.0731
31796W        W48057   4.493   9.506  13.405  0.0179 -0.0050  0.2779
31797W        W48058   5.456   1.643   2.774 -0.3002 -0.1982  0.1348
31798W        W48059  12.037   1.475  13.920 -0.0331 -0.3931 -0.2088
31799W        W48060  15.305   5.272   2.806 -0.0458 -0.0320  0.2002
31800W        W48061   0.285  13.899   5.097 -0.0980 -0.3404 -0.1216
31801W        W48062   5.112  12.618   2.504  0.1744  0.3145  0.0865
31802W        W48063  16.597  12.371  13.155  0.1823 -0.2568  0.1378
31803W        W48064   5.737  14.667  12.549  0.0739  0.0460  0.1684
31804W        W48065   5.463   4.198  13.638  0.1186 -0.0072 -0.1832
31805W        W48066   6.777  15.156  14.797 -0.3353  0.0041  0.0877
31806W        W48067  15.041   2.895   0.478 -0.2712  0.0298 -0.1981
31807W        W48068   7.548  18.367  11.349 -0.2816 -0.2405 -0.1410
31808W        W48069  16.246  15.869   9.671  0.0302  0.3809  0.0415
31809W        W48070   2.198   8.537   0.160  0.0730 -0.2376  0.1892
31810W        W48071  16.357   9.177   5.565  0.0904 -0.1818  0.1978
31811W        W48072  18.452  11.158   5.162  0.1864 -0.0543 -0.0374
31812W        W48073   3.620  15.415   5.136 -0.0577  0.2898 -0.2590
31813W        W48074  18.491   4.862  11.265 -0.2366 -0.0791  0.0561
31814W        W48075  18.899   1.673  14.244  0.1094 -0.0993 -0.3015
31815W        W48076   6.985   8.023   0.596 -0.0727  0.0880  0.2407
31816W        W48077  13.092  14.173  13.647 -0.1157  0.2038 -0.1910
31817W        W48078  17.717   6.344   3.034 -0.0628 -0.0094 -0.2680
31818W        W48079   7.239   8.073  13.391 -0.1809  0.3315 -0.0051
31819W        W48080  13.869   2.692   0.815 -0.0269  0.0689 -0.1283
31820W        W48081   1.607   1.715   0.413  0.4303 -0.2767  0.1627
31821W        W48082   7.437  10.963   4.070 -0.1521  0.2178  0.2278
31822W        W48083   4.594   6.075   5.060  0.2760 -0.2638  0.0537
31823W        W48084   3.187   6.489  11.443  0.4939  0.3664 -0.2339
31824W        W48085   0.383   3.438   3.089 -0.2298  0.0537 -0.1213
31825W        W48086  11.838  10.998   5.632  0.2529 -0.5112  0.0060
31826W        W48087   5.062   1.371  10.983 -0.0576  0.1177  0.0037
31827W        W48088  15.726   8.056  13.607  0.1405  0.1964  0.0692
31828W        W48089   3.970  16.981   4.467 -0.0905  0.0134  0.0453
31829W        W48090  10.389   0.590  14.676 -0.1809 -0.0636  0.2501
31830W        W48091   2.714   7.258   0.802  0.2331  0.3391  0.1034
31831W        W48092  15.525   6.683  13.398  0.0167 -0.0568 -0.3174
31832W        W48093  11.111  12.479  12.065  0.3365 -0.1057 -0.1492
31833W        W48094  13.398   1.026   0.468 -0.0637  0.0779 -0.0707
31834W        W48095  10.321  14.874   3.657 -0.0021  0.2374  0.0929
31835W        W48096  14.317  12.944   1.125  0.0582  0.0898 -0.0671
31836W        W48097   2.675   6.879   3.485  0.0124  0.0227  0.4124
31837W        W48098  16.354   6.352   1.429  0.0324  0.0993  0.2004
31838W        W48099   4.627   7.533  13.421  0.0361  0.1953 -0.1185
31839W        W48100  16.863   0.034   2.947  0.0285 -0.0172  0.0585
31840W        W48101  17.135  15.874   1.828 -0.0442 -0.0220 -0.1462
31841W        W48102   0.286  17.195  10.880  0.0647 -0.0435  0.2539
31842W        W48103   3.831   2.845   0.173  0.1129  0.0114 -0.3546
31843W        W48104   6.495   3.501   2.864  0.2985 -0.1066 -0.2012
31844W        W48105  18.324   4.233   4.668  0.1447  0.0420 -0.2155
31845W        W48106   8.892   8.088  14.247 -0.0080 -0.1643  0.2195
31846W        W48107  15.289   7.993  11.519 -0.0811 -0.1423 -0.1295
31847W        W48108   7.145  15.526   2.116 -0.0571 -0.3535 -0.0052
31848W        W48109   0.364   9.459  13.330 -0.0748 -0.0473 -0.0775
31849W        W48110   1.585   7.766  14.737  0.0242  0.1569 -0.1886
31850W        W48111  11.363   2.311   0.608  0.2554  0.0878 -0.1747
31851W        W48112   9.763   3.366   4.723 -0.2047 -0.2129 -0.0838
31852W        W48113   2.581  15.432   1.740 -0.1039 -0.0198 -0.0559
31853W        W48114  14.679   8.598  10.312 -0.1250  0.0379  0.0812
31854W        W48115  12.489   9.070  13.144  0.0309  0.0297  0.3380
31855W        W48116  16.141   2.152   2.781  0.1113  0.1367 -0.2358
31856W        W48117   7.752   4.993   4.904 -0.1170 -0.2875 -0.2518
31857W        W48118   2.049  11.321   4.692 -0.0475 -0.0471  0.0223
31858W        W48119   8.592  15.437  11.756 -0.0386  0.1310  0.0181
31859W        W48120   1.135   0.859   2.975  0.0929  0.3435 -0.2021
31860W        W48121  18.987   9.453  13.033  0.0674 -0.2618 -0.1380
31861W        W48122  17.807   3.980   1.095 -0.1594  0.1209  0.1483
31862W        W48123   5.580  10.377   3.473 -0.0012 -0.2063  0.2408
31863W        W48124   8.665   0.746   3.332  0.0682 -0.0795 -0.2082
31864W        W48125   6.528   7.255   3.626 -0.2407  0.1902 -0.0036
31865W        W48126  10.091  11.290   4.308 -0.1462 -0.0167 -0.1960
31866W        W48127   0.100   1.280   3.598  0.0295  0.2794 -0.3528
31867W        W48128   7.854  15.914  14.412  0.0494  0.2581  0.0920
31868W        W48129   8.586   0.064  10.464 -0.0175 -0.0689 -0.1488
31869W        W48130   6.495  16.056   1.894  0.0411 -0.1464  0.1730
31870W        W48131   1.511  14.022   4.735 -0.0326  0.2974  0.1800
31871W        W48132   8.683  11.548  11.735 -0.1119 -0.1963  0.2255
31872W        W48133  17.108  10.826  10.518 -0.1638  0.6240 -0.2617
31873W        W48134  16.792   6.519   4.154  0.1234  0.3497 -0.3179
31874W        W48135   6.042  12.536   4.635  0.1870 -0.1599  0.1508
31875W        W48136   9.515   3.466  13.145  0.0757  0.1336 -0.0273
31876W        W48137  15.149   6.537   9.849 -0.0418  0.1168  0.0337
31877W        W48138  17.688   1.275  14.796  0.1782 -0.2780 -0.0685
31878W        W48139  13.879   4.526   0.567  0.2622  0.2538  0.3268
31879W        W48140   9.696   7.928   1.419 -0.2683  0.2965 -0.3333
31880W        W48141   0.129  19.126  12.339 -0.0844  0.2048  0.0762
31881W        W48142  15.017  12.667   4.287 -0.0852  0.0447  0.5194
31882W        W48143   0.074  10.069   4.573 -0.0701 -0.0036  0.2199
31883W        W48144  18.388  12.165   0.627 -0.1219 -0.2800  0.1108
31884W        W48145  16.291  18.587  10.640  0.3173 -0.1452 -0.4420
31885W        W48146  14.456  18.772   2.401  0.0186  0.0859  0.1620
31886W        W48147   9.279  16.769  10.764 -0.0898 -0.0668 -0.3999
31887W        W48148  11.559  11.666  13.601 -0.0569 -0.0155 -0.0120
31888W        W48149  12.168   7.598   2.373  0.2251 -0.1378  0.4451
31889W        W48150   8.408   3.196   2.632 -0.2532 -0.1344  0.1819
31890W        W48151  15.723  18.452   5.708 -0.2369 -0.0638  0.0436
31891W        W48152  11.223   5.573   3.621  0.0221  0.3466  0.0093
31892W        W48153   6.878  12.916  10.707  0.2986 -0.3318 -0.0130
31893W        W48154   2.433   9.921  12.687 -0.4460 -0.1498  0.1662
31894W        W48155   0.574   9.343  12.828  0.0273  0.0476  0.0721
31895W        W48156  15.487  11.061  11.680 -0.2869 -0.0728  0.3426
31896W        W48157  15.531   8.786  12.139 -0.0314  0.1953  0.0940
31897W        W48158  11.991  11.711   3.896  0.0385 -0.3057 -0.2009
31898W        W48159  14.445   2.850  10.636  0.0085 -0.1181 -0.0359
31899W        W48160  17.839   2.852   1.903  0.1244  0.3217 -0.3605
31900W        W48161  17.485   6.335   1.498 -0.2343  0.1877  0.0288
31901W        W48162   6.483  19.070   0.249  0.0876 -0.0731 -0.1661
31902W        W48163  17.263  11.875  12.000 -0.0074 -0.0921  0.0274
31903W        W48164  16.947   9.603   3.192 -0.1595  0.0260  0.0108
31904W        W48165  10.619  14.542   2.199  0.0867  0.0677  0.0617
31905W        W48166   1.126  10.960   0.578  0.0429  0.1332  0.0299
31906W        W48167   0.563   6.278   2.761 -0.0712  0.2895  0.2732
31907W        W48168   2.623  13.998  12.360  0.2301  0.2345  0.2280
31908W        W48169  14.882   3.997   3.317 -0.0401 -0.2711  0.1360
31909W        W48170  12.809  14.944  11.836 -0.0743 -0.3273  0.1572
31910W        W48171  12.037  15.730   3.584  0.3181  0.1194 -0.1596
31911W        W48172  15.511   6.859   0.061  0.0639  0.2782  0.3406
31912W        W48173  14.479   7.145  10.614 -0.0470 -0.2564  0.0031
31913W        W48174  15.194   3.067  13.957 -0.0004  0.2789 -0.1057
31914W        W48175   5.259   6.853   2.667 -0.0454  0.1915  0.2117
31915W        W48176   8.558   0.573   3.810 -0.2821  0.1104  0.1132
31916W        W48177   1.803  15.589   0.758 -0.0372 -0.0873 -0.0970
31917W        W48178  15.314  15.201   1.969  0.1197  0.0327  0.0149
31918W        W48179   9.269   4.847   4.986  0.1319  0.0512  0.1635
31919W        W48180   9.377  12.935   3.574 -0.2146 -0.1369  0.2561
31920W        W48181   3.905   4.348  13.088  0.2138 -0.1353  0.0900
31921W        W48182  14.290   9.062   1.800 -0.0043  0.3431 -0.2768
31922W        W48183  19.064  12.899  13.890  0.1497  0.1706  0.3408
31923W        W48184  13.313   7.860  13.876 -0.1116 -0.0007  0.3176
31924W        W48185   8.463  14.061   0.158  0.0515  0.0965  0.1294
31925W        W48186   6.119   9.164   1.750 -0.0290  0.2146 -0.0754
31926W        W48187   4.873  14.527  12.685 -0.0549  0.0485 -0.3762
31927W        W48188  10.858  12.329   3.269 -0.0752  0.1291 -0.1955
31928W        W48189   6.145  18.536   3.633 -0.0694 -0.1221  0.2245
31929W        W48190  17.126   5.418  14.368  0.0241  0.3425  0.1567
31930W        W48191  17.084  16.715   2.234 -0.1549  0.3943  0.1343
31931W        W48192   0.711   8.833   4.278  0.2198  0.1433 -0.3016
31932W        W48193   0.470   9.038   1.959  0.0257  0.1431 -0.0600
31933W        W48194  16.780   5.638  11.834 -0.1330 -0.0911  0.4555
31934W        W48195   7.481   6.195   1.700 -0.0173  0.0586 -0.0370
31935W        W48196   7.033   8.111   1.175  0.0111 -0.2698 -0.2109
31936W        W48197  11.393  14.388  12.916  0.1894  0.3959  0.1374
31937W        W48198   5.295   9.771   1.299  0.1045  0.0235 -0.0002
31938W        W48199   6.165  10.886   1.778  0.2690 -0.1600 -0.2223
31939W        W48200   1.827   9.879  11.199  0.2392 -0.0915  0.1412
31940W        W48201   7.084  14.255   5.062 -0.3100  0.1785  0.2118
31941W        W48202  10.355   1.228   9.423  0.0462  0.0171  0.0721
31942W        W48203  15.750  17.183  11.429  0.2514  0.1752  0.1717
31943W        W48204   6.400  10.465  14.467  0.0832  0.2013 -0.1195
31944W        W48205   5.679  10.792   1.357 -0.0128 -0.4184 -0.2960
31945W        W48206   9.675  10.767  12.294 -0.4709  0.1175 -0.0476
31946W        W48207   6.480   8.922  10.198 -0.1572  0.4159 -0.3018
31947W        W48208  15.854   1.262   4.258  0.2150  0.0863  0.1199
31948W        W48209  15.678   2.443  12.274 -0.1496  0.3493 -0.0225
31949W        W48210   3.691  19.123   1.534 -0.0703  0.4772  0.1849
31950W        W48211   9.730  13.873   4.620  0.1617  0.0285 -0.4994
31951W        W48212   9.321  12.291  11.964 -0.2484  0.0254  0.0007
31952W        W48213   1.402  18.624  14.395  0.3957 -0.3281  0.0051
31953W        W48214   4.759   8.644  14.653 -0.4271  0.1549 -0.1346
31954W        W48215   5.268  16.767  10.646 -0.1074 -0.1542 -0.0570
31955W        W48216   9.757   0.386   2.036 -0.2301 -0.1211  0.2690
31956W        W48217  13.543  10.471  13.715 -0.3280 -0.3614  0.0496
31957W        W48218   5.708   8.507   0.573  0.1049  0.2330 -0.1055
31958W        W48219  16.159  14.614   3.385 -0.0094 -0.2377  0.2120
31959W        W48220  16.644  11.635   4.915  0.2631 -0.0733  0.2193
31960W        W48221  12.786   6.393   0.933  0.1803 -0.1371 -0.0152
31961W        W48222   3.849  12.330   0.139 -0.2526 -0.0557  0.1091
31962W        W48223  11.662   5.632  11.036  0.0261 -0.0685  0.1850
31963W        W48224   6.698   5.916   1.194 -0.3352 -0.1688 -0.1837
31964W        W48225   5.741  17.138   1.772 -0.0356  0.1176 -0.2102
31965W        W48226   2.978   3.990   1.181 -0.1140  0.0978 -0.0657
31966W        W48227   0.596  18.078  11.949  0.0455  0.0720  0.1209
31967W        W48228   9.474  11.697   0.749  0.0930 -0.1782 -0.2336
31968W        W48229  16.202   1.076   3.949  0.1015 -0.1450 -0.0664
31969W        W48230  17.542  18.847   2.060 -0.2475  0.0040  0.0709
31970W        W48231  13.855   7.417   2.082  0.2247 -0.0962  0.0849
31971W        W48232  10.446   2.610   1.302 -0.3719 -0.0397  0.0899
31972W        W48233   9.147   7.003   1.298  0.1087  0.0369  0.1030
31973W        W48234   8.090  17.811   1.640  0.4097 -0.0701 -0.1983
31974W        W48235  11.611   2.605  11.979 -0.0127  0.3350  0.2325
31975W        W48236   9.063   9.770   4.027 -0.0812 -0.1436 -0.1056
31976W        W48237   7.655   2.830  10.903 -0.0429 -0.2152  0.0662
31977W        W48238  16.861   8.972  14.374 -0.0053  0.1243 -0.1095
31978W        W48239   9.027   0.118   2.472  0.1435  0.0640 -0.2050
31979W        W48240   6.369   5.785   8.563  0.0911  0.2231 -0.2997
31980W        W48241  17.998  16.040   1.597 -0.1936  0.1365  0.0656
31981W        W48242  18.271  10.485   0.586 -0.0464 -0.2992 -0.0509
31982W        W48243   3.593   0.533  12.170 -0.0687 -0.0777  0.0053
31983W        W48244  12.662  15.855  13.696  0.0141  0.1575 -0.1017
31984W        W48245  10.541  18.807   3.843  0.1310  0.1917 -0.1632
31985W        W48246   9.911  13.096   2.493  0.0327 -0.0070  0.0678
31986W        W48247   9.361  17.942   4.200 -0.1163  0.3028 -0.0527
31987W        W48248  11.885   5.361   3.324 -0.0952  0.0330  0.0087
31988W        W48249   3.240   0.254  10.675  0.2824  0.2093 -0.1645
31989W        W48250  17.276  14.769  10.726  0.1659 -0.1985 -0.1802
31990W        W48251  12.430  18.003   1.682  0.1656  0.1204  0.1104
31991W        W48252  18.563  11.457   2.925  0.2028 -0.2633 -0.0523
31992W        W48253   2.341   3.624  11.322  0.0080 -0.1001 -0.2495
31993W        W48254  14.024  12.221  14.161  0.0660  0.0532 -0.0214
31994W        W48255   2.389  17.320  11.918  0.2229  0.3250 -0.0988
31995W        W48256   8.077  18.487  10.448  0.4045 -0.1261 -0.0934
31996W        W48257  10.954   0.916  13.438  0.0706 -0.0118 -0.2029
31997W        W48258  10.572  11.032   0.934  0.2600 -0.1977 -0.1441
31998W        W48259   7.054  11.803  12.467 -0.2175 -0.3128  0.1445
31999W        W48260  11.464  16.803   2.821 -0.0801 -0.0574  0.2714
32000W        W48261  19.258   3.558   9.087  0.4286  0.1186  0.1999
32001W        W48262   4.980   2.068   0.064  0.0234  0.1518  0.0920
32002W        W48263  12.139  17.262   0.851 -0.0753 -0.0512 -0.0669
32003W        W48264   8.242   6.454  10.146  0.0122 -0.4454 -0.0231
32004W        W48265   6.709  16.815   4.906  0.0471 -0.0067  0.0525
32005W        W48266   7.057   4.322  11.058  0.1255 -0.0884 -0.0781
32006W        W48267  18.664  13.641  12.180  0.1828  0.2034  0.0821
32007W        W48268   8.900   2.722   0.603  0.0012  0.0791 -0.1731
32008W        W48269   1.529   6.014   2.654  0.0012  0.1738  0.0107
32009W        W48270  10.004   2.147  10.332  0.0494  0.5038  0.2468
32010W        W48271   7.765  16.433   4.650  0.0362  0.2481 -0.1792
32011W        W48272  14.458  15.918   1.841 -0.0684 -0.2241  0.3971
32012W        W48273  14.427  12.367   1.248  0.0678  0.1230 -0.2949
32013W        W48274   6.792   3.639   1.972 -0.2734  0.2775  0.1180
32014W        W48275  17.329   8.504   1.616 -0.1801 -0.2422 -0.3507
32015W        W48276  13.563  17.954   2.693 -0.0153  0.1565 -0.3416
32016W        W48277   2.117  15.760   3.688 -0.1826 -0.1343 -0.1502
32017W        W48278  13.566   6.601  12.238  0.0235 -0.2017 -0.1776
32018W        W48279   6.841   2.818  13.448  0.2313 -0.1094  0.1517
32019W        W48280   0.997  12.801   0.462  0.3602 -0.2423 -0.3466
32020W        W48281  11.186   7.667  12.873  0.0634 -0.0346  0.1184
32021W        W48282   1.070   5.483   0.428 -0.3467  0.1745 -0.0896
32022W        W48283   1.268   5.664   2.359 -0.1128 -0.0569  0.2938
32023W        W48284  12.178   0.608   0.264  0.0212  0.0380  0.1470
32024W        W48285  17.249  17.609   2.473 -0.0470  0.4961 -0.0956
32025W        W48286   1.338  10.951  12.790 -0.5250 -0.3617 -0.0927
32026W        W48287  11.578   3.498  12.663 -0.1838 -0.2494 -0.1486
32027W        W48288  11.236   6.179  10.974 -0.0964 -0.1502 -0.3212
32028W        W48289   7.711   8.574   3.796  0.1531 -0.1794 -0.0252
32029W        W48290   5.282   7.663   8.986 -0.0152 -0.3178  0.1102
32030W        W48291  15.302   7.371  11.532  0.3484 -0.1013 -0.0899
32031W        W48292   6.120   3.335   1.348  0.2636  0.0926  0.1203
32032W        W48293  16.084   7.686  10.983 -0.1138  0.0411  0.1012
32033W        W48294  13.173  10.448   2.909 -0.1609 -0.0072  0.1001
32034W        W48295  12.014  11.944   2.375 -0.2405  0.0770 -0.0995
32035W        W48296  14.439  10.711   4.806 -0.2110 -0.0584  0.0942
32036W        W48297  16.596   6.634  10.348 -0.0509 -0.0187 -0.0021
32037W        W48298   6.865  10.718   4.476 -0.2989  0.1724  0.0065
32038W        W48299  16.161   1.327  13.696 -0.3043 -0.4399 -0.1097
32039W        W48300   2.927  15.321  13.911  0.1475 -0.1552 -0.3390
32040W        W48301  16.326  17.616  10.929 -0.3277 -0.2983 -0.2444
32041W        W48302   2.255   4.377   1.830  0.0409  0.0943  0.0665
32042W        W48303  14.484   4.090  13.064 -0.2117 -0.1784 -0.3709
32043W        W48304  14.404  18.829   1.085  0.2409  0.0187 -0.3648
32044W        W48305  13.061   2.835   4.234  0.5871 -0.2673  0.0813
32045W        W48306   2.133  18.640  10.980 -0.1580  0.1610  0.2553
32046W        W48307   5.103   4.159  11.017 -0.0320 -0.0647 -0.1849
32047W        W48308   0.034   7.789   0.427  0.1407 -0.0949  0.0284
32048W        W48309  10.346  13.661   0.562  0.1924 -0.0236  0.4664
32049W        W48310   8.951   3.121  10.508 -0.1878  0.1256 -0.0297
32050W        W48311  13.848   3.332   0.395  0.1895 -0.1761  0.2212
32051W        W48312   0.049  12.828   1.990  0.2408  0.3335  0.1885
32052W        W48313  14.638   3.342   4.138 -0.0195  0.0205 -0.2512
32053W        W48314   2.886  14.965   1.812 -0.2841 -0.1433  0.2299
32054W        W48315   8.033  13.769  14.783  0.2720  0.1399 -0.0422
32055W        W48316   6.887   9.419   1.447 -0.8047 -0.2546  0.0485
32056W        W48317  16.544  17.091   4.084  0.1061 -0.1148 -0.0103
32057W        W48318  15.769  19.190   2.253  0.0845  0.2159  0.0660
32058W        W48319   7.894   9.315   2.138  0.0546 -0.1197  0.0743
32059W        W48320   8.994   6.330   3.920 -0.0874  0.1226  0.3401
32060W        W48321   8.018   7.863   1.265  0.0445 -0.0592  0.1851
32061W        W48322   1.990  13.086   4.553  0.0569 -0.0583  0.1111
32062W        W48323   8.039  13.412   2.073  0.1505 -0.2525 -0.2363
32063W        W48324  19.001  14.936   4.250  0.0786  0.1104  0.1184
32064W        W48325  10.740   1.235  10.545  0.1689 -0.1313  0.4089
32065W        W48326  12.670   5.350   2.796  0.2929  0.0456  0.0163
32066W        W48327  15.676  11.304   3.951  0.0538 -0.0672  0.1085
32067W        W48328  11.197   6.325  11.800 -0.0311  0.0838  0.0266
32068W        W48329  11.128  15.654   0.453  0.1023  0.0510  0.1054
32069W        W48330   4.195  10.957  12.865  0.0011  0.2421  0.0529
32070W        W48331   8.149  10.435  10.359  0.0136  0.0956 -0.0691
32071W        W48332  12.254  18.900   1.965 -0.0718 -0.2677  0.2556
32072W        W48333   8.610   7.804  13.940  0.2106 -0.1200 -0.2479
32073W        W48334   6.349   5.839  10.937  0.1220  0.1100 -0.0982
32074W        W48335   2.356   3.986   2.401  0.2538 -0.0959 -0.2578
32075W        W48336   5.734  10.675  12.898  0.0926 -0.0763 -0.1103
32076W        W48337   9.875   8.850   1.327  0.1557  0.0918  0.0776
32077W        W48338   1.932   7.852   3.074 -0.0155  0.1280 -0.0467
32078W        W48339  18.003   8.900   0.320  0.2534  0.1538  0.0007
32079W        W48340   6.096  15.661   3.663 -0.1997  0.0054  0.2174
32080W        W48341  12.233  10.692  13.322  0.0380  0.3317 -0.0785
32081W        W48342   1.161   7.690  12.451  0.0211 -0.0859 -0.0962
32082W        W48343  18.256  18.935  12.282 -0.0368  0.1060  0.1522
32083W        W48344   3.580  16.958  11.402  0.1768 -0.1407 -0.4011
32084W        W48345   3.199   9.454  14.649 -0.0797  0.3673 -0.0839
32085W        W48346   3.084  11.729   2.785 -0.1960 -0.1464  0.0650
32086W        W48347  16.141   5.213  10.669  0.0545 -0.1854 -0.1003
32087W        W48348   9.031  10.463  10.200  0.0796  0.0594  0.0179
32088W        W48349   6.943   5.679  13.309 -0.0482 -0.0467  0.0074
32089W        W48350   4.885   6.573   3.937  0.0995 -0.0266  0.0532
32090W        W48351   3.210   9.184  10.068 -0.1090  0.1261  0.2197
32091W        W48352  17.779  14.005  12.576  0.1240 -0.2475 -0.0103
32092W        W48353   1.683   3.028   3.567  0.1061 -0.0143  0.0091
32093W        W48354   1.018   2.997  13.861 -0.1111 -0.0815  0.1276
32094W        W48355  17.638  13.354   3.878  0.3059  0.2452 -0.1514
32095W        W48356   7.738  17.439   2.474  0.0921  0.1181  0.2182
32096W        W48357  15.004  12.608  12.483  0.0669 -0.2891  0.1289
32097W        W48358  11.707   6.418  12.655  0.0591  0.0840 -0.3934
32098W        W48359   4.474   9.090  13.699 -0.1618 -0.4819 -0.3430
32099W        W48360  18.128   5.383   3.325  0.1359 -0.2287  0.2227
32100W        W48361  14.907  10.507  12.296 -0.0584  0.1096 -0.5952
32101W        W48362  13.763   8.396   1.055 -0.0456 -0.2449  0.1706
32102W        W48363  17.431  12.508   1.442 -0.1175  0.2624  0.2464
32103W        W48364   3.299  15.768  11.150 -0.3641 -0.4173 -0.1986
32104W        W48365  11.953  17.247   3.653 -0.1881  0.0966  0.2310
32105W        W48366   8.220   9.393  11.390 -0.3363 -0.1538  0.2664
32106W        W48367  13.249   6.432   1.118 -0.0537 -0.1896  0.1456
32107W        W48368   6.183   7.666  11.767  0.2200  0.3044  0.1330
32108W        W48369   3.974  18.950  14.075  0.2873  0.0327 -0.1511
32109W        W48370   9.377  10.832   1.873  0.1965 -0.2856  0.0306
32110W        W48371   3.706   1.705   3.247 -0.2213  0.2521  0.0480
32111W        W48372  10.105  15.075   4.132 -0.0906  0.1277  0.2534
32112W        W48373  18.163  17.103   1.324 -0.0318 -0.0173 -0.0202
32113W        W48374   9.753  15.430   3.678  0.3223  0.0259 -0.0831
32114W        W48375  16.652  13.084  12.240  0.2699  0.0578 -0.1893
32115W        W48376   6.096   7.906  12.581  0.0877  0.1444 -0.2708
32116W        W48377   1.331  17.132   0.679 -0.2237 -0.0565  0.1031
32117W        W48378  10.670  16.396  14.365 -0.0233  0.0701  0.0816
32118W        W48379  17.133   9.299   3.542 -0.2307  0.3798  0.1902
32119W        W48380   3.824   9.545   0.849 -0.1689  0.2610  0.0948
32120W        W48381   8.352  11.666   3.885 -0.2519  0.2278 -0.2949
32121W        W48382  12.646   3.560   9.925 -0.0401 -0.0259  0.1998
32122W        W48383  18.796   1.812   4.471  0.0393  0.4941 -0.0205
32123W        W48384   2.417  12.122   3.622 -0.2213 -0.2132 -0.1568
32124W        W48385   2.546   4.955   4.612 -0.1109  0.3162 -0.1516
32125W        W48386  12.256  16.918   5.369 -0.1254  0.0872  0.0346
32126W        W48387  16.550   5.740   2.621 -0.1943  0.1539 -0.2598
32127W        W48388  17.808   6.342   0.053  0.2225  0.3237 -0.0063
32128W        W48389   8.352   3.654   9.319 -0.1523  0.0046 -0.0962
32129W        W48390  10.798   0.940  11.582  0.1670 -0.0004  0.1025
32130W        W48391   6.576   8.118   3.006  0.0616 -0.0460 -0.0295
32131W        W48392   4.088   2.882  11.488  0.0526 -0.3261 -0.0370
32132W        W48393   0.509   0.237  11.802  0.0955  0.3468 -0.2053
32133W        W48394  13.953   6.999   3.012  0.0702 -0.3067 -0.2846
32134W        W48395  11.400  17.779   0.416 -0.2453 -0.2117 -0.1169
32135W        W48396   2.926   2.422  13.593 -0.1804  0.0282  0.2337
32136W        W48397  15.582   2.492   0.464 -0.3141  0.0489  0.0738
32137W        W48398  14.402  13.508  14.642  0.1579 -0.0585  0.2172
32138W        W48399   8.301   6.983   0.147  0.1699  0.5403  0.0102
32139W        W48400  11.229  16.286  14.208  0.0633  0.3341  0.0533
32140W        W48401  13.034   3.377  14.645 -0.5083  0.0556 -0.1399
32141W        W48402   3.833  13.184   3.875 -0.3638 -0.0087  0.0719
32142W        W48403  13.596  16.638  12.475 -0.1582  0.1145 -0.0907
32143W        W48404  14.905   5.543  13.073 -0.1800 -0.0521 -0.1552
32144W        W48405   0.849   0.553   3.864 -0.1117 -0.0382  0.0558
32145W        W48406  13.768   3.522   3.671 -0.2274  0.0651  0.0908
32146W        W48407  18.275   1.919  12.302  0.0574 -0.1027 -0.1948
32147W        W48408  17.233  12.650   0.922  0.1639  0.0414  0.0992
32148W        W48409   2.396   1.094  13.425 -0.1248 -0.0584  0.1641
32149W        W48410   9.049  14.751   3.237 -0.1992  0.0432 -0.2246
32150W        W48411  17.262   3.421  14.524 -0.1430 -0.1725 -0.2453
32151W        W48412  14.537   9.389   4.278  0.0340  0.0350 -0.2231
32152W        W48413   3.246   1.819  13.015  0.0978 -0.0789  0.0397
32153W        W48414   9.302   9.246  13.319  0.2458 -0.0304  0.1529
32154W        W48415   0.785   7.598  14.158  0.0306  0.0659 -0.0920
32155W        W48416   3.928   4.627   0.796  0.0935  0.2987  0.0876
32156W        W48417  12.090   3.804  14.106 -0.1548  0.3584 -0.1318
32157W        W48418   6.135  17.583  10.766 -0.0360  0.0164  0.1797
32158W        W48419  12.254  12.478   1.151  0.0124  0.1231  0.2572
32159W        W48420  15.151   7.766  10.168 -0.2863 -0.0596 -0.0303
32160W        W48421   5.173  14.726  11.712 -0.0730 -0.3921 -0.0273
32161W        W48422  17.093  15.881  12.612  0.1669  0.0354  0.1768
32162W        W48423   3.750  17.687  14.378  0.0197 -0.1903  0.3491
32163W        W48424   5.575   3.392  14.422  0.4669  0.1009  0.0611
32164W        W48425  16.763  18.433   2.538 -0.2880 -0.2062 -0.0522
32165W        W48426   1.689  13.267   3.621  0.2630  0.2593  0.1922
32166W        W48427  15.338   0.761   1.198 -0.1248 -0.0688 -0.0675
32167W        W48428  13.817   9.295   2.503 -0.3300 -0.1423  0.0731
32168W        W48429  11.840   6.727   1.951  0.1800 -0.3109 -0.0090
32169W        W48430   1.844   0.697  12.150  0.2266  0.1945 -0.0044
32170W        W48431   4.326  15.773  13.580 -0.2763 -0.0044 -0.2396
32171W        W48432  13.942  10.030  14.562  0.0160  0.0488 -0.3006
32172W        W48433   0.053   4.161   0.395  0.3172 -0.2312  0.0068
32173W        W48434   1.009   8.893   1.627 -0.0817  0.1568 -0.0431
32174W        W48435   3.780  14.543   2.946  0.0222  0.1222  0.0543
32175W        W48436  16.377   1.058   0.347  0.0753 -0.0954  0.2978
32176W        W48437  12.322   4.326  11.244 -0.0934 -0.1191  0.2294
32177W        W48438  17.845   8.638  13.457  0.0983 -0.2422 -0.4015
32178W        W48439  18.240  16.355   3.325  0.2926  0.1833 -0.0581
32179W        W48440  11.855   9.393   1.557 -0.0020  0.1084  0.1156
32180W        W48441   8.853   9.713   4.465 -0.2855 -0.0360 -0.2956
32181W        W48442  15.206  18.526  14.332  0.1513 -0.1370 -0.2675
32182W        W48443  11.650  16.592  14.071  0.2317  0.2783 -0.1229
32183W        W48444  17.611   4.420  12.802  0.4533  0.2087 -0.1758
32184W        W48445   4.563  12.872   0.089 -0.0469 -0.0573 -0.0928
32185W        W48446   5.235   5.737  13.306  0.0650  0.0304  0.1505
32186W        W48447   5.808   8.867  12.389  0.0729  0.0664  0.2368
32187W        W48448   6.936   4.464   9.977  0.2079  0.1831  0.0791
32188W        W48449   8.128  15.672   4.208 -0.1245  0.1184  0.0987
32189W        W48450  17.295  15.927  14.136 -0.0507 -0.2428 -0.1013
32190W        W48451  16.688  11.022  14.067 -0.1092 -0.2072  0.0626
32191W        W48452  11.780   2.720  13.978 -0.1826 -0.2839  0.1396
32192W        W48453  16.009   9.522   0.903  0.1947 -0.0249 -0.2851
32193W        W48454   0.024  11.177   1.344 -0.0573 -0.0028  0.1139
32194W        W48455   6.203  16.749  12.062  0.0025  0.0318  0.3982
32195W        W48456   6.132   9.804  11.790 -0.0916  0.2282  0.1818
32196W        W48457   3.076  17.202   1.862 -0.0636 -0.0374 -0.1878
32197W        W48458   5.783  19.071  12.244  0.1952 -0.0070  0.3247
32198W        W48459   5.023   6.477   2.928 -0.2339 -0.0047  0.2081
32199W        W48460  14.727   7.863  11.450  0.0285 -0.4234  0.3462
32200W        W48461  16.976   8.009   0.560 -0.1824 -0.0333 -0.0976
32201W        W48462   9.251   5.236   2.250  0.3026 -0.2506 -0.0539
32202W        W48463   9.679  11.459  14.577 -0.2951 -0.0419  0.0047
32203W        W48464  15.055  10.469   9.513  0.0721 -0.0516  0.1077
32204W        W48465   5.040  12.150   0.333 -0.1250  0.3128  0.0492
32205W        W48466   3.131  10.344   5.491  0.0508  0.4564  0.0073
32206W        W48467  10.945  17.422  11.426  0.2035  0.2112 -0.0103
32207W        W48468  12.205  13.646   2.348  0.2551  0.0664  0.4021
32208W        W48469   0.977   0.295  10.050 -0.1676  0.0889  0.2235
32209W        W48470  11.708  16.300   9.475 -0.2317 -0.0875  0.1145
32210W        W48471  16.578   4.774  11.147 -0.0296  0.1985  0.3237
32211W        W48472   1.160  14.229   2.292  0.0840  0.0102 -0.1364
32212W        W48473   1.971   3.450   1.865 -0.1923  0.3040 -0.2409
32213W        W48474   0.350   5.911   0.734  0.1207 -0.1592  0.3770
32214W        W48475   5.349  13.190  12.916 -0.2231 -0.0571 -0.0619
32215W        W48476  14.991   0.659   2.514  0.1493 -0.0650  0.3098
32216W        W48477  17.118  10.081   3.540  0.1165 -0.0404  0.2628
32217W        W48478  12.670  18.052  14.105 -0.0711  0.5560  0.0477
32218W        W48479  10.130  10.448   0.245 -0.1996 -0.2906 -0.0068
32219W        W48480   5.021   3.806   2.314 -0.0445 -0.0826 -0.0376
32220W        W48481  18.429  17.837   0.131  0.0071  0.0493  0.0270
32221W        W48482   9.082   3.576  11.364 -0.0071  0.4376 -0.3714
32222W        W48483  13.323  19.179   1.198  0.2045  0.0876  0.3181
32223W        W48484   6.270  12.456  13.555 -0.1944  0.0406  0.5613
32224W        W48485   6.498   1.263   2.045 -0.1100  0.0341  0.3119
32225W        W48486  13.682   0.589   1.946 -0.2923  0.0154  0.1973
32226W        W48487   0.490   7.026   0.147  0.2476 -0.1856 -0.1128
32227W        W48488  12.833   5.899   1.263  0.0702 -0.2906  0.2054
32228W        W48489   9.300   9.774   3.207  0.0325 -0.1733 -0.3807
32229W        W48490  17.364  14.633   1.584 -0.0173 -0.2513 -0.1444
32230W        W48491  15.838   1.187   0.471 -0.0134 -0.0062  0.1271
32231W        W48492   0.647   8.231  11.055 -0.2450  0.0487 -0.1023
32232W        W48493  16.105   1.102   2.925  0.0123 -0.2834 -0.0740
32233W        W48494  17.144  10.137  14.446 -0.2572 -0.2587  0.1230
32234W        W48495   8.221  12.460  13.147 -0.0281 -0.2087  0.2707
32235W        W48496   4.495   4.135   9.757  0.1771  0.0846  0.0806
32236W        W48497   1.998  16.895  10.370 -0.2889 -0.0176 -0.2952
32237W        W48498   4.176  14.590  12.004 -0.5167 -0.0892  0.0384
32238W        W48499  16.503  11.306  11.192 -0.1132 -0.0189  0.1253
32239W        W48500  17.645  18.414  12.405  0.1111  0.3389  0.0928
32240W        W48501  11.566   6.680  14.444  0.1587  0.1598  0.3145
32241W        W48502  17.242  13.279   4.171 -0.1203 -0.0285 -0.1704
32242W        W48503  11.610   3.378   1.329  0.2712 -0.1815 -0.0510
32243W        W48504  13.412  13.509   0.193 -0.2097 -0.2373  0.0438
32244W        W48505  13.146  18.882   2.791 -0.0713  0.1388 -0.1403
32245W        W48506  13.071  15.271   1.362  0.0235 -0.3264  0.4215
32246W        W48507   6.026  18.836   4.953 -0.2592  0.0402 -0.0024
32247W        W48508   5.682  13.798   0.773 -0.0718  0.0727 -0.1615
32248W        W48509   1.384  14.414  14.722 -0.1126  0.1303 -0.2680
32249W        W48510  11.701   0.421   0.095 -0.4796  0.0045 -0.0665
32250W        W48511  11.463   2.850  13.228 -0.0460  0.2228  0.0161
32251W        W48512  11.664  10.501   2.605 -0.1219 -0.0679 -0.1093
32252W        W48513   0.380   6.577  11.239 -0.1654  0.1171 -0.0863
32253W        W48514   8.100   0.123   4.147 -0.2049  0.3556  0.3001
32254W        W48515   7.574   0.592   0.828  0.1418 -0.3839 -0.2852
32255W        W48516   7.985  17.634  13.317 -0.0814 -0.0325 -0.1592
32256W        W48517   6.717  19.424  14.635 -0.1383  0.2574  0.1785
32257W        W48518   5.211   1.366  14.142 -0.2447  0.0323 -0.1201
32258W        W48519   5.012   2.831  11.637 -0.0789  0.0679 -0.0906
32259W        W48520   6.976   3.147  10.565  0.0234  0.2598  0.1460
32260W        W48521  15.913   0.961  12.094  0.3758  0.1786 -0.2479
32261W        W48522  11.449  14.519  14.127  0.2426  0.0235 -0.2333
32262W        W48523  15.345   4.652  12.223 -0.3764  0.0251 -0.1344
32263W        W48524  14.961  18.492   3.844  0.0508 -0.0358  0.0360
32264W        W48525   5.752  13.410   4.627  0.3779  0.0055  0.1877
32265W        W48526   0.294  11.314   2.700 -0.0019 -0.0019 -0.2606
32266W        W48527   9.985  16.106   4.332  0.2489  0.3461 -0.0791
32267W        W48528  15.106  16.000   2.704  0.1071  0.0189 -0.1225
32268W        W48529   0.221   9.123   1.527 -0.1483  0.0174 -0.0247
32269W        W48530   7.564  10.395  14.473 -0.0268  0.0744 -0.2668
32270W        W48531   6.368  10.060  12.489 -0.0255  0.0560  0.2568
32271W        W48532   8.119  14.779  12.143  0.1932  0.0863 -0.2323
32272W        W48533   3.771   8.718  14.224 -0.0031 -0.3323  0.0650
32273W        W48534   6.988   7.775   9.767  0.1009  0.1213 -0.1928
32274W        W48535  11.368  18.047   1.379  0.1078 -0.2093 -0.2215
32275W        W48536   8.781  14.075   3.952 -0.0949 -0.3555  0.1913
32276W        W48537  16.088  15.915   3.547 -0.1135  0.3793 -0.0425
32277W        W48538  12.302   5.730  14.538  0.0425  0.0751  0.2349
32278W        W48539   9.404   8.754   1.045  0.2387  0.0795 -0.0936
32279W        W48540   1.875   6.397   3.081  0.2433 -0.1322 -0.0417
32280W        W48541   2.008   4.637  11.402  0.2110 -0.1222  0.0132
32281W        W48542  12.004  13.011   2.388  0.0428  0.2708  0.1994
32282W        W48543   3.969  16.879  14.735 -0.1998  0.5185 -0.1764
32283W        W48544   4.331  18.374   0.933  0.0701 -0.2699  0.2660
32284W        W48545  12.434  12.499   3.763  0.2310  0.2717  0.0652
32285W        W48546   7.068  17.589   2.821  0.0131  0.1072 -0.0169
32286W        W48547   0.149  15.183   0.743 -0.3065  0.2824 -0.0839
32287W        W48548  15.248   8.768  11.592 -0.0118 -0.1156  0.1686
32288W        W48549  13.696  18.634  13.749 -0.0079  0.0351  0.1283
32289W        W48550  11.252   6.557  14.026 -0.3496  0.0578 -0.1611
32290W        W48551  18.155   1.262  14.653  0.0090 -0.0719 -0.1326
32291W        W48552   9.236  16.233   4.840  0.1625 -0.0348  0.3258
32292W        W48553   8.451  10.612   4.379 -0.0115  0.2312  0.0450
32293W        W48554   4.729  13.585   2.439  0.2259 -0.1238  0.1945
32294W        W48555   8.310  15.181   3.326  0.2086 -0.1877 -0.0923
32295W        W48556   9.770   9.094  13.241 -0.1998 -0.1736 -0.1963
32296W        W48557  11.183  10.125   0.209  0.1089  0.0165  0.0501
32297W        W48558   2.135   1.292   3.508  0.0466 -0.0039  0.0576
32298W        W48559   0.372   2.857   4.211  0.0638 -0.3829 -0.3194
32299W        W48560  11.975   8.121  11.027  0.1303 -0.1707 -0.0010
32300W        W48561  13.830  15.534   3.645 -0.0028  0.0648 -0.1887
32301W        W48562  16.920   7.431   3.493 -0.1744  0.1825  0.1538
32302W        W48563  18.119  17.839  13.087 -0.1248  0.1553  0.0070
32303W        W48564   3.691  17.879  10.743 -0.0810  0.0579 -0.5772
32304W        W48565  13.115  13.164  12.820 -0.0584  0.2197  0.0478
32305W        W48566   9.843   1.430  11.461 -0.1608  0.4320 -0.0619
32306W        W48567  11.692  13.827   0.716  0.0993 -0.1264 -0.0386
32307W        W48568  10.599   9.689  11.178 -0.0719 -0.2823 -0.2319
32308W        W48569   3.702  18.581   4.359  0.1816  0.2356  0.0224
32309W        W48570  14.449  13.664  12.842 -0.1468 -0.0103 -0.0899
32310W        W48571   5.497   6.729   1.026 -0.0908  0.3103  0.1903
32311W        W48572   0.175  16.373   0.645 -0.1985  0.0758  0.1936
32312W        W48573  19.308   6.895  10.562 -0.3643  0.3678  0.1517
32313W        W48574   6.888   0.767   2.534 -0.0186  0.1226 -0.0341
32314W        W48575  13.394   1.173  11.561 -0.1828  0.0609 -0.0072
32315W        W48576   2.304  17.534   9.586  0.1669  0.0110  0.0077
32316W        W48577  17.001  10.970   1.078  0.2529 -0.1326  0.1717
32317W        W48578   8.150   8.954   1.930  0.1719  0.0194  0.4538
32318W        W48579   3.138   0.180   2.220 -0.0335 -0.3143 -0.1948
32319W        W48580   8.136  17.043   0.686 -0.0096 -0.0786  0.0329
32320W        W48581  13.575   3.518  13.848  0.0016  0.0880  0.1837
32321W        W48582   8.346  14.859   4.125  0.2790 -0.3046  0.2722
32322W        W48583   4.286   5.734  10.566 -0.0982 -0.0330  0.2850
32323W        W48584   2.596   4.135   1.498 -0.2859  0.2603 -0.0987
32324W        W48585  12.007   8.835   4.273 -0.2057  0.3519  0.0642
32325W        W48586  16.696   5.479   2.180  0.1370  0.1758  0.0746
32326W        W48587  11.235   8.308  10.440  0.1264 -0.0174 -0.0546
32327W        W48588  10.832  16.236   2.386 -0.0432  0.1148  0.3264
32328W        W48589   6.570   7.112  10.474  0.2788 -0.0975 -0.0417
32329W        W48590  11.756   7.803  14.196 -0.0615 -0.0718  0.3045
32330W        W48591   9.579  10.828  13.305 -0.0098  0.0101 -0.1541
32331W        W48592  17.369  13.025  13.904  0.4168 -0.2208  0.1531
32332W        W48593   4.556   1.986  13.645  0.0378 -0.2227 -0.3949
32333W        W48594  11.969   8.372   5.212 -0.2284  0.0694 -0.1332
32334W        W48595   6.427  14.769  13.600  0.1398  0.2743 -0.0110
32335W        W48596  19.193  15.961  12.171  0.1001 -0.3108  0.0372
32336W        W48597  11.132   9.084   0.900 -0.2367 -0.2295  0.0423
32337W        W48598  19.301  14.328   4.309 -0.4463  0.3576 -0.0091
32338W        W48599  10.466   9.401  10.811  0.0530 -0.3975 -0.1062
32339W        W48600   2.496   3.202  13.046  0.1450  0.1801 -0.0797
32340W        W48601   0.515   2.007  10.419  0.0281  0.1548  0.0402
32341W        W48602   4.812   4.708  11.246 -0.1183  0.1504  0.2021
32342W        W48603   7.513   9.831   4.915 -0.1934  0.1653 -0.0885
32343W        W48604   5.539  13.297   5.364  0.1868  0.0586  0.2990
32344W        W48605   6.173  18.051  13.995 -0.0563 -0.0184 -0.0710
32345W        W48606   0.001   5.375   5.120  0.3291  0.2965 -0.1029
32346W        W48607   2.226   2.117   4.246 -0.1411 -0.1460 -0.1009
32347W        W48608   1.835  16.910  12.351 -0.3236 -0.1696 -0.2192
32348W        W48609   8.057   9.929   4.828 -0.0751  0.1525 -0.2521
32349W        W48610   0.691  18.843  12.302 -0.0163 -0.0602  0.0613
32350W        W48611   6.963  13.488   3.467 -0.2026 -0.0056 -0.1343
32351W        W48612   3.052   0.929   9.053  0.1517 -0.0366  0.0303
32352W        W48613   9.351  14.274  14.328 -0.2048  0.0667 -0.0754
32353W        W48614  11.664  11.072   4.537 -0.1209  0.0459 -0.1157
32354W        W48615  11.847  18.665   2.138  0.2401  0.0591 -0.5338
32355W        W48616   7.246   4.241  14.443  0.3323  0.1724  0.0482
32356W        W48617  11.481   0.599   1.651 -0.3004 -0.1959 -0.1169
32357W        W48618   1.848   2.647   4.758  0.0555 -0.2335 -0.0609
32358W        W48619   9.093  19.257   3.655  0.0525  0.0721  0.3217
32359W        W48620   2.125  12.748   1.127 -0.1053  0.0029  0.2714
32360W        W48621   4.553   2.930  12.132 -0.1512 -0.1570  0.0216
32361W        W48622   1.306  18.223   1.179  0.0791 -0.0445  0.3286
32362W        W48623   4.243   0.109  11.600  0.3314  0.0323 -0.3001
32363W        W48624  15.214  17.819   1.074  0.0496 -0.0144  0.1064
32364W        W48625  18.786   7.202  13.409 -0.2779 -0.0112 -0.0729
32365W        W48626  16.263  17.238   4.754  0.0711  0.3549 -0.1947
32366W        W48627  15.930   8.573   9.942 -0.2673 -0.2357 -0.0356
32367ION     NA48628  14.936   3.807   4.904  0.1514 -0.1117 -0.2281
32368ION     NA48629  17.987  12.538   9.941 -0.0379 -0.4873 -0.1119
32369ION     NA48630   2.881   1.310   9.319 -0.0456 -0.2697  0.2531
32370ION     NA48631   1.401   8.865   5.463  0.0755 -0.0474 -0.3700
32371ION     NA48632  16.980  15.291   9.904  0.1175  0.1113  0.1068
32372ION     NA48633   4.272  16.598   5.339  0.1175  0.0228 -0.0191
32373ION     NA48634   3.505  19.437   9.737 -0.0335 -0.2636  0.3937
32374ION     NA48635   4.694   6.534   4.544 -0.3793  0.0907 -0.7515
32375ION     NA48636  13.186   4.812  10.393  0.1522  0.2931  0.3056
32376ION     NA48637   2.657  15.980  10.048 -0.0783  0.1271  0.2177
32377ION     NA48638  18.294  14.055   9.735  0.0896  0.4333  0.3185
32378ION     NA48639  14.414   9.195   9.590 -0.4147  0.3900 -0.3244
32379ION     NA48640  10.779   6.633   8.962  0.2225  0.2029  0.2517
32380ION     NA48641  12.508  14.523  13.892  0.3117  0.1417  0.0363
32381ION     NA48642  12.129   5.446  11.099  0.2276 -0.2207  0.1243
32382ION     NA48643   8.832  10.933   9.810  0.1489 -0.0610 -0.0835
32383ION     NA48644   2.599   0.333   9.618 -0.3408  0.1524 -0.0501
32384ION     NA48645  13.290   0.850  10.024 -0.1934 -0.2606 -0.1971
32385ION     NA48646   9.195   2.678   8.722  0.0743 -0.2116  0.1598
32386ION     NA48647   3.085  17.038  10.612 -0.1709  0.0255 -0.1610
32387ION     NA48648  18.246   0.976   9.576  0.1695 -0.1616 -0.1845
32388ION     NA48649  15.685  11.342   9.688  0.1778  0.3712 -0.0791
32389ION     NA48650  15.748   4.357   2.828 -0.2055 -0.1190 -0.0433
32390ION     NA48651  12.497  19.345   2.167  0.3232 -0.3575  0.0108
32391ION     NA48652  11.305  19.127  12.126 -0.3820 -0.1592  0.3857
32392ION     NA48653  18.458  13.255   9.848  0.0595  0.2554  0.0122
32393ION     NA48654  11.462  15.577   9.978  0.2980 -0.1921 -0.1323
32394ION     NA48655   4.874   8.105   3.667 -0.0066  0.2404  0.0478
32395ION     NA48656  10.201  13.761   1.657 -0.0101 -0.0242  0.0798
32396ION     NA48657  18.880   0.360   9.382 -0.1459  0.0854  0.0789
32397ION     NA48658  13.550  19.055   9.961 -0.1224  0.1577 -0.1189
32398ION     NA48659   4.671  19.265   3.572 -0.3921 -0.0647  0.0730
32399ION     NA48660  12.400   1.194   9.888 -0.4381  0.1486  0.1034
32400ION     NA48661   6.769  19.405   9.256 -0.0410  0.0117  0.0883
32401ION     NA48662  18.471  11.122   9.696 -0.1736 -0.0664 -0.1223
32402ION     NA48663  15.554   8.198   9.827 -0.1266  0.0509  0.1599
32403ION     NA48664   5.530   3.601   9.188  0.2660 -0.0172 -0.3324
32404ION     NA48665   5.732  18.582   1.938  0.2000 -0.3454 -0.0733
32405ION     NA48666   2.924   6.824   9.517 -0.3584 -0.0227  0.1280
32406ION     NA48667  19.160   5.277   3.516 -0.0581  0.2276 -0.0504
32407ION     NA48668   7.321   5.033   8.450 -0.0134 -0.0362  0.0658
32408ION     NA48669   0.440   1.006  14.433 -0.2443  0.0554  0.1767
32409ION     NA48670   5.015   8.917   9.457 -0.0663  0.4843 -0.0207
32410ION     NA48671   2.915   6.327   9.547  0.3046  0.0584  0.0312
32411ION     NA48672  13.287  10.339   9.707 -0.3014  0.1914 -0.0496
32412ION     NA48673  16.037  16.735  10.729 -0.2788 -0.0283  0.0845
32413ION     NA48674  10.949  12.457  10.136  0.0264 -0.1952  0.1464
32414ION     NA48675   0.246  16.000   9.801 -0.0673  0.0099 -0.2083
32415ION     NA48676   5.782   9.254   0.958 -0.2572 -0.2149 -0.0244
32416ION     NA48677   9.422  18.895   9.718  0.1305 -0.1615 -0.3260
32417ION     NA48678  19.164  10.617   9.526 -0.0759  0.0493  0.0064
32418ION     NA48679   8.335   2.982   8.780  0.2535  0.4629 -0.0345
32419ION     NA48680  19.126   9.804  10.987  0.2332 -0.1437 -0.0176
32420ION     NA48681  14.419   2.785  10.067  0.0112  0.3544  0.0931
32421ION     NA48682   6.233   5.050  10.007 -0.2302  0.2599  0.1504
32422ION     NA48683  14.321  14.109  10.043  0.0241 -0.0478 -0.0180
32423ION     NA48684  11.762  17.797   2.516 -0.0008 -0.1088  0.1300
32424ION     NA48685   5.166  11.162   5.090 -0.0911 -0.0461  0.3199
32425ION     NA48686   9.930  15.916   9.719  0.1519  0.1280  0.1183
32426ION     NA48687   7.857   0.227   4.595 -0.0495  0.1026 -0.2920
32427ION     NA48688   1.449  19.115   9.625  0.0865  0.0982 -0.1168
32428ION     NA48689   8.493   1.081   0.547 -0.0560 -0.1483  0.2741
32429ION     NA48690   2.793   9.615  14.135 -0.1379 -0.1708 -0.3983
32430ION     NA48691   4.615   2.357   1.736 -0.0528 -0.2161 -0.1713
32431ION     NA48692   6.561   7.133   8.769 -0.2098  0.2377  0.3910
32432ION     NA48693   6.864  14.342  11.854  0.2256  0.3985  0.2444
32433ION     NA48694   8.804   7.636   8.762  0.1359  0.0458 -0.1761
32434ION     NA48695  13.404   5.461  11.786  0.0115  0.0920  0.0454
32435ION     NA48696  16.655   7.070   9.135 -0.2075 -0.2457 -0.0981
32436ION     NA48697  16.103  11.705  12.848  0.1870 -0.2023 -0.1158
32437ION     NA48698   6.223  12.913  13.122 -0.0342 -0.0073  0.0039
32438ION     NA48699   4.322   2.311   8.794  0.0667  0.2630  0.0298
32439ION     NA48700   6.146   4.785   8.591  0.3389 -0.0119 -0.0977
32440ION     NA48701  11.538  16.462   5.175  0.0358 -0.0902 -0.1394
32441ION     NA48702   0.178   1.167   4.757 -0.1165  0.2156 -0.1581
32442ION     NA48703  16.723  16.975  10.168 -0.0452  0.1544 -0.1224
32443ION     NA48704  13.046  18.357  10.202 -0.0645  0.0514 -0.0704
32444ION     NA48705  16.405  10.802   9.550 -0.0248 -0.1129  0.1190
32445ION     NA48706  16.777   9.233   0.400  0.1855 -0.0812  0.1774
32446ION     NA48707   7.194   2.216  11.691  0.1006 -0.0246 -0.3992
32447ION     NA48708  19.201  14.933  10.853 -0.0204  0.0835  0.2200
32448ION     NA48709  13.954  15.787  10.160 -0.1106 -0.2732 -0.1386
32449ION     NA48710  17.907  15.972  12.088  0.2516 -0.1931  0.0811
32450ION     NA48711  18.128  18.039  11.537 -0.0298 -0.1574 -0.2029
32451ION     NA48712  17.854   0.049   9.531  0.1918 -0.0026 -0.2321
32452ION     NA48713   5.946   4.060  13.364 -0.2575  0.0293  0.1545
32453ION     NA48714  15.858   5.552   9.180  0.1237 -0.0727 -0.3715
32454ION     NA48715  11.100   4.161  10.334 -0.1580 -0.1645  0.0202
32455ION     NA48716  15.959  17.645   9.828 -0.0528 -0.0331 -0.2594
32456ION     NA48717   6.259  12.790  14.371  0.1883 -0.2288  0.0603
32457ION     NA48718   1.849   5.950   9.388  0.1106 -0.2181 -0.0341
32458ION     NA48719  17.846   3.002   9.751 -0.2831 -0.2141  0.0992
32459ION     NA48720  19.401  18.848   9.847 -0.1501  0.2602  0.2696
32460ION     NA48721  14.955  11.727   1.326 -0.3097  0.1538 -0.0125
32461ION     NA48722  15.664  13.822   3.274 -0.1846  0.0554 -0.0982
32462ION     NA48723  10.213  14.483   9.435 -0.2075 -0.0571 -0.0504
32463ION     NA48724   3.879   5.817   9.002 -0.0062  0.5992  0.2284
32464ION     NA48725   6.320   3.101   4.315  0.1703 -0.4628  0.0740
32465ION     NA48726  18.328   2.088   9.446  0.1659  0.1380 -0.5246
32466ION     NA48727   3.210  16.056  14.049 -0.2162 -0.1061  0.0473
32467ION     NA48728  10.942  13.272   9.759 -0.0823  0.1167 -0.1241
32468ION     NA48729   7.090  17.744   3.300 -0.0644 -0.1319 -0.2550
32469ION     NA48730  18.652   9.190   9.464 -0.0538 -0.0066 -0.2733
32470ION     NA48731   2.689   1.120   5.082  0.0474  0.0290 -0.0641
32471ION     NA48732   8.196  19.077   9.279 -0.1145 -0.1004  0.1065
32472ION     NA48733  18.584  16.991   3.125  0.2455  0.0027 -0.1303
32473ION     NA48734  11.395  18.652   4.098 -0.1546 -0.2416  0.1557
32474ION     NA48735  10.481   3.950   8.685 -0.0174 -0.0991 -0.0281
32475ION     NA48736  12.320  10.046   9.543  0.1214 -0.1230  0.1423
32476ION     NA48737  17.147   7.660   9.929 -0.1855 -0.0009  0.5181
32477ION     NA48738  11.213   1.598   9.786 -0.2015 -0.0926 -0.1490
32478ION     NA48739   9.756   7.529   3.256  0.2785 -0.0484 -0.3008
32479ION     NA48740   7.456   4.211   4.452  0.2419 -0.0350 -0.1025
32480ION     NA48741  11.655  13.036  10.557  0.0883 -0.0406 -0.0193
32481ION     NA48742  17.569   5.787  12.173  0.1766  0.2560 -0.0690
32482ION     NA48743   0.992   3.332  11.595  0.2744 -0.0344 -0.3322
32483ION     NA48744  16.746   3.907   9.403  0.0672  0.1249  0.1344
32484ION     NA48745   2.702   8.373  13.497  0.1116  0.0897  0.0760
32485ION     NA48746   0.347   2.547   9.336 -0.3069  0.1242 -0.1544
32486ION     NA48747  17.284   9.616   5.696 -0.1795  0.0399  0.1854
32487ION     NA48748   0.958   3.018   4.858 -0.1229 -0.0790 -0.1402
32488ION     NA48749   6.512   2.506   9.006  0.1460  0.2999  0.0596
32489ION     NA48750   1.391  12.408   1.720 -0.3160  0.0349  0.0765
32490ION     NA48751   4.268  14.403   0.438  0.2120  0.1989 -0.3575
32491ION     NA48752   5.431  15.398   9.817 -0.0896 -0.3909 -0.2892
32492ION     NA48753   0.601  13.191   0.468  0.0864 -0.1902  0.1846
32493ION     NA48754   9.162  14.479   5.077 -0.4804  0.0829  0.0922
32494ION     NA48755  11.211  13.539   4.845 -0.1400  0.0617 -0.2008
32495ION     NA48756   4.722  11.919   5.296  0.1957  0.2263  0.1024
32496ION     NA48757   3.092  17.795   4.924 -0.1033 -0.0079  0.0227
32497ION     NA48758  15.381   8.869   4.568 -0.4572 -0.0072  0.0100
32498ION     NA48759   8.989   3.426   2.535 -0.0584  0.1418 -0.0414
32499ION     NA48760  19.097  12.222   9.788  0.1849 -0.0325  0.2352
32500ION     NA48761  18.097  15.510  14.464  0.0828  0.1411 -0.0650
32501ION     NA48762   9.697   9.360   1.206  0.2996  0.4102 -0.0935
32502ION     NA48763  13.698   5.368   2.904 -0.0503 -0.0407 -0.3209
32503ION     NA48764   2.122  12.103  14.081 -0.0418  0.1310 -0.0425
32504ION     NA48765   7.097   2.264   8.926  0.2204  0.1497 -0.0979
32505ION     NA48766  16.211   5.560   2.271  0.2854 -0.0557  0.0141
32506ION     NA48767   8.909   8.663   8.888  0.3082 -0.1341 -0.3149
32507ION     NA48768   1.455  11.698   5.679 -0.0364 -0.2177  0.2205
32508ION     NA48769  17.387   8.939   1.866  0.2235  0.1524 -0.0411
32509ION     NA48770  16.045   4.927   5.358  0.1234  0.3025 -0.0570
32510ION     NA48771  18.372   3.575  14.341 -0.0800 -0.0844  0.4489
32511ION     NA48772  10.376   8.950   9.228 -0.1491  0.1430 -0.0090
32512ION     NA48773  13.557  12.706  10.295 -0.2809 -0.1904 -0.3141
32513ION     NA48774  13.595  14.725  10.189 -0.1838  0.0296 -0.0057
32514ION     NA48775  12.573  10.639  10.363 -0.0958  0.0608  0.3136
32515ION     NA48776  16.143  15.644  10.138  0.2163 -0.1900  0.0611
32516ION     NA48777  14.505  15.433   1.459 -0.1813  0.2590 -0.0226
32517ION     NA48778   8.680  13.017   9.706 -0.1067  0.0040  0.2031
32518ION     NA48779   7.093  14.408  10.576 -0.1925  0.2108 -0.0698
32519ION     NA48780   6.051   1.492   4.736 -0.1267 -0.0211  0.0879
32520ION     NA48781  12.729   7.377   9.534 -0.1659 -0.2044  0.1296
32521ION     NA48782   4.059   3.760   8.723 -0.0289 -0.2634 -0.1724
32522ION     NA48783   1.780   6.552   1.654 -0.1349  0.4012  0.1210
32523ION     NA48784  11.365  13.193  13.079 -0.0371 -0.1479 -0.1441
32524ION     NA48785  12.662  12.725  14.656 -0.0047 -0.2988  0.0130
32525ION     NA48786   6.292  14.018   5.480  0.2218 -0.1639  0.2534
32526ION     NA48787  16.089   0.328  10.390 -0.0095  0.0207  0.1520
32527ION     NA48788   7.407   8.200   4.696  0.0759  0.1338 -0.2739
32528ION     NA48789   7.297  17.147   2.467 -0.0568 -0.0094 -0.1079
32529ION     NA48790   9.867   1.216   9.375  0.3270 -0.4005 -0.1477
32530ION     NA48791  13.369  15.848   4.404 -0.1560  0.1560  0.1784
32531ION     NA48792   8.463   9.144   9.190  0.1736 -0.1351 -0.0151
32532ION     NA48793   0.501   5.077   2.319 -0.0465  0.0005  0.0115
32533ION     NA48794  14.588  17.448  12.358  0.2151 -0.1937 -0.3419
32534ION     NA48795   4.017   7.684   9.367 -0.0954 -0.2139  0.3947
32535ION     NA48796  17.316   5.630   9.446  0.3907  0.0618  0.2151
32536ION     NA48797  10.951  14.170   9.745  0.1152 -0.0443  0.0096
32537ION     NA48798  14.023   4.627   9.374  0.2762  0.2361  0.0121
32538ION     NA48799  17.992   0.038  13.016 -0.0270 -0.0736 -0.0859
32539ION     NA48800   5.556   7.193   3.378  0.0366 -0.1211 -0.3353
32540ION     NA48801   0.734  10.304   5.077  0.2984  0.1628  0.1607
32541ION     NA48802  17.932  13.581   4.401 -0.0663  0.1163 -0.1977
32542ION     NA48803   9.391  15.233   9.294 -0.1226 -0.0341 -0.0172
32543ION     NA48804  10.772  17.391   9.847 -0.2711  0.0771  0.0883
32544ION     NA48805   3.312  14.238   0.935 -0.1979 -0.3392  0.1665
32545ION     NA48806   4.392  11.907  10.654 -0.1221 -0.1911 -0.0826
32546ION     NA48807   5.825   8.768   9.169  0.0924  0.0077 -0.1644
32547ION     NA48808  11.941   7.840  10.588  0.2511 -0.0464 -0.0489
32548ION     NA48809   3.511   2.106   4.805 -0.0218  0.0709  0.1236
32549ION     NA48810  12.556   5.845   9.257  0.2537 -0.0132 -0.1750
32550ION     NA48811  12.110   6.724   9.050  0.2475 -0.1705  0.2625
32551ION     NA48812  16.498  10.310  14.486  0.0749  0.1651  0.5306
32552ION     NA48813   4.437  18.116   9.386  0.3332 -0.4024 -0.2931
32553ION     NA48814   6.212   9.764   9.290 -0.0387  0.0623 -0.2289
32554ION     NA48815  11.946   4.212   9.837 -0.0545  0.1763  0.0362
32555ION     NA48816  10.233  18.951   9.781 -0.2329  0.3842 -0.0593
32556ION     NA48817  15.183  13.795   5.343 -0.0339  0.2365 -0.1243
32557ION     NA48818   6.464  17.964  10.737 -0.2402  0.0099  0.0259
32558ION     NA48819  12.834   8.214   5.382  0.1776 -0.0316 -0.1071
32559ION     NA48820  15.932  18.904  10.334  0.0384 -0.0424 -0.0185
32560ION     NA48821   2.776  15.492   5.103  0.1991  0.2364  0.0091
32561ION     NA48822  16.070  16.182  10.603  0.1701 -0.0658 -0.1483
32562ION     NA48823   9.030   7.178   8.991  0.0336 -0.1951 -0.0754
32563ION     NA48824  19.399   7.648   2.922  0.2536 -0.0596 -0.1316
32564ION     NA48825   2.148   1.690   9.181 -0.2903 -0.1644  0.1468
32565ION     NA48826  12.525   4.804   9.368 -0.2131 -0.3565 -0.3101
32566ION     NA48827  11.905  15.572  13.013 -0.2530 -0.0790  0.5547
32567ION     NA48828  18.971   4.205   0.496  0.0353  0.3511 -0.1443
32568ION     NA48829   4.324   5.689   8.744  0.1942 -0.0042  0.2054
32569ION     NA48830  14.144  13.336  10.132 -0.0772  0.2644 -0.0225
32570ION     NA48831  18.394   4.700   9.418  0.0221  0.2276 -0.4497
32571ION     NA48832  15.017   9.631   9.394  0.0953 -0.2337  0.1863
32572ION     NA48833  10.335  10.530   9.544 -0.0476 -0.1664  0.4027
32573ION     NA48834  18.918  11.191   1.565  0.0322  0.0558  0.0253
32574ION     NA48835   5.056   0.041  14.766 -0.3276 -0.0097  0.1251
32575ION     NA48836  12.322   1.916   5.288  0.1050 -0.2616  0.0202
32576ION     NA48837  12.077  16.458   9.752  0.1204  0.2359 -0.1144
32577ION     NA48838   5.633   9.345   1.854  0.0289 -0.0100 -0.1355
32578ION     NA48839   6.765  11.543   3.838 -0.2750 -0.1920  0.0049
32579ION     NA48840   9.702   7.890   8.965  0.0751  0.6649  0.2065
32580ION     NA48841   3.940   3.699   1.480  0.1333 -0.2905  0.0608
32581ION     NA48842   4.511  18.421   9.918  0.2338  0.0862  0.1621
32582ION     NA48843   9.598   9.284   9.202  0.0745 -0.1937  0.0816
32583ION     NA48844   0.412   4.785   9.487  0.2110 -0.4159  0.2854
32584ION     NA48845   9.215  16.842   9.359 -0.2391 -0.1290  0.0849
32585ION     NA48846   8.000  10.384   9.390  0.1087 -0.2375 -0.2324
32586ION     NA48847   4.718  15.925   9.704 -0.1046  0.2980 -0.0823
32587ION     NA48848  10.332   3.580   2.914 -0.2320 -0.0593 -0.1768
32588ION     NA48849  13.504   1.811  10.097 -0.2955  0.2541 -0.2291
32589ION     NA48850  16.193   6.342   9.106 -0.0207 -0.2235 -0.1028
32590ION     NA48851  12.998  10.821   2.212 -0.0485  0.0655  0.0506
32591ION     NA48852   2.138  14.283   9.857 -0.1319  0.0861 -0.1039
32592ION     NA48853  17.410   6.298   9.376  0.1981 -0.2135  0.0696
32593ION     NA48854  11.335  11.213  13.590  0.3413  0.2438  0.2866
32594ION     NA48855  11.590  18.794   9.955 -0.1125  0.1778  0.0477
32595ION     NA48856  17.748  14.838   9.977  0.5597  0.0803  0.3106
32596ION     NA48857  16.946   1.388   9.557 -0.0817  0.0192 -0.1886
32597ION     NA48858  12.323  12.660   5.129  0.1064 -0.2129 -0.2278
32598ION     NA48859   5.025   7.408  13.740  0.1195  0.1341 -0.3682
32599ION     NA48860  12.149  14.168   4.669 -0.0612  0.0946 -0.0444
32600ION     NA48861  19.084   2.331   9.601 -0.0547  0.0647 -0.2248
32601ION     NA48862   9.466   0.771   1.806 -0.3511 -0.4374  0.0265
32602ION     NA48863   3.323  12.201   9.730  0.1049  0.1352 -0.0325
32603ION     NA48864  14.918   0.497   6.098  0.1143  0.4066 -0.0998
32604ION     NA48865   4.173  16.256   1.359  0.0390  0.1984 -0.1848
32605ION     NA48866  10.541  11.304   9.776 -0.1337  0.0398  0.1510
32606ION     NA48867  12.634  14.824   9.873 -0.1508 -0.0399  0.1486
32607ION     NA48868  18.633   8.222   9.388  0.2988 -0.1048 -0.0511
32608ION     NA48869  10.239   2.626  13.311 -0.0206 -0.2351  0.0198
32609ION     NA48870   0.438   3.757  10.069 -0.4041 -0.0893  0.3901
32610ION     NA48871  14.061   0.658  10.336 -0.0514 -0.0893 -0.0139
32611ION     NA48872  15.199  17.247   5.968  0.2866 -0.0508  0.2021
32612ION     NA48873   3.704   5.502   1.152 -0.0183  0.2280  0.1938
32613ION     NA48874  17.245  14.435   5.540 -0.0290  0.1656 -0.2032
32614ION     NA48875  17.796   1.305   0.490 -0.2826 -0.2288 -0.1729
32615ION     NA48876  15.133  18.265   5.903  0.0836 -0.2200 -0.1045
32616ION     NA48877   9.478   5.498   0.583 -0.0190  0.0429  0.1592
32617ION     NA48878   3.504   6.117   9.029 -0.3705  0.5150  0.3230
32618ION     NA48879   3.793   1.550   8.959  0.1035  0.0187  0.0697
32619ION     NA48880  16.967   2.355   9.919  0.0792 -0.1892  0.1102
32620ION     NA48881  10.702   9.191  12.673  0.0456  0.1330  0.0564
32621ION     NA48882  17.183  10.389   9.742 -0.0327  0.1744  0.3510
32622ION     NA48883   8.699  17.073   9.512  0.1188 -0.3386 -0.0632
32623ION     NA48884   5.866  13.059   3.854  0.3589 -0.0154  0.0790
32624ION     NA48885  16.949   0.348   9.800 -0.2984  0.0862  0.0905
32625ION     NA48886   9.295   5.975   8.740 -0.0619 -0.1249 -0.2821
32626ION     NA48887   9.322   3.338   1.081  0.1602  0.2040  0.1860
32627ION     NA48888  15.623  16.542   0.885  0.0064  0.0576  0.3332
32628ION     NA48889  18.781  17.257   9.791 -0.3059  0.0070  0.0405
32629ION     NA48890  16.311   6.851   2.952 -0.2712  0.0567 -0.2394
32630ION     NA48891  16.811   8.512   9.775  0.0602 -0.2179 -0.1562
32631ION     NA48892   7.104   6.997   8.649 -0.1031 -0.5520 -0.3512
32632ION     NA48893   8.469  13.138  10.932 -0.0252  0.0939 -0.1773
32633ION     NA48894  17.877   5.150   0.129  0.0198 -0.0960 -0.0026
32634ION     NA48895   5.554  13.496   9.590 -0.3476 -0.0279 -0.0732
32635ION     NA48896  14.399   7.625  10.573  0.0644  0.1846  0.0732
32636ION     NA48897   8.245  14.825   9.649  0.1331  0.0200 -0.1614
32637ION     NA48898   8.080   0.531   9.151 -0.1057  0.2158  0.2537
32638ION     NA48899  14.548  16.201  13.447  0.1165 -0.0846  0.4095
32639ION     NA48900  19.199   0.022   9.696  0.1314  0.0583 -0.5138
32640ION     NA48901   5.806   1.566   0.149  0.3432  0.0580  0.0475
32641ION     NA48902   5.855  15.081  14.288  0.0045 -0.2159 -0.3369
32642ION     NA48903  18.331   3.740   9.459  0.0827 -0.1374 -0.3385
32643ION     NA48904   1.721   5.108   9.342  0.0185  0.0539  0.0708
32644ION     NA48905  19.417  11.390   3.182 -0.1343  0.3098 -0.0521
32645ION     NA48906  18.613   3.926   1.418  0.0989 -0.1642  0.1330
32646ION     NA48907  18.520  10.063   2.545 -0.1405  0.3708 -0.1144
32647ION     NA48908   2.197  15.995  11.525  0.1894 -0.0500 -0.0383
32648ION     NA48909  10.031  12.478  10.012  0.1917  0.2004  0.1428
32649ION     NA48910   3.548   2.896   8.974  0.2769 -0.0734 -0.2619
32650ION     NA48911   4.723  10.995   1.672  0.1873  0.1085  0.0376
32651ION     NA48912  14.908  11.676   9.728 -0.1680 -0.3989 -0.2268
32652ION     NA48913  12.363   5.127   9.837  0.0121 -0.3167  0.0871
32653ION     NA48914  14.816  14.103   4.377  0.2338 -0.0434  0.5576
32654ION     NA48915   2.192   7.616   9.401 -0.0523 -0.0573  0.0123
32655ION     NA48916   7.326  12.823   9.781  0.1612 -0.0765 -0.0038
32656ION     NA48917  12.769  17.296  13.644  0.1477 -0.3009  0.1847
32657ION     NA48918  14.631   9.765   5.148 -0.1435  0.0133  0.0396
32658ION     NA48919   0.839   8.370   9.773  0.0988  0.2402  0.0055
32659ION     NA48920  11.029   3.118   4.930  0.0380  0.2339  0.1318
32660ION     NA48921   6.530  10.600  12.488  0.0325 -0.1717  0.1003
32661ION     NA48922   2.569   5.717   9.041 -0.2912  0.1782  0.1005
32662ION     NA48923  10.778  10.333   4.215 -0.0983  0.0686  0.3990
32663ION     NA48924  18.913   7.102  10.833 -0.3352 -0.0991 -0.0366
32664ION     NA48925   6.869  17.619  12.770  0.0675 -0.0309 -0.2762
32665ION     NA48926   6.586  15.926   9.627  0.0874  0.2064  0.0539
32666ION     NA48927  14.230  19.326  10.050 -0.4630  0.1703  0.0271
32667ION     NA48928  14.404   9.605  11.310  0.3851  0.1897 -0.0204
32668ION     NA48929   0.247   1.623   0.197 -0.1997 -0.1988 -0.3786
32669ION     NA48930  18.968   1.371   1.041  0.0539  0.1814 -0.0225
32670ION     NA48931  17.532   5.142   9.409 -0.0317 -0.0117  0.1954
32671ION     NA48932   3.973   5.966   4.262 -0.0267  0.2027 -0.0067
32672ION     NA48933   3.503  14.932   9.759 -0.1637  0.0386 -0.2274
32673ION     NA48934  17.376   2.152   9.653  0.4476  0.2917  0.0103
32674ION     NA48935   1.253   3.004   9.384  0.0595 -0.0632  0.0808
32675ION     NA48936  14.421   2.541   1.809  0.1711  0.2215  0.2184
32676ION     NA48937  12.640   6.762   9.049  0.3900 -0.0488  0.0911
32677ION     NA48938  19.232  15.350   9.950  0.0023  0.1031 -0.0371
32678ION     NA48939  13.555   3.787   4.581 -0.3759 -0.2009  0.2798
32679ION     NA48940   0.221  11.607  12.067 -0.3575  0.2290 -0.0433
32680ION     NA48941  17.871  18.623   9.815 -0.1307  0.0306  0.1147
32681ION     NA48942  16.067  14.328   9.799  0.1023  0.0167  0.2465
32682ION     NA48943  17.499   3.865   9.780  0.1187  0.1397  0.4718
32683ION     NA48944   8.790  16.091   9.289 -0.0557  0.0872 -0.1439
32684ION     NA48945   5.766   7.732   8.769  0.0514  0.1168 -0.3271
32685ION     NA48946  17.872  16.648   9.755  0.3116  0.2304 -0.0802
32686ION     NA48947  10.021   3.069  14.213  0.1604  0.0738 -0.0822
32687ION     NA48948  11.392   2.049   0.139 -0.0325  0.0592  0.1273
32688ION     NA48949  13.125  19.461   5.781  0.1510 -0.1796  0.1376
32689ION     NA48950   2.380   5.533   4.772 -0.0778 -0.2170  0.0884
32690ION     NA48951  12.065   3.319   1.117  0.0088 -0.0502  0.1828
32691ION     NA48952   4.775   3.274   4.566 -0.2152  0.0238 -0.0992
32692ION     NA48953   8.033  10.854  10.093 -0.3707  0.0003  0.1520
32693ION     NA48954  12.882   1.224   3.740  0.0888 -0.0094 -0.2072
32694ION     NA48955   8.417  14.298  13.496  0.3620  0.0143 -0.0484
32695ION     NA48956   9.549   4.163   8.702 -0.1777 -0.1382  0.3432
32696ION     NA48957   3.155  12.552   5.583 -0.0270  0.0682 -0.4220
32697ION     NA48958   8.961   3.527   8.715 -0.3587  0.2040  0.1665
32698ION     NA48959  16.284   2.957  10.186  0.1883  0.1476 -0.0957
32699ION     NA48960  12.678  17.207  14.575 -0.0097  0.1120 -0.2038
32700ION     NA48961  19.235   3.150   9.442 -0.1586 -0.2228 -0.2210
32701ION     NA48962  14.521  18.886  10.140  0.0024 -0.0046  0.0812
32702ION     NA48963   6.768   7.931   8.836  0.0800  0.3036 -0.0938
32703ION     NA48964   6.781   6.884   4.684 -0.0221 -0.0224 -0.1363
32704ION     NA48965   1.916  10.295   9.925 -0.2552 -0.2710 -0.1322
32705ION     NA48966  18.074  14.823   5.671 -0.0579  0.1350  0.1631
32706ION     NA48967  15.759  15.174   1.640  0.5068 -0.0931 -0.5348
32707ION     NA48968  13.688  12.073   9.864 -0.2315  0.1628  0.0042
32708ION     NA48969  19.300  19.238   2.371 -0.0287  0.0905 -0.1270
32709ION     NA48970   8.309  12.280   1.156 -0.0108 -0.3478  0.0790
32710ION     NA48971   6.651   0.844   9.124 -0.0555 -0.1577 -0.0389
32711ION     NA48972  12.697   8.507  12.935  0.3670 -0.0009  0.1579
32712ION     NA48973  13.620  11.067  10.064  0.1375 -0.3582 -0.0223
32713ION     NA48974  11.812  10.266  10.156  0.1085 -0.4663  0.0545
32714ION     NA48975   2.594   3.345  11.759  0.0730 -0.1780  0.2260
32715ION     NA48976  14.466  10.341   1.838  0.3283 -0.1785  0.2559
32716ION     NA48977   2.711  10.519   5.609  0.0396 -0.2873 -0.1725
32717ION     NA48978   1.886  15.224  10.038  0.1275  0.1176  0.1010
32718ION     NA48979   6.890   6.766   1.554 -0.0857  0.3417 -0.0589
32719ION     NA48980  16.932   4.560   5.285 -0.1835 -0.1461  0.0758
32720ION     NA48981   7.373  15.575   9.643 -0.0186 -0.0462  0.0163
32721ION     NA48982  19.393  10.050   9.546 -0.1197 -0.6472  0.3837
32722ION     NA48983  14.168  15.502  10.471 -0.0203  0.1144 -0.0658
32723ION     NA48984   7.202   9.195  12.164 -0.0061 -0.1730 -0.0986
32724ION     NA48985   8.972  18.259   9.821  0.1695 -0.1591 -0.1325
32725ION     NA48986  13.481   6.795   9.173 -0.1231  0.1785  0.0308
32726ION     NA48987   4.578  13.637   9.550  0.0718  0.2871 -0.0480
32727ION     NA48988  12.627  12.356   5.946  0.1391  0.0627 -0.2239
32728ION     NA48989   0.222  15.826   5.356 -0.1513 -0.0881 -0.0392
32729ION     NA48990  13.381  13.814  10.074  0.1739  0.0221  0.1376
32730ION     NA48991  14.455   2.333  10.917  0.3870  0.2827  0.0451
32731ION     NA48992   7.404   2.782   8.751  0.1244 -0.1758  0.3196
32732ION     NA48993  16.816   2.044  10.410 -0.2877  0.4387 -0.2628
32733ION     NA48994  16.276   4.509   9.484 -0.1452 -0.1589  0.0158
32734ION     NA48995  14.885   3.584   0.369  0.1635  0.0235 -0.2294
32735ION     NA48996  12.589  19.462  10.722 -0.1872  0.2511  0.2534
32736ION     NA48997   8.592   3.855  12.261 -0.0607 -0.1880 -0.0667
32737ION     NA48998   7.733  17.416   1.652 -0.3953 -0.2419 -0.2484
32738ION     NA48999   9.087  14.978   9.636 -0.2143 -0.5118 -0.0715
32739ION     NA49000  15.601  10.320   9.614  0.2531  0.1768 -0.0142
32740ION     NA49001  13.562  10.603  14.550 -0.2475 -0.0802  0.1067
32741ION     NA49002  16.565  16.017  14.259 -0.1272  0.4795 -0.3768
32742ION     NA49003  12.694   5.376   4.998  0.2701 -0.0616 -0.2348
32743ION     NA49004   8.206  15.250   5.100 -0.1044 -0.1965  0.0652
32744ION     NA49005   1.780  17.666   9.867  0.6203 -0.1846 -0.1578
32745ION     NA49006   5.846  16.747   5.683  0.3122  0.2326 -0.1283
32746ION     NA49007  16.441   1.142  10.002 -0.2934 -0.0024  0.3728
32747ION     NA49008  16.888  12.415   4.471 -0.2471  0.0138 -0.1052
32748ION     NA49009  18.174   2.482   5.155  0.0589 -0.2480 -0.2907
32749ION     NA49010  17.937  15.744   9.886  0.2073  0.2434  0.0550
32750ION     NA49011  13.504  11.967   5.736 -0.0907 -0.1932 -0.2385
32751ION     NA49012  14.469   6.859   9.411 -0.1542 -0.2242 -0.1094
32752ION     NA49013   4.911   4.787  14.362  0.3460  0.2606  0.1395
32753ION     NA49014   6.593   3.251   8.826  0.2123  0.4688  0.2511
32754ION     NA49015   4.433   1.467  13.717 -0.0007  0.1678  0.0544
32755ION     NA49016  13.507   9.545   9.731  0.0156 -0.0587  0.2622
32756ION     NA49017  14.453  12.431   9.966  0.0690  0.1459 -0.3206
32757ION     NA49018   0.882  17.480   9.920  0.1012  0.1432  0.2234
32758ION     NA49019   1.660   3.520   3.689  0.0001  0.0712 -0.0182
32759ION     NA49020   2.300  12.934  11.519 -0.0050 -0.3606 -0.1989
32760ION     NA49021  13.511   7.798   9.470  0.4379  0.0716 -0.4062
32761ION     NA49022  10.981  12.121   5.280 -0.1311 -0.0021 -0.1255
32762ION     NA49023   6.927   1.654   9.048 -0.2565  0.2114  0.2980
32763ION     NA49024  14.818   0.913   9.992 -0.3187 -0.3779  0.2300
32764ION     NA49025  12.647  10.700   9.727  0.0056 -0.1261  0.0965
32765ION     NA49026   4.106  11.422   5.028 -0.0144  0.2148 -0.2578
32766ION     NA49027   5.565  13.651   0.242  0.1069  0.0489  0.0799
32767ION     NA49028  17.332  16.130  10.438  0.1645 -0.0422 -0.1286
32768ION     NA49029   2.296   5.963   0.334 -0.2715 -0.3830 -0.1187
32769ION     NA49030  12.105   0.049  14.654  0.1923 -0.1588  0.1865
32770ION     NA49031   9.240   8.833  10.953 -0.0840 -0.2373 -0.1834
32771ION     NA49032   3.833  18.536   0.735 -0.1037 -0.0887 -0.3690
32772ION     NA49033  17.010   9.435  10.352  0.2840  0.0114  0.1060
32773ION     NA49034   9.988  17.217  12.787 -0.2102 -0.1959 -0.0629
32774ION     NA49035  19.069   4.181   9.711  0.3965  0.5297 -0.0041
32775ION     NA49036   6.198   3.532  10.452 -0.0834  0.1216  0.0813
32776ION     NA49037   3.073  14.476   5.341  0.5777  0.0192 -0.1898
32777ION     NA49038  16.276   6.973  14.334 -0.0653 -0.1547 -0.5155
32778ION     NA49039  17.111   2.347  14.650  0.3403 -0.0704 -0.0803
32779ION     NA49040   9.967  18.127   9.782 -0.1398  0.0757 -0.3277
32780ION     NA49041  12.464  12.256  10.832  0.0142  0.0738 -0.2618
32781ION     NA49042   4.197  12.000   9.740 -0.0962  0.0196 -0.0315
32782ION     NA49043   4.428  15.431   9.743  0.0901  0.2812 -0.4040
32783ION     NA49044  14.923  14.099   0.870  0.0453  0.1413  0.0253
32784ION     NA49045   6.705   6.044   3.754 -0.0786 -0.2752 -0.0210
32785ION     NA49046  15.194   6.129   9.549  0.1492 -0.0502  0.0740
32786ION     NA49047  10.057  16.854   9.868  0.1445  0.0446  0.0670
32787ION     NA49048  16.233   7.822   9.628  0.0128  0.0455  0.0470
32788ION     NA49049   5.304   7.850  11.245 -0.1398 -0.0237 -0.0583
32789ION     NA49050   5.836   9.685   0.120  0.2839  0.0175 -0.1132
32790ION     NA49051  15.025  12.509  13.969  0.0403  0.2415  0.0681
32791ION     NA49052   0.315  18.085   9.838 -0.0741 -0.0836 -0.2089
32792ION     NA49053  11.990   8.954  14.628 -0.0967  0.3586 -0.1746
32793ION     NA49054   0.496   6.460   9.028  0.0124  0.6186  0.1862
32794ION     NA49055   8.663   1.070   9.362  0.3514  0.3928 -0.2576
32795ION     NA49056   1.900  11.643   9.817  0.0086 -0.0326 -0.1968
32796ION     NA49057  12.929   8.749   9.874 -0.1579 -0.3528 -0.0973
32797ION     NA49058   9.042   7.917   4.825  0.2198  0.2657 -0.1237
32798ION     NA49059  10.135  18.617  12.516  0.2526  0.1191 -0.0607
32799ION     NA49060  15.326   6.358   9.090  0.0897  0.0091 -0.1604
32800ION     NA49061   8.685  17.571   9.398 -0.1068 -0.7233  0.0006
32801ION     NA49062   8.981   9.505   1.587 -0.1777 -0.0662  0.2598
32802ION     NA49063   1.504   5.283  12.814  0.0424  0.0186 -0.0416
32803ION     NA49064   5.336  11.078   9.460 -0.0436 -0.0241  0.0713
32804ION     NA49065   4.622   0.618   5.046 -0.0627  0.1017 -0.1100
32805ION     NA49066   4.285  13.734   4.237  0.2432 -0.1298 -0.0852
32806ION     NA49067  14.069   8.214   9.414 -0.0475 -0.0299 -0.2402
32807ION     NA49068  12.865   3.874   3.812  0.2913  0.0833 -0.2209
32808ION     NA49069   0.403   7.205   5.062  0.0589  0.2854  0.0323
32809ION     NA49070  15.231  19.195  11.179  0.2436  0.2210  0.1233
32810ION     NA49071  12.534  17.139  10.116 -0.0600  0.1863 -0.2319
32811ION     NA49072   0.964  11.936  10.043 -0.1739  0.1072 -0.0762
32812ION     NA49073   8.970  10.041   9.377  0.0067 -0.0455 -0.0588
32813ION     NA49074  14.386   1.833  10.199 -0.2670  0.1473 -0.0619
32814ION     NA49075  12.474   8.154  14.343 -0.1129 -0.4377 -0.0815
32815ION     NA49076   6.379  12.696   9.744 -0.3118 -0.0271  0.1536
32816ION     NA49077   8.802   6.778  13.126  0.1262 -0.2601 -0.0589
32817ION     NA49078  15.213  15.884   5.675 -0.2011 -0.1160 -0.0941
32818ION     NA49079  11.651   7.877   9.204  0.0635 -0.1675 -0.2406
32819ION     NA49080   2.769  12.143  13.334 -0.3724 -0.1501 -0.0831
32820ION     NA49081  15.086  14.504   9.889  0.2611  0.1038 -0.0261
32821ION     NA49082  16.309   5.877   5.013 -0.2111 -0.0635 -0.0963
32822ION     NA49083   7.887   1.363   9.119  0.1107 -0.0396 -0.0968
32823ION     NA49084   6.033  17.007   9.399 -0.0589 -0.0309 -0.1415
32824ION     NA49085  17.655  11.631   9.887  0.3350 -0.0926  0.3441
32825ION     NA49086  10.800   7.492   8.942 -0.2195  0.0656  0.0138
32826ION     NA49087  17.211  18.777   2.447 -0.0813 -0.0014 -0.1374
32827ION     NA49088  18.352   5.582   9.294  0.0240 -0.0503  0.0187
32828ION     NA49089   9.618  10.961   9.616  0.0319 -0.1256  0.2391
32829ION     NA49090  18.287  10.951   1.449  0.1181 -0.2039  0.0592
32830ION     NA49091   7.422  14.682   9.840  0.3528 -0.1555 -0.3730
32831ION     NA49092  14.509  17.515  10.347 -0.1658  0.1573 -0.0329
32832ION     NA49093  12.552   7.926   9.421  0.1224  0.3489 -0.3761
32833ION     NA49094   8.999   2.768  13.653  0.1090  0.0241  0.1695
32834ION     NA49095  17.946   7.893   0.829  0.3949 -0.0788 -0.2309
32835ION     NA49096  11.817  14.283   9.925 -0.1362  0.1687 -0.1353
32836ION     NA49097  15.511  18.407  10.147 -0.0514  0.3188  0.1915
32837ION     NA49098   2.856  15.956   5.230  0.0257 -0.1805 -0.0630
32838ION     NA49099  12.932  16.216   9.902 -0.2414  0.1090  0.2833
32839ION     NA49100   5.747   6.798   8.707 -0.1667  0.1063  0.0667
32840ION     NA49101  18.890   7.632   5.231  0.0035  0.2468  0.3785
32841ION     NA49102   3.288  13.246   9.867  0.3621 -0.0477  0.1491
32842ION     NA49103  10.608   2.832  10.371 -0.1841  0.2668  0.2911
32843ION     NA49104   5.419  14.019   9.670  0.0739  0.2429  0.2008
32844ION     NA49105  17.328  13.572   5.509  0.0009 -0.0625 -0.1019
32845ION     NA49106   5.360   2.520   8.842  0.1756 -0.2176  0.1796
32846ION     NA49107  10.104   7.061   8.853 -0.0987 -0.0268  0.1580
32847ION     NA49108   8.129   6.873   9.024 -0.0290 -0.0284  0.1685
32848ION     NA49109  14.339   5.408   9.485  0.1353  0.2698 -0.4123
32849ION     NA49110   0.592   5.435   0.132  0.2159  0.1396 -0.0132
32850ION     NA49111   2.235  12.465   1.510 -0.4343  0.1740 -0.2873
32851ION     NA49112   2.549  13.676  10.479 -0.1068 -0.0344  0.2301
32852ION     NA49113   7.796   7.751   8.937  0.3632 -0.1340  0.0799
32853ION     NA49114   1.811  17.699   4.934 -0.2145 -0.1701  0.2147
32854ION     NA49115   5.174   5.917  11.471  0.0544  0.0254  0.0516
32855ION     NA49116   7.049   4.805   9.656 -0.1419 -0.4116 -0.1351
32856ION     NA49117   6.129   9.825   5.045 -0.0053 -0.2759  0.0571
32857ION     NA49118   6.767   5.520   8.765  0.0719  0.2976 -0.1956
32858ION     NA49119   1.296   6.033   9.349  0.1335  0.0775  0.0231
32859ION     NA49120   2.705   7.962   9.469 -0.0877  0.0423 -0.1831
32860ION     NA49121   9.113  19.284   4.154 -0.0132 -0.1415  0.0850
32861ION     NA49122   1.648  13.334  10.226 -0.1945  0.2258 -0.0086
32862ION     NA49123  15.517   6.681   5.225 -0.0899  0.2544  0.3418
32863ION     NA49124   2.713   9.590   3.437  0.1447 -0.0723  0.0944
32864ION     NA49125  18.435  18.003   9.646  0.1672  0.3293  0.3187
32865ION     NA49126   1.059  18.743  10.253 -0.1216 -0.3558 -0.0046
32866ION     NA49127  13.304   0.618   2.373 -0.1652  0.0476 -0.1430
32867ION     NA49128  19.107  14.281  10.014  0.2140  0.2776  0.2679
32868ION     NA49129   4.576   1.265   9.430  0.1637  0.0553 -0.0818
32869ION     NA49130  12.749  19.459   9.821  0.6627 -0.2042  0.1893
32870ION     NA49131  10.709   5.389   9.176 -0.0344  0.3238  0.2392
32871ION     NA49132  12.981   3.982   5.131 -0.2200 -0.1129  0.1968
32872ION     NA49133   5.338   4.460   4.193 -0.2753  0.1299  0.0345
32873ION     NA49134   3.988  13.376  12.898 -0.1893 -0.2277 -0.0222
32874ION     NA49135   6.630  18.526   9.420 -0.3900 -0.0257 -0.1455
32875ION     NA49136   1.660   8.648  13.490 -0.2452  0.0646 -0.2600
32876ION     NA49137   7.025  10.379   9.358  0.1751  0.3070 -0.0164
32877ION     NA49138  11.717  18.501   5.169  0.0645 -0.0234  0.2294
32878ION     NA49139  10.182  15.078   9.680 -0.0980 -0.2977 -0.2795
32879ION     NA49140   6.412  11.883   5.263 -0.0396  0.1408  0.1663
32880ION     NA49141   4.962   6.002   8.616  0.1641  0.0121  0.4143
32881ION     NA49142  17.769  10.958   3.163  0.0289  0.0210  0.1693
32882ION     NA49143  11.087   4.674   8.979  0.0410  0.0470  0.0260
32883ION     NA49144   4.880  16.646  12.753  0.4211  0.0208 -0.3758
32884ION     NA49145   9.129   6.442   3.289  0.0091 -0.1197 -0.4032
32885ION     NA49146  16.493  12.589  12.453  0.0596  0.0524 -0.0711
32886ION     NA49147   3.436  18.236   9.496  0.2572 -0.0894  0.0145
32887ION     NA49148   8.403   2.084   8.901  0.0434  0.0039 -0.0927
32888ION     NA49149  13.240  14.563   4.225 -0.4067  0.0210  0.2502
32889ION     NA49150   0.446  16.769   5.612  0.2365  0.1132 -0.2578
32890ION     NA49151  17.832  17.533   9.877  0.3694  0.1034  0.0454
32891ION     NA49152   1.842  15.900  14.610 -0.1478 -0.1362 -0.2606
32892ION     NA49153  16.114  18.148   2.746 -0.1106 -0.3137 -0.2175
32893ION     NA49154  12.140  18.942  12.373 -0.1919 -0.1203 -0.1145
32894ION     NA49155   0.933  12.672   9.998 -0.1815 -0.2515 -0.0640
32895ION     NA49156  13.228  16.602  10.028 -0.0690 -0.1488 -0.1399
32896ION     NA49157   3.517   5.076   4.349 -0.0673 -0.1162  0.0223
32897ION     NA49158   4.359   7.871   9.108  0.1722  0.2985  0.0732
32898ION     NA49159   6.973  15.027  11.129  0.2892 -0.2619 -0.1645
32899ION     NA49160  15.255   4.254   9.484 -0.2289  0.1052 -0.0692
32900ION     NA49161  15.199  18.398   2.237 -0.0735  0.0100  0.4122
32901ION     NA49162   1.058  15.396   1.624 -0.0918 -0.1685  0.0638
32902ION     NA49163   7.827  13.727  12.097 -0.3403 -0.0843  0.0700
32903ION     NA49164  11.980  19.018  10.870 -0.2318  0.1254  0.3984
32904ION     NA49165  10.542  18.681   5.601  0.2095  0.0370  0.2200
32905ION     NA49166   4.068  11.203  10.138 -0.0965  0.1991 -0.2182
32906ION     NA49167  19.135   6.215   9.202  0.0769  0.2844 -0.7137
32907ION     NA49168  11.423   3.400   9.609  0.0879 -0.0475 -0.0182
32908ION     NA49169  19.117  13.053   5.535  0.2769 -0.0119 -0.3534
32909ION     NA49170   9.820  19.483  13.610 -0.0317  0.1323 -0.0251
32910ION     NA49171  16.639  18.217   9.788  0.2262  0.0902 -0.3401
32911ION     NA49172  18.982   1.334   9.415  0.3336 -0.0638  0.2409
32912ION     NA49173  11.760  19.357   0.815  0.0242 -0.0761 -0.2154
32913ION     NA49174  15.551  11.236  14.720  0.2889 -0.1510 -0.1650
32914ION     NA49175   2.734  11.442   9.929  0.0319 -0.0806 -0.0280
32915ION     NA49176   3.657   7.625   1.040 -0.2444  0.2509  0.0226
32916ION     NA49177   8.199   3.708   4.307 -0.0852  0.1501  0.0287
32917ION     NA49178  18.462  10.008   9.935  0.5323  0.0182 -0.1039
32918ION     NA49179   8.436   4.281   9.533 -0.0822  0.0151 -0.1863
32919ION     NA49180   0.708  15.157  10.007  0.0619 -0.0656  0.0458
32920ION     NA49181  10.037   7.054   4.939  0.1634 -0.1803 -0.4121
32921ION     NA49182   3.773   3.035  12.669  0.0893 -0.1508  0.0068
32922ION     NA49183   9.291  15.341   3.074 -0.1706  0.2201  0.1806
32923ION     NA49184   8.652  14.270  10.446  0.1188 -0.0759  0.2480
32924ION     NA49185   5.186   8.130   9.262 -0.1144 -0.3241  0.0470
32925ION     NA49186  12.003  16.921  11.957  0.2312  0.0535  0.1902
32926ION     NA49187   9.836  18.325  13.999  0.2911  0.1073 -0.1931
32927ION     NA49188   6.756   2.909   4.077 -0.0077 -0.0391  0.0215
32928ION     NA49189   5.942  19.145   9.132 -0.3630 -0.1064 -0.1827
32929ION     NA49190   4.046  10.491   5.196  0.1460 -0.1494  0.0429
32930ION     NA49191  14.224   8.970   2.267  0.2721  0.1384 -0.1619
32931ION     NA49192  10.880  18.715  10.559  0.1161 -0.3058  0.0752
32932ION     NA49193  14.913   6.429   4.036 -0.0022  0.2024 -0.2024
32933ION     NA49194  11.933   3.715  13.299 -0.0254 -0.1692 -0.1253
32934ION     NA49195  14.413   3.788   9.642 -0.3582 -0.3469  0.0305
32935ION     NA49196   3.533  15.842   6.015 -0.2086  0.1565 -0.4889
32936ION     NA49197  18.719   5.100   5.126 -0.1458 -0.2710 -0.2728
32937ION     NA49198  15.210   2.175  10.352  0.1733  0.0943  0.0274
32938ION     NA49199   2.379  16.934  13.600  0.2259 -0.0954  0.1135
32939ION     NA49200   6.376   9.052   2.318  0.1884 -0.0408 -0.3943
32940ION     NA49201   0.617  14.302  10.040  0.1566 -0.0104  0.3840
32941ION     NA49202  19.403   4.671   5.187 -0.0333 -0.2098 -0.1435
32942ION     NA49203   5.455   0.192   4.853  0.0908  0.1834 -0.2961
32943ION     NA49204  11.374  16.661  12.631 -0.4293 -0.1394  0.1107
32944ION     NA49205   1.299   6.915   9.412  0.0007  0.1718  0.6164
32945ION     NA49206  13.865  18.238   9.982  0.1541  0.1380 -0.2620
32946ION     NA49207   2.316   8.375  11.638  0.0262 -0.5519 -0.4263
32947ION     NA49208  12.605   2.704  10.568 -0.1577  0.1806 -0.0283
32948ION     NA49209   6.394  16.271   0.901  0.0638 -0.1945  0.1757
32949ION     NA49210   1.696   0.331   4.497  0.4724  0.2905  0.2162
32950ION     NA49211   9.410  18.390   5.246  0.0524  0.0149  0.2711
32951ION     NA49212  14.837   3.713  10.570  0.1250  0.0246 -0.3732
32952ION     NA49213  16.067   7.193   4.925 -0.2622  0.0349 -0.3100
32953ION     NA49214   9.750   6.707   8.866  0.0866  0.0946  0.4712
32954ION     NA49215  19.190   9.188  11.662 -0.0853 -0.1758 -0.1232
32955ION     NA49216  17.758   9.561   9.535 -0.1003  0.3877 -0.2067
32956ION     NA49217  16.893   3.249   2.495 -0.1107 -0.0432 -0.0089
32957ION     NA49218   9.794   3.238  10.251 -0.0754 -0.1763  0.4052
32958ION     NA49219   2.219   8.486  10.381  0.0809 -0.2030  0.0250
32959ION     NA49220   8.122  18.268   9.575  0.1240 -0.1712 -0.1904
32960ION     NA49221   1.307  17.675   4.905  0.1649  0.0591 -0.1123
32961ION     NA49222  14.788   7.766   9.344  0.1906 -0.0319 -0.0373
32962ION     NA49223  12.117  15.569   9.846 -0.2958  0.4103 -0.2824
32963ION     NA49224   9.619  13.933  10.112  0.4129  0.1691  0.4712
32964ION     NA49225  14.872  14.194  11.797 -0.1067 -0.3592 -0.0714
32965ION     NA49226   5.029  11.848   9.421  0.1862 -0.4410 -0.2260
32966ION     NA49227   9.501  15.335   0.070  0.0957 -0.2652  0.1953
32967ION     NA49228  12.111   9.199   9.802 -0.0183  0.4758 -0.1764
32968ION     NA49229  15.254  18.822   3.461  0.0433 -0.0223  0.1366
32969ION     NA49230   9.575  13.518   2.176  0.2284  0.3888  0.3549
32970ION     NA49231   8.942   5.163   8.891 -0.1234  0.0137 -0.0840
32971ION     NA49232   4.033   8.747   9.622  0.1647  0.1008  0.1624
32972ION     NA49233   3.650   3.678  13.766 -0.0108  0.0717 -0.1679
32973ION     NA49234  17.628  17.968   1.169  0.0194  0.1069  0.1112
32974ION     NA49235   5.587   8.337  14.593 -0.3139 -0.0564  0.0244
32975ION     NA49236   6.274  18.533   2.845  0.0197  0.0688  0.4246
32976ION     NA49237   1.202  15.954   9.660 -0.1595  0.1143  0.1270
32977ION     NA49238  16.416  10.011   9.716 -0.0504  0.2421  0.1548
32978ION     NA49239  13.500  13.203   5.530  0.1294 -0.0441 -0.2395
32979ION     NA49240   4.620  16.782   9.842 -0.0073  0.1462 -0.1113
32980ION     NA49241  15.060  15.568  10.152 -0.1513  0.5240 -0.0327
32981ION     NA49242  16.356   1.702  13.450 -0.0249  0.0069 -0.2626
32982ION     NA49243   3.435  16.120   9.863 -0.0885 -0.2831  0.2293
32983ION     NA49244   3.151  11.211   5.233 -0.0363  0.1708 -0.0944
32984ION     NA49245   1.927   3.504   0.878 -0.0154 -0.2191 -0.1044
32985ION     NA49246   5.660  14.591  11.919  0.2107  0.0043  0.0450
32986ION     NA49247   9.148  14.804  13.606 -0.1814  0.0006  0.0654
32987ION     NA49248  18.012   5.973  12.948 -0.1077 -0.0578 -0.1786
32988ION     NA49249   5.508  16.371   9.657  0.0664 -0.3204 -0.2015
32989ION     NA49250   1.695  18.504   3.860  0.0121  0.1691  0.3027
32990ION     NA49251   0.614  19.434   9.835 -0.2573 -0.2899  0.1968
32991ION     NA49252   4.288  10.381   9.849  0.2472 -0.4019 -0.0544
32992ION     NA49253   0.693  16.873   5.081  0.0110 -0.1675 -0.1590
32993ION     NA49254   2.560   2.521   8.829 -0.4297 -0.3546  0.1427
32994ION     NA49255  10.541   3.797   4.430 -0.0923 -0.1105 -0.3943
32995ION     NA49256   8.378  16.211   9.534  0.0600  0.4278  0.1138
32996ION     NA49257   5.087  13.430   0.503  0.0864 -0.0190 -0.1249
32997ION     NA49258  13.473   2.917  10.253 -0.2228  0.1840 -0.1201
32998ION     NA49259   0.383   5.834   9.692  0.1989  0.1707 -0.1748
32999ION     NA49260  15.288  17.794   1.609 -0.1363  0.2127  0.1420
33000ION     NA49261   2.650  18.072   9.773  0.3479 -0.0595  0.0625
33001ION     NA49262  19.464   7.811   9.577  0.1046 -0.1348  0.3047
33002ION     NA49263   2.204  14.594  11.179  0.0681  0.2360  0.1848
33003ION     NA49264   1.380   9.001   9.620 -0.5435  0.0522 -0.0622
33004ION     NA49265  11.253   6.513   9.194  0.3061 -0.1295 -0.2072
33005ION     NA49266  15.227   8.674   9.200 -0.3936 -0.1961  0.0040
33006ION     NA49267   5.243  18.766   9.135  0.3093  0.1346 -0.0127
33007ION     NA49268  12.451  13.624  10.203  0.1937 -0.0781 -0.1120
33008ION     NA49269  10.136   0.784  13.964  0.2453  0.0101 -0.1756
33009ION     NA49270  18.896  14.336  12.916  0.3223 -0.4606  0.1217
33010ION     NA49271  17.235   0.670  11.338  0.0060  0.0117  0.3850
33011ION     NA49272   6.644   8.956   9.012 -0.1385  0.1636 -0.2628
33012ION     NA49273   1.269   1.021   9.145  0.0236  0.4967 -0.0338
33013ION     NA49274   3.200  14.001   9.925  0.0146 -0.0085 -0.1151
33014ION     NA49275  11.555   4.019   9.076  0.0132 -0.0088  0.1235
33015ION     NA49276   5.074   4.946   8.677 -0.0487  0.0112 -0.4046
33016ION     NA49277  16.272  12.674   9.593 -0.0726  0.2717  0.1484
33017ION     NA49278  17.346  13.760  12.445  0.0545  0.0097  0.3083
33018ION     NA49279  13.601  13.303   6.032 -0.2510  0.0588  0.0463
33019ION     NA49280   4.152  19.026   9.032 -0.0188 -0.0610 -0.0743
33020ION     NA49281  18.130   7.411   2.144  0.0133 -0.0379 -0.0384
33021ION     NA49282   1.365  10.723   5.530  0.2792 -0.0310  0.2035
33022ION     NA49283   9.938   3.066   9.633 -0.1560  0.1140  0.2919
33023ION     NA49284   7.301  15.673   4.316 -0.1153 -0.1714  0.1966
33024ION     NA49285   3.695   1.027   9.684 -0.0292 -0.1142  0.0282
33025ION     NA49286   7.799   9.279   4.329 -0.2648  0.2132  0.1761
33026ION     NA49287  16.271  14.960  14.209  0.3123 -0.1546  0.0799
33027ION     NA49288   0.601  13.052   9.972 -0.3613 -0.1048 -0.1584
33028ION     NA49289  13.844  18.390   5.305  0.3922  0.1782  0.5055
33029ION     NA49290   0.057   8.789   9.442  0.0735 -0.1136 -0.0308
33030ION     NA49291   5.504   9.831   9.961 -0.2387  0.0890  0.0306
33031ION     NA49292   9.309  11.604   3.009 -0.1480 -0.2449 -0.0866
33032ION     NA49293   5.978  10.968   9.525  0.2109  0.0305 -0.0605
33033ION     NA49294  10.907   9.204   9.534  0.2158 -0.2602 -0.2841
33034ION     NA49295  17.202  15.755   5.610  0.3324  0.1539 -0.0819
33035ION     NA49296   8.066  17.926  14.586  0.1668  0.3889  0.2040
33036ION     NA49297  17.452  17.067   3.200 -0.3730 -0.3396 -0.1839
33037ION     NA49298   0.259  11.459   9.691 -0.0603  0.1641  0.0472
33038ION     NA49299   6.781  17.193   9.443 -0.0197  0.0831 -0.1332
33039ION     NA49300   0.555   9.339   9.720  0.3557  0.1237 -0.1458
33040ION     NA49301  19.044  16.254   3.935 -0.1385  0.0192  0.1115
33041ION     NA49302   2.807   3.483   8.942 -0.0242 -0.0995 -0.1786
33042ION     NA49303   1.820   3.586   4.750  0.4294 -0.2919 -0.1231
33043ION     NA49304  17.639  10.296  12.485  0.0627 -0.0977 -0.3595
33044ION     NA49305   3.494  14.556  10.752 -0.4433 -0.0276 -0.2403
33045ION     NA49306   2.786  13.117   9.855  0.3149 -0.0022  0.0927
33046ION     NA49307  13.231   5.321   9.452 -0.0224  0.4495  0.0445
33047ION     NA49308   5.952  11.838   9.580 -0.2161  0.1159  0.3097
33048ION     NA49309  10.042   5.598   4.711  0.1519 -0.1492  0.2115
33049ION     NA49310  13.819  17.328   9.998 -0.2386  0.2837  0.4392
33050ION     NA49311   5.113  15.020   5.657 -0.1004 -0.2311  0.0615
33051ION     NA49312   4.030  16.711   9.587 -0.5018 -0.0223  0.0835
33052ION     NA49313   7.212   6.132   4.660  0.1323  0.0179  0.1354
33053ION     NA49314   9.903   2.203   9.179  0.1450 -0.1248 -0.0572
33054ION     NA49315  19.487  13.603  12.919  0.0685 -0.0484 -0.1234
33055ION     NA49316  13.948   3.585   9.637 -0.2723  0.1706 -0.2677
33056ION     NA49317   2.999  11.364   3.675  0.0172  0.3857  0.0513
33057ION     NA49318   1.684  18.342   0.841  0.0399  0.2955 -0.0862
33058ION     NA49319   1.448  17.088  11.163 -0.2363  0.0083 -0.0511
33059ION     NA49320  11.082   0.126   9.654  0.0583  0.0880  0.3356
33060ION     NA49321  15.830   0.726  10.197 -0.2328  0.0530  0.2671
33061ION     NA49322  14.699  12.312  12.189 -0.1394 -0.0411 -0.1039
33062ION     NA49323   4.290   1.041  11.043 -0.4134  0.0744 -0.0956
33063ION     NA49324   2.985  16.582   9.397 -0.0126  0.3416  0.0240
33064ION     NA49325  12.918   5.890  13.925 -0.1728 -0.3671 -0.1730
33065ION     NA49326   0.112  16.835  10.128  0.1360 -0.0622  0.0843
33066ION     NA49327  16.757  14.416  10.254 -0.0133 -0.0168  0.0059
33067ION     NA49328  17.637   2.690  13.534  0.1329 -0.1248  0.0940
33068ION     NA49329  16.636  10.532  13.113 -0.0784 -0.0224  0.0511
33069ION     NA49330   6.754  11.434   9.489 -0.1910  0.2049 -0.1716
33070ION     NA49331   6.318  14.254   9.703 -0.2545 -0.2028 -0.0502
33071ION     NA49332  10.716   2.427   5.115  0.1704  0.3601  0.3084
33072ION     NA49333   7.240   3.982   8.566  0.1196 -0.0358  0.0976
33073ION     NA49334  12.451   3.584   9.474  0.0141  0.1116  0.0901
33074ION     NA49335  11.638  15.572   2.891 -0.0858  0.1456 -0.1839
33075ION     NA49336   4.483   4.830   2.672 -0.1163  0.0369 -0.1241
33076ION     NA49337   2.405   5.172   9.110  0.1705  0.1399  0.2091
33077ION     NA49338  18.436   0.894   0.410  0.0249  0.1243  0.1167
33078ION     NA49339  13.761  17.404  10.899  0.4456 -0.0984  0.1527
33079ION     NA49340   7.920  16.912   9.540 -0.0011  0.1853  0.1737
33080ION     NA49341   5.280   9.745  12.823 -0.2631 -0.0639 -0.3068
33081ION     NA49342  17.269   0.786   9.556 -0.0293  0.0973 -0.4771
33082ION     NA49343  15.803   7.041   9.342 -0.0797  0.1825  0.2432
33083ION     NA49344  16.629   5.096   9.316  0.0168 -0.2455 -0.0898
33084ION     NA49345  16.493  13.595   9.730  0.0041  0.2009  0.0267
33085ION     NA49346   8.528   4.359   8.710 -0.1211  0.1734 -0.1234
33086ION     NA49347   0.355   1.699   9.384  0.2309  0.0544 -0.2117
33087ION     NA49348   3.636   3.958   9.098 -0.0111  0.0883 -0.1468
33088ION     NA49349   2.244   9.169   9.895 -0.0280  0.0850  0.0570
33089ION     NA49350  11.443  17.608  13.987 -0.2849  0.1520 -0.0008
33090ION     NA49351  11.340   0.318  10.530  0.0575  0.0032 -0.2119
33091ION     NA49352  15.673  16.789  10.027  0.4061 -0.2199 -0.0498
33092ION     NA49353   1.513  14.605  10.384 -0.3153 -0.1227 -0.3082
33093ION     NA49354  17.903   8.214   9.854  0.3090 -0.0273  0.2818
33094ION     NA49355  18.051   8.404   5.244 -0.0018 -0.2610  0.1790
33095ION     NA49356   8.515  18.834   5.249 -0.0521 -0.3316 -0.2182
33096ION     NA49357   3.286   4.494   0.318  0.1033  0.0349  0.3968
33097ION     NA49358   6.410   3.756   8.728 -0.1966 -0.0759 -0.1364
33098ION     NA49359   3.126  17.985   1.970  0.0148 -0.1280  0.1562
33099ION     NA49360   4.827  14.787  10.375  0.2265 -0.4665 -0.0573
33100ION     NA49361   7.808  12.638   9.741  0.4044  0.2466 -0.2507
33101ION     NA49362  11.240   8.429   9.114  0.4840  0.2745  0.0558
33102ION     NA49363   5.785  16.220  10.391  0.1010  0.0081  0.0737
33103ION     NA49364   4.455   0.825   9.171  0.1151 -0.3511  0.0936
33104ION     NA49365   1.370  13.747  10.038 -0.0160  0.1577 -0.0418
33105ION     NA49366  12.962   2.516   9.657 -0.0617  0.0201  0.2981
33106ION     NA49367   9.952   3.415   9.089  0.4325  0.0435 -0.2019
33107ION     NA49368  15.588   5.121   9.513  0.0939  0.1357 -0.0603
33108ION     NA49369  10.678   2.852   9.245 -0.0543  0.1583 -0.0575
33109ION     NA49370  10.832  15.882   5.529  0.1690 -0.0042 -0.0601
33110ION     NA49371  19.194  14.649  12.080 -0.2778  0.1005  0.0746
33111ION     NA49372   4.379   0.165   9.368  0.1232 -0.1797 -0.3723
33112ION     NA49373  13.417  15.803  10.744 -0.0866  0.1775 -0.1770
33113ION     NA49374  19.408  13.346   9.840 -0.0340  0.0116 -0.0174
33114ION     NA49375  11.599   2.159   2.346  0.0339  0.0419  0.0195
33115ION     NA49376   9.752   5.300   9.172 -0.0098  0.2038 -0.1670
33116ION     NA49377   3.532   7.371   9.227 -0.0646 -0.0007 -0.2213
33117ION     NA49378  17.614  13.498   9.631  0.2378  0.3091  0.0403
33118ION     NA49379  17.338   6.210   4.543  0.0320 -0.2562 -0.1244
33119ION     NA49380  12.797   1.421   5.485 -0.2470  0.0217  0.1821
33120ION     NA49381  12.272  12.869   1.957 -0.2719  0.2010  0.2547
33121ION     NA49382  15.744  10.680   5.465 -0.0956  0.0189 -0.1799
33122ION     NA49383  11.030  16.170   3.415 -0.1036  0.0662  0.3397
33123ION     NA49384  19.417  19.272   5.122  0.2271  0.1366  0.0264
33124ION     NA49385   9.308   0.422   9.460 -0.2310 -0.1280 -0.1485
33125ION     NA49386   7.224  14.806   3.905 -0.3001 -0.1427  0.4462
33126ION     NA49387   3.522  17.108   9.567 -0.0496 -0.0671 -0.1073
33127ION     NA49388   1.937   9.645   5.077 -0.0317 -0.1128 -0.4193
33128ION     NA49389   2.617   3.952   9.062  0.0459 -0.1763 -0.0798
33129ION     NA49390   7.245   3.740   1.713 -0.2291  0.0287  0.3232
33130ION     NA49391  15.851   3.755   9.763 -0.1755  0.0493  0.0036
33131ION     NA49392   7.141   0.218   2.597  0.0367  0.0453  0.0584
33132ION     NA49393  15.212  19.371  10.206  0.1450 -0.1634  0.1100
33133ION     NA49394  18.958  18.263   9.490  0.0071  0.2220 -0.2216
33134ION     NA49395  19.022  16.319   9.684  0.1699 -0.0370  0.1234
33135ION     NA49396   3.408   6.318  14.358  0.1252 -0.3258 -0.0074
33136ION     NA49397  14.181   4.436   5.052 -0.1796 -0.3665  0.0969
33137ION     NA49398  16.625  16.533   9.921  0.2714  0.1300  0.1455
33138ION     NA49399  15.844  13.310   9.772 -0.0635 -0.1388 -0.1477
33139ION     NA49400  13.719  18.404   2.541 -0.0572  0.0679 -0.1154
33140ION     NA49401  18.946   6.911   9.148  0.0418  0.1044 -0.2375
33141ION     NA49402  12.916  14.376  10.910 -0.3525  0.0499  0.1586
33142ION     NA49403  14.183  10.170   9.547 -0.1861 -0.0434  0.2890
33143ION     NA49404   1.068   3.537   2.239  0.1095 -0.2042 -0.1245
33144ION     NA49405   4.762   1.433   8.956 -0.0494  0.0788  0.1250
33145ION     NA49406   6.401   6.324   8.579 -0.0041  0.2191 -0.0259
33146ION     NA49407  19.317   4.836   9.307 -0.1314 -0.0954 -0.0765
33147ION     NA49408   2.445  10.510  10.070  0.3061 -0.0556 -0.1258
33148ION     NA49409  15.435  12.373   9.897  0.2598 -0.3714  0.1650
33149ION     NA49410   9.390  11.724   9.829  0.1383  0.0836  0.1405
33150ION     NA49411   3.258  12.668   2.533 -0.0169  0.0709  0.3193
33151ION     NA49412  10.288  10.128  14.321 -0.0719  0.1899  0.0806
33152ION     NA49413   1.693  18.183   9.817  0.1114  0.0661 -0.2635
33153ION     NA49414  10.087  14.543   0.302 -0.1014  0.0558  0.0044
33154ION     NA49415   4.569   4.243   8.930  0.0871  0.0772 -0.1348
33155ION     NA49416   4.484   8.621   5.059 -0.1283 -0.0743 -0.1855
33156ION     NA49417  13.136   8.984  14.648 -0.0942 -0.0947  0.2596
33157ION     NA49418  11.418   9.813   9.513 -0.0964 -0.3206  0.2038
33158ION     NA49419   0.237  17.203   2.546 -0.1701  0.2745  0.2367
33159ION     NA49420  11.004  14.082   2.431 -0.0114  0.0499  0.2370
33160ION     NA49421  11.630  11.407   9.960 -0.2836 -0.3908  0.3808
33161ION     NA49422   5.162   1.246  11.892 -0.3259 -0.1137  0.0390
33162ION     NA49423   6.026  10.537   9.323 -0.0415 -0.1069  0.0235
33163ION     NA49424  10.714   0.849   9.592  0.3355  0.2086  0.1056
33164ION     NA49425   8.111   9.963  10.153 -0.1912 -0.0027 -0.1609
33165ION     NA49426   5.278   0.554   9.025 -0.1601 -0.1667  0.1211
33166ION     NA49427  17.978  10.214   5.259  0.2891 -0.1634 -0.0759
33167ION     NA49428   8.777  19.303   1.351 -0.1803 -0.0645  0.0826
  19.48834  19.48834  14.81233
